<event>
 8    1  0.1199892E+005  0.1043930E+01  0.7957747E-01            NaN
         13   -1    0    0    0    0  0.00000000000E+00  0.00000000000E+00  0.74505805969E-08  0.10566000000E+00  0.10566000000E+00 0.  1.
     999900   -1    0    0    0    0 -0.00000000000E+00 -0.00000000000E+00 -0.74505805969E-08  0.93827000000E+00  0.93827000000E+00 0.  1.
     999902    2    1    2    0    0  0.74882031040E-02  0.18335225801E-01 -0.12734750732E-01  0.10203837144E+01  0.10201120022E+01 0.  0.
     999903    2    3    3    0    0 -0.40746884573E-01 -0.11721021548E+00  0.24801512510E-01  0.12791065517E+00  0.18640747508E-01 0.  0.
         14    1    1    2    0    0 -0.74882031040E-02 -0.18335225801E-01  0.12734750732E-01  0.23546285633E-01  0.00000000000E+00 0. -1.
     999901    1    3    3    0    0  0.48235087677E-01  0.13554544128E+00 -0.37536263242E-01  0.89247305920E+00  0.88000000000E+00 0.  1.
        -11    1    4    4    0    0 -0.24535321739E-02 -0.15050912121E-01  0.88782337979E-02  0.17653156436E-01  0.51100000000E-03 0.  1.
         11    1    4    4    0    0 -0.38293352399E-01 -0.10215930336E+00  0.15923278712E-01  0.11025749873E+00  0.51100000000E-03 0. -1.
</event>
<event>
 8    1  0.1199892E+005  0.1043930E+01  0.7957747E-01            NaN
         13   -1    0    0    0    0  0.00000000000E+00  0.00000000000E+00  0.74505805969E-08  0.10566000000E+00  0.10566000000E+00 0. -1.
     999900   -1    0    0    0    0 -0.00000000000E+00 -0.00000000000E+00 -0.74505805969E-08  0.93827000000E+00  0.93827000000E+00 0. -1.
     999902    2    1    2    0    0  0.15284971601E-01  0.14843700506E-01 -0.11748411667E-01  0.10195991353E+01  0.10193087882E+01 0.  0.
     999903    2    3    3    0    0  0.65425947330E-01  0.36509056788E-01  0.10459750358E+00  0.13026237279E+00  0.20351466747E-01 0.  0.
         14    1    1    2    0    0 -0.15284971601E-01 -0.14843700506E-01  0.11748411667E-01  0.24330864725E-01  0.00000000000E+00 0. -1.
     999901    1    3    3    0    0 -0.50140975730E-01 -0.21665356282E-01 -0.11634591525E+00  0.88933676248E+00  0.88000000000E+00 0. -1.
        -11    1    4    4    0    0  0.32279861900E-01  0.29475298718E-01  0.60839503591E-01  0.74916547151E-01  0.51100000000E-03 0. -1.
         11    1    4    4    0    0  0.33146085430E-01  0.70337580704E-02  0.43757999988E-01  0.55345825641E-01  0.51100000000E-03 0.  1.
</event>
<event>
 8    1  0.1199892E+005  0.1043930E+01  0.7957747E-01            NaN
         13   -1    0    0    0    0  0.00000000000E+00  0.00000000000E+00  0.74505805969E-08  0.10566000000E+00  0.10566000000E+00 0. -1.
     999900   -1    0    0    0    0 -0.00000000000E+00 -0.00000000000E+00 -0.74505805969E-08  0.93827000000E+00  0.93827000000E+00 0. -1.
     999902    2    1    2    0    0  0.22270579090E-03  0.24302556244E-01 -0.52594707969E-03  0.10196207331E+01  0.10193309074E+01 0.  0.
     999903    2    3    3    0    0 -0.12274172208E+00 -0.23646482543E-01 -0.26635582973E-01  0.12939543916E+00  0.20224710644E-01 0.  0.
         14    1    1    2    0    0 -0.22270579090E-03 -0.24302556244E-01  0.52594707969E-03  0.24309266920E-01  0.00000000000E+00 0. -1.
     999901    1    3    3    0    0  0.12296442787E+00  0.47949038788E-01  0.26109635894E-01  0.89022529392E+00  0.88000000000E+00 0. -1.
        -11    1    4    4    0    0 -0.54092503708E-01 -0.16134013667E-02 -0.16552042310E-01  0.56593579556E-01  0.51100000000E-03 0.  1.
         11    1    4    4    0    0 -0.68649218370E-01 -0.22033081177E-01 -0.10083540663E-01  0.72801859607E-01  0.51100000000E-03 0. -1.
</event>
<event>
 8    1  0.1199892E+005  0.1043930E+01  0.7957747E-01            NaN
         13   -1    0    0    0    0  0.00000000000E+00  0.00000000000E+00  0.74505805969E-08  0.10566000000E+00  0.10566000000E+00 0.  1.
     999900   -1    0    0    0    0 -0.00000000000E+00 -0.00000000000E+00 -0.74505805969E-08  0.93827000000E+00  0.93827000000E+00 0.  1.
     999902    2    1    2    0    0 -0.76289039962E-02 -0.83330145488E-02 -0.21161232455E-01  0.10199417306E+01  0.10196595985E+01 0.  0.
     999903    2    3    3    0    0  0.11236416475E+00 -0.43188874654E-01  0.38742228770E-01  0.12909848282E+00  0.25970628834E-01 0.  0.
         14    1    1    2    0    0  0.76289039962E-02  0.83330145488E-02  0.21161232455E-01  0.23988269356E-01  0.00000000000E+00 0.  1.
     999901    1    3    3    0    0 -0.11999306875E+00  0.34855860105E-01 -0.59903461225E-01  0.89084324783E+00  0.88000000000E+00 0.  1.
        -11    1    4    4    0    0  0.48412493810E-01 -0.15732285323E-01  0.33478490498E-02  0.51017090986E-01  0.51100000000E-03 0. -1.
         11    1    4    4    0    0  0.63951670940E-01 -0.27456589331E-01  0.35394379720E-01  0.78081391832E-01  0.51100000000E-03 0.  1.
</event>
<event>
 7    1  0.1199892E+005  0.1043930E+01  0.7957747E-01            NaN
         13   -1    0    0    0    0  0.00000000000E+00  0.00000000000E+00  0.74505805969E-08  0.10566000000E+00  0.10566000000E+00 0.  1.
     999900   -1    0    0    0    0 -0.00000000000E+00 -0.00000000000E+00 -0.74505805969E-08  0.93827000000E+00  0.93827000000E+00 0. -1.
     999903    2    1    2    0    0 -0.34312127362E-01  0.28888666428E-01 -0.17021345111E-01  0.52054436021E-01  0.20200519497E-01 0.  0.
         14    1    1    2    0    0  0.47277495843E-01  0.11760740825E-01  0.95647640386E-01  0.10734033608E+00  0.00000000000E+00 0.  1.
     999901    1    1    2    0    0 -0.12965368480E-01 -0.40649407253E-01 -0.78626295274E-01  0.88453522790E+00  0.88000000000E+00 0. -1.
        -11    1    3    3    0    0 -0.30913354864E-01  0.14071491500E-01 -0.11199052017E-01  0.35767614808E-01  0.51100000000E-03 0. -1.
         11    1    3    3    0    0 -0.33987724983E-02  0.14817174928E-01 -0.58222930944E-02  0.16286821213E-01  0.51100000000E-03 0.  1.
</event>
<event>
 8    1  0.1199892E+005  0.1043930E+01  0.7957747E-01            NaN
         13   -1    0    0    0    0  0.00000000000E+00  0.00000000000E+00  0.74505805969E-08  0.10566000000E+00  0.10566000000E+00 0.  1.
     999900   -1    0    0    0    0 -0.00000000000E+00 -0.00000000000E+00 -0.74505805969E-08  0.93827000000E+00  0.93827000000E+00 0.  1.
     999902    2    1    2    0    0  0.48237265834E-02  0.20117249468E-01 -0.10139301924E-01  0.10208913909E+01  0.10206314000E+01 0.  0.
     999903    2    3    3    0    0  0.89759938341E-01  0.52872550284E-01  0.78289299029E-01  0.13178696103E+00  0.19652878957E-01 0.  0.
         14    1    1    2    0    0 -0.48237265834E-02 -0.20117249468E-01  0.10139301924E-01  0.23038609068E-01  0.00000000000E+00 0.  1.
     999901    1    3    3    0    0 -0.84936211757E-01 -0.32755300816E-01 -0.88428600954E-01  0.88910442990E+00  0.88000000000E+00 0.  1.
        -11    1    4    4    0    0  0.32698414434E-01  0.27974499414E-01  0.39623678170E-01  0.58498341145E-01  0.51100000000E-03 0. -1.
         11    1    4    4    0    0  0.57061523906E-01  0.24898050870E-01  0.38665620859E-01  0.73288619888E-01  0.51100000000E-03 0.  1.
</event>
<event>
 8    1  0.1199892E+005  0.1043930E+01  0.7957747E-01            NaN
         13   -1    0    0    0    0  0.00000000000E+00  0.00000000000E+00  0.74505805969E-08  0.10566000000E+00  0.10566000000E+00 0. -1.
     999900   -1    0    0    0    0 -0.00000000000E+00 -0.00000000000E+00 -0.74505805969E-08  0.93827000000E+00  0.93827000000E+00 0.  1.
     999902    2    1    2    0    0 -0.11363463802E-01 -0.50849827003E-02  0.19973546509E-01  0.10203943267E+01  0.10201228622E+01 0.  0.
     999903    2    3    3    0    0  0.60919111021E-01 -0.16581368270E-02  0.11553241871E+00  0.13226820278E+00  0.20814662811E-01 0.  0.
         14    1    1    2    0    0  0.11363463802E-01  0.50849827003E-02 -0.19973546509E-01  0.23535673323E-01  0.00000000000E+00 0.  1.
     999901    1    3    3    0    0 -0.72282574824E-01 -0.34268458733E-02 -0.95558872200E-01  0.88812612390E+00  0.88000000000E+00 0.  1.
        -11    1    4    4    0    0  0.42225252858E-01 -0.35564052438E-02  0.58633275758E-01  0.72344606878E-01  0.51100000000E-03 0.  1.
         11    1    4    4    0    0  0.18693858163E-01  0.18982684168E-02  0.56899142951E-01  0.59923595900E-01  0.51100000000E-03 0. -1.
</event>
<event>
 8    1  0.1199892E+005  0.1043930E+01  0.7957747E-01            NaN
         13   -1    0    0    0    0  0.00000000000E+00  0.00000000000E+00  0.74505805969E-08  0.10566000000E+00  0.10566000000E+00 0. -1.
     999900   -1    0    0    0    0 -0.00000000000E+00 -0.00000000000E+00 -0.74505805969E-08  0.93827000000E+00  0.93827000000E+00 0.  1.
     999902    2    1    2    0    0  0.20244655346E-01  0.10905092545E-01 -0.41266268700E-03  0.10209313608E+01  0.10206722814E+01 0.  0.
     999903    2    3    3    0    0  0.10506747633E+00 -0.77222459234E-01 -0.16342957413E-01  0.13232844015E+00  0.15531935582E-01 0.  0.
         14    1    1    2    0    0 -0.20244655346E-01 -0.10905092545E-01  0.41266268700E-03  0.22998639177E-01  0.00000000000E+00 0. -1.
     999901    1    3    3    0    0 -0.84822820982E-01  0.88127551779E-01  0.15930294726E-01  0.88860292067E+00  0.88000000000E+00 0. -1.
        -11    1    4    4    0    0  0.58925374872E-01 -0.47914592178E-01 -0.27524325028E-02  0.75998979948E-01  0.51100000000E-03 0.  1.
         11    1    4    4    0    0  0.46142101456E-01 -0.29307867056E-01 -0.13590524910E-01  0.56329460200E-01  0.51100000000E-03 0. -1.
</event>
<event>
 8    1  0.1199892E+005  0.1043930E+01  0.7957747E-01            NaN
         13   -1    0    0    0    0  0.00000000000E+00  0.00000000000E+00  0.74505805969E-08  0.10566000000E+00  0.10566000000E+00 0. -1.
     999900   -1    0    0    0    0 -0.00000000000E+00 -0.00000000000E+00 -0.74505805969E-08  0.93827000000E+00  0.93827000000E+00 0. -1.
     999902    2    1    2    0    0  0.67537835807E-02  0.11627614807E-01  0.18969130236E-01  0.10206782706E+01  0.10204133913E+01 0.  0.
     999903    2    3    3    0    0 -0.93146251334E-01  0.59817258392E-01 -0.64597727848E-01  0.12978788536E+00  0.20437715223E-01 0.  0.
         14    1    1    2    0    0 -0.67537835807E-02 -0.11627614807E-01 -0.18969130236E-01  0.23251729412E-01  0.00000000000E+00 0.  1.
     999901    1    3    3    0    0  0.99900034914E-01 -0.48189643584E-01  0.83566858084E-01  0.89089038523E+00  0.88000000000E+00 0.  1.
        -11    1    4    4    0    0 -0.39034665977E-01  0.34732119500E-01 -0.23123052211E-01  0.57139845445E-01  0.51100000000E-03 0. -1.
         11    1    4    4    0    0 -0.54111585357E-01  0.25085138891E-01 -0.41474675637E-01  0.72648039913E-01  0.51100000000E-03 0.  1.
</event>
<event>
 8    1  0.1199892E+005  0.1043930E+01  0.7957747E-01            NaN
         13   -1    0    0    0    0  0.00000000000E+00  0.00000000000E+00  0.74505805969E-08  0.10566000000E+00  0.10566000000E+00 0. -1.
     999900   -1    0    0    0    0 -0.00000000000E+00 -0.00000000000E+00 -0.74505805969E-08  0.93827000000E+00  0.93827000000E+00 0.  1.
     999902    2    1    2    0    0  0.17847488163E-01  0.57799657533E-02  0.12343360115E-01  0.10214733890E+01  0.10212265102E+01 0.  0.
     999903    2    3    3    0    0  0.61726348217E-01  0.98612274736E-01 -0.60307544036E-01  0.13252943925E+00  0.19812359982E-01 0.  0.
         14    1    1    2    0    0 -0.17847488163E-01 -0.57799657533E-02 -0.12343360115E-01  0.22456610982E-01  0.00000000000E+00 0.  1.
     999901    1    3    3    0    0 -0.43878860054E-01 -0.92832308983E-01  0.72650904152E-01  0.88894394977E+00  0.88000000000E+00 0. -1.
        -11    1    4    4    0    0  0.49586713426E-01  0.72564695080E-01 -0.53834636242E-01  0.10306748421E+00  0.51100000000E-03 0. -1.
         11    1    4    4    0    0  0.12139634792E-01  0.26047579656E-01 -0.64729077943E-02  0.29461955046E-01  0.51100000000E-03 0.  1.
</event>
<event>
 8    1  0.1199892E+005  0.1043930E+01  0.7957747E-01            NaN
         13   -1    0    0    0    0  0.00000000000E+00  0.00000000000E+00  0.74505805969E-08  0.10566000000E+00  0.10566000000E+00 0. -1.
     999900   -1    0    0    0    0 -0.00000000000E+00 -0.00000000000E+00 -0.74505805969E-08  0.93827000000E+00  0.93827000000E+00 0.  1.
     999902    2    1    2    0    0 -0.13385427329E-01  0.46850394678E-02  0.17274266072E-01  0.10215800665E+01  0.10213355534E+01 0.  0.
     999903    2    3    3    0    0  0.55043144932E-01  0.99306647898E-01 -0.61278909435E-01  0.13039752645E+00  0.18890527860E-01 0.  0.
         14    1    1    2    0    0  0.13385427329E-01 -0.46850394678E-02 -0.17274266072E-01  0.22349933510E-01  0.00000000000E+00 0.  1.
     999901    1    3    3    0    0 -0.68428572261E-01 -0.94621608430E-01  0.78553175507E-01  0.89118254004E+00  0.88000000000E+00 0. -1.
        -11    1    4    4    0    0  0.38024450038E-01  0.51159359147E-01 -0.38584760271E-01  0.74512976556E-01  0.51100000000E-03 0. -1.
         11    1    4    4    0    0  0.17018694894E-01  0.48147288751E-01 -0.22694149164E-01  0.55884549898E-01  0.51100000000E-03 0.  1.
</event>
<event>
 8    1  0.1199892E+005  0.1043930E+01  0.7957747E-01            NaN
         13   -1    0    0    0    0  0.00000000000E+00  0.00000000000E+00  0.74505805969E-08  0.10566000000E+00  0.10566000000E+00 0. -1.
     999900   -1    0    0    0    0 -0.00000000000E+00 -0.00000000000E+00 -0.74505805969E-08  0.93827000000E+00  0.93827000000E+00 0.  1.
     999902    2    1    2    0    0 -0.11926551012E-01 -0.18292772599E-01 -0.70394939929E-02  0.10209860983E+01  0.10207282647E+01 0.  0.
     999903    2    3    3    0    0 -0.82688972803E-01  0.98707608614E-01 -0.48975959283E-02  0.13042391786E+00  0.20143328505E-01 0.  0.
         14    1    1    2    0    0  0.11926551012E-01  0.18292772599E-01  0.70394939929E-02  0.22943901675E-01  0.00000000000E+00 0.  1.
     999901    1    3    3    0    0  0.70762421791E-01 -0.11700038121E+00 -0.21418980646E-02  0.89056218046E+00  0.88000000000E+00 0.  1.
        -11    1    4    4    0    0 -0.25536517439E-01  0.32591541838E-01 -0.10913138391E-01  0.42821490315E-01  0.51100000000E-03 0.  1.
         11    1    4    4    0    0 -0.57152455364E-01  0.66116066776E-01  0.60155424625E-02  0.87602427548E-01  0.51100000000E-03 0. -1.
</event>
<event>
 8    1  0.1199892E+005  0.1043930E+01  0.7957747E-01            NaN
         13   -1    0    0    0    0  0.00000000000E+00  0.00000000000E+00  0.74505805969E-08  0.10566000000E+00  0.10566000000E+00 0.  1.
     999900   -1    0    0    0    0 -0.00000000000E+00 -0.00000000000E+00 -0.74505805969E-08  0.93827000000E+00  0.93827000000E+00 0. -1.
     999902    2    1    2    0    0 -0.18068609475E-01  0.14905031392E-01 -0.75662570096E-03  0.10204948322E+01  0.10202257081E+01 0.  0.
     999903    2    3    3    0    0 -0.48287254196E-01 -0.91505812828E-01  0.76453158148E-01  0.13021522160E+00  0.20148097848E-01 0.  0.
         14    1    1    2    0    0  0.18068609475E-01 -0.14905031392E-01  0.75662570096E-03  0.23435167839E-01  0.00000000000E+00 0. -1.
     999901    1    3    3    0    0  0.30218644721E-01  0.10641084422E+00 -0.77209783849E-01  0.89027961056E+00  0.88000000000E+00 0.  1.
        -11    1    4    4    0    0 -0.25747267425E-01 -0.32218035518E-01  0.37730557616E-01  0.55899728904E-01  0.51100000000E-03 0. -1.
         11    1    4    4    0    0 -0.22539986771E-01 -0.59287777310E-01  0.38722600532E-01  0.74315492698E-01  0.51100000000E-03 0.  1.
</event>
<event>
 8    1  0.1199892E+005  0.1043930E+01  0.7957747E-01            NaN
         13   -1    0    0    0    0  0.00000000000E+00  0.00000000000E+00  0.74505805969E-08  0.10566000000E+00  0.10566000000E+00 0. -1.
     999900   -1    0    0    0    0 -0.00000000000E+00 -0.00000000000E+00 -0.74505805969E-08  0.93827000000E+00  0.93827000000E+00 0. -1.
     999902    2    1    2    0    0  0.89051878005E-02  0.16913576174E-01  0.14392030624E-01  0.10200029865E+01  0.10197223105E+01 0.  0.
     999903    2    3    3    0    0  0.42626531899E-01 -0.10162033915E+00 -0.62966215670E-01  0.12805471649E+00  0.17016214310E-01 0.  0.
         14    1    1    2    0    0 -0.89051878005E-02 -0.16913576174E-01 -0.14392030624E-01  0.23927013484E-01  0.00000000000E+00 0.  1.
     999901    1    3    3    0    0 -0.33721344099E-01  0.11853391532E+00  0.77358246295E-01  0.89194827002E+00  0.88000000000E+00 0.  1.
        -11    1    4    4    0    0  0.24838754140E-01 -0.38378218021E-01 -0.28359239234E-01  0.53799246246E-01  0.51100000000E-03 0.  1.
         11    1    4    4    0    0  0.17787777759E-01 -0.63242121128E-01 -0.34606976436E-01  0.74255470246E-01  0.51100000000E-03 0. -1.
</event>
<event>
 8    1  0.1199892E+005  0.1043930E+01  0.7957747E-01            NaN
         13   -1    0    0    0    0  0.00000000000E+00  0.00000000000E+00  0.74505805969E-08  0.10566000000E+00  0.10566000000E+00 0.  1.
     999900   -1    0    0    0    0 -0.00000000000E+00 -0.00000000000E+00 -0.74505805969E-08  0.93827000000E+00  0.93827000000E+00 0. -1.
     999902    2    1    2    0    0 -0.74813008671E-02 -0.22366785779E-01  0.21613742023E-02  0.10202463663E+01  0.10199714375E+01 0.  0.
     999903    2    3    3    0    0  0.61091729870E-01  0.58810395730E-01  0.95205320206E-01  0.12898368263E+00  0.19541629523E-01 0.  0.
         14    1    1    2    0    0  0.74813008671E-02  0.22366785779E-01 -0.21613742023E-02  0.23683633742E-01  0.00000000000E+00 0.  1.
     999901    1    3    3    0    0 -0.68573030738E-01 -0.81177181510E-01 -0.93043946004E-01  0.89126268363E+00  0.88000000000E+00 0.  1.
        -11    1    4    4    0    0  0.43631296573E-01  0.36932977068E-01  0.50724935964E-01  0.76426533908E-01  0.51100000000E-03 0. -1.
         11    1    4    4    0    0  0.17460433298E-01  0.21877418662E-01  0.44480384243E-01  0.52557148721E-01  0.51100000000E-03 0.  1.
</event>
<event>
 8    1  0.1199892E+005  0.1043930E+01  0.7957747E-01            NaN
         13   -1    0    0    0    0  0.00000000000E+00  0.00000000000E+00  0.74505805969E-08  0.10566000000E+00  0.10566000000E+00 0.  1.
     999900   -1    0    0    0    0 -0.00000000000E+00 -0.00000000000E+00 -0.74505805969E-08  0.93827000000E+00  0.93827000000E+00 0. -1.
     999902    2    1    2    0    0  0.27915108102E-01  0.41898397733E-03  0.73900186680E-02  0.10150502288E+01  0.10146393082E+01 0.  0.
     999903    2    3    3    0    0  0.86980944798E-01 -0.55547110457E-01  0.74171918906E-01  0.12877668245E+00  0.20755581167E-01 0.  0.
         14    1    1    2    0    0 -0.27915108102E-01 -0.41898397733E-03 -0.73900186680E-02  0.28879771187E-01  0.00000000000E+00 0.  1.
     999901    1    3    3    0    0 -0.59065836696E-01  0.55966094434E-01 -0.66781900238E-01  0.88627354637E+00  0.88000000000E+00 0. -1.
        -11    1    4    4    0    0  0.58907881105E-01 -0.46445307951E-01  0.59864901532E-01  0.95975896158E-01  0.51100000000E-03 0. -1.
         11    1    4    4    0    0  0.28073063693E-01 -0.91018025060E-02  0.14307017373E-01  0.32800786287E-01  0.51100000000E-03 0.  1.
</event>
<event>
 8    1  0.1199892E+005  0.1043930E+01  0.7957747E-01            NaN
         13   -1    0    0    0    0  0.00000000000E+00  0.00000000000E+00  0.74505805969E-08  0.10566000000E+00  0.10566000000E+00 0.  1.
     999900   -1    0    0    0    0 -0.00000000000E+00 -0.00000000000E+00 -0.74505805969E-08  0.93827000000E+00  0.93827000000E+00 0. -1.
     999902    2    1    2    0    0  0.19459338046E-01  0.79816532577E-02 -0.67711247689E-02  0.10218342819E+01  0.10215953597E+01 0.  0.
     999903    2    3    3    0    0 -0.10746416476E+00 -0.75547221886E-02 -0.70333731020E-01  0.13032367660E+00  0.20779952565E-01 0.  0.
         14    1    1    2    0    0 -0.19459338046E-01 -0.79816532577E-02  0.67711247689E-02  0.22095718059E-01  0.00000000000E+00 0.  1.
     999901    1    3    3    0    0  0.12692350280E+00  0.15536375446E-01  0.63562606252E-01  0.89151060534E+00  0.88000000000E+00 0. -1.
        -11    1    4    4    0    0 -0.74823245538E-01 -0.86605653961E-02 -0.59235641963E-01  0.95826123086E-01  0.51100000000E-03 0. -1.
         11    1    4    4    0    0 -0.32640919218E-01  0.11058432076E-02 -0.11098089058E-01  0.34497553512E-01  0.51100000000E-03 0.  1.
</event>
<event>
 8    1  0.1199892E+005  0.1043930E+01  0.7957747E-01            NaN
         13   -1    0    0    0    0  0.00000000000E+00  0.00000000000E+00  0.74505805969E-08  0.10566000000E+00  0.10566000000E+00 0. -1.
     999900   -1    0    0    0    0 -0.00000000000E+00 -0.00000000000E+00 -0.74505805969E-08  0.93827000000E+00  0.93827000000E+00 0. -1.
     999902    2    1    2    0    0 -0.10888892175E-01 -0.17800877108E-01 -0.10949932977E-01  0.10203643421E+01  0.10200921774E+01 0.  0.
     999903    2    3    3    0    0 -0.40079815388E-01  0.11644367832E+00 -0.33707384159E-01  0.12941450502E+00  0.21128287685E-01 0.  0.
         14    1    1    2    0    0  0.10888892175E-01  0.17800877108E-01  0.10949932977E-01  0.23565657870E-01  0.00000000000E+00 0. -1.
     999901    1    3    3    0    0  0.29190923213E-01 -0.13424455543E+00  0.22757451181E-01  0.89094983711E+00  0.88000000000E+00 0.  1.
        -11    1    4    4    0    0 -0.30799233814E-01  0.57959192381E-01 -0.20210933733E-01  0.68677534524E-01  0.51100000000E-03 0.  1.
         11    1    4    4    0    0 -0.92805815749E-02  0.58484485940E-01 -0.13496450425E-01  0.60736970497E-01  0.51100000000E-03 0. -1.
</event>
<event>
 8    1  0.1199892E+005  0.1043930E+01  0.7957747E-01            NaN
         13   -1    0    0    0    0  0.00000000000E+00  0.00000000000E+00  0.74505805969E-08  0.10566000000E+00  0.10566000000E+00 0. -1.
     999900   -1    0    0    0    0 -0.00000000000E+00 -0.00000000000E+00 -0.74505805969E-08  0.93827000000E+00  0.93827000000E+00 0.  1.
     999902    2    1    2    0    0 -0.18842536542E-01  0.11365510517E-01  0.18888273740E-02  0.10218441746E+01  0.10216054687E+01 0.  0.
     999903    2    3    3    0    0 -0.63798613636E-01 -0.85732524535E-01  0.75432778864E-01  0.13231745213E+00  0.19936778704E-01 0.  0.
         14    1    1    2    0    0  0.18842536542E-01 -0.11365510517E-01 -0.18888273740E-02  0.22085825353E-01  0.00000000000E+00 0.  1.
     999901    1    3    3    0    0  0.44956077093E-01  0.97098035052E-01 -0.73543951490E-01  0.88952672252E+00  0.88000000000E+00 0.  1.
        -11    1    4    4    0    0 -0.10342111957E-01 -0.27883623803E-01  0.17178205572E-01  0.34348327817E-01  0.51100000000E-03 0. -1.
         11    1    4    4    0    0 -0.53456501678E-01 -0.57848900732E-01  0.58254573292E-01  0.97969124309E-01  0.51100000000E-03 0.  1.
</event>
<event>
 8    1  0.1199892E+005  0.1043930E+01  0.7957747E-01            NaN
         13   -1    0    0    0    0  0.00000000000E+00  0.00000000000E+00  0.74505805969E-08  0.10566000000E+00  0.10566000000E+00 0. -1.
     999900   -1    0    0    0    0 -0.00000000000E+00 -0.00000000000E+00 -0.74505805969E-08  0.93827000000E+00  0.93827000000E+00 0.  1.
     999902    2    1    2    0    0 -0.21194309580E-01 -0.11593209107E-01 -0.31820737712E-02  0.10195634892E+01  0.10192722804E+01 0.  0.
     999903    2    3    3    0    0 -0.15573298099E-01 -0.11378194643E-04 -0.12801801029E+00  0.13065981295E+00  0.20996381067E-01 0.  0.
         14    1    1    2    0    0  0.21194309580E-01  0.11593209107E-01  0.31820737712E-02  0.24366510818E-01  0.00000000000E+00 0. -1.
     999901    1    3    3    0    0 -0.56210114811E-02 -0.11581830912E-01  0.12483593652E+00  0.88890367623E+00  0.88000000000E+00 0. -1.
        -11    1    4    4    0    0 -0.16186480377E-01 -0.78400834876E-02 -0.79744285124E-01  0.81748891044E-01  0.51100000000E-03 0. -1.
         11    1    4    4    0    0  0.61318227757E-03  0.78287052929E-02 -0.48273725165E-01  0.48910921903E-01  0.51100000000E-03 0.  1.
</event>
<event>
 8    1  0.1199892E+005  0.1043930E+01  0.7957747E-01            NaN
         13   -1    0    0    0    0  0.00000000000E+00  0.00000000000E+00  0.74505805969E-08  0.10566000000E+00  0.10566000000E+00 0.  1.
     999900   -1    0    0    0    0 -0.00000000000E+00 -0.00000000000E+00 -0.74505805969E-08  0.93827000000E+00  0.93827000000E+00 0.  1.
     999902    2    1    2    0    0 -0.73802794646E-02 -0.18585161658E-01 -0.22737931966E-01  0.10136498034E+01  0.10131974307E+01 0.  0.
     999903    2    3    3    0    0  0.28277444805E-01  0.73419609735E-01 -0.95300913669E-01  0.12516697427E+00  0.19860874204E-01 0.  0.
         14    1    1    2    0    0  0.73802794646E-02  0.18585161658E-01  0.22737931966E-01  0.30280196646E-01  0.00000000000E+00 0.  1.
     999901    1    3    3    0    0 -0.35657724270E-01 -0.92004771393E-01  0.72562981703E-01  0.88848282908E+00  0.88000000000E+00 0. -1.
        -11    1    4    4    0    0  0.43713067426E-02  0.13540904637E-01 -0.30970651961E-01  0.34086754391E-01  0.51100000000E-03 0. -1.
         11    1    4    4    0    0  0.23906138063E-01  0.59878705099E-01 -0.64330261707E-01  0.91080219882E-01  0.51100000000E-03 0.  1.
</event>
<event>
 8    1  0.1307390E+005  0.1043930E+01  0.7957747E-01            NaN
         13   -1    0    0    0    0  0.00000000000E+00  0.00000000000E+00  0.74505805969E-08  0.10566000000E+00  0.10566000000E+00 0.  1.
     999900   -1    0    0    0    0 -0.00000000000E+00 -0.00000000000E+00 -0.74505805969E-08  0.93827000000E+00  0.93827000000E+00 0. -1.
     999902    2    1    2    0    0 -0.13859889322E-01  0.17368288114E-01  0.88999346727E-02  0.10199933586E+01  0.10197124540E+01 0.  0.
     999903    2    3    3    0    0  0.79382002464E-01 -0.96677878381E-01  0.13590240150E-01  0.12773634550E+00  0.21994655040E-01 0.  0.
         14    1    1    2    0    0  0.13859889322E-01 -0.17368288114E-01 -0.88999346727E-02  0.23936641394E-01  0.00000000000E+00 0.  1.
     999901    1    3    3    0    0 -0.93241891786E-01  0.11404616650E+00 -0.46903054774E-02  0.89225701311E+00  0.88000000000E+00 0.  1.
        -11    1    4    4    0    0  0.64782168557E-01 -0.63585269648E-01  0.11527411168E-01  0.91503869909E-01  0.51100000000E-03 0. -1.
         11    1    4    4    0    0  0.14599833908E-01 -0.33092608732E-01  0.20628289825E-02  0.36232475588E-01  0.51100000000E-03 0.  1.
</event>
<event>
 8    1  0.1199892E+005  0.1043930E+01  0.7957747E-01            NaN
         13   -1    0    0    0    0  0.00000000000E+00  0.00000000000E+00  0.74505805969E-08  0.10566000000E+00  0.10566000000E+00 0. -1.
     999900   -1    0    0    0    0 -0.00000000000E+00 -0.00000000000E+00 -0.74505805969E-08  0.93827000000E+00  0.93827000000E+00 0. -1.
     999902    2    1    2    0    0 -0.48966115781E-02  0.17165148071E-01  0.16009600773E-01  0.10199523765E+01  0.10196704977E+01 0.  0.
     999903    2    3    3    0    0 -0.56835030724E-01  0.16379155215E-01  0.11731175804E+00  0.13261909960E+00  0.18090869583E-01 0.  0.
         14    1    1    2    0    0  0.48966115781E-02 -0.17165148071E-01 -0.16009600773E-01  0.23977623531E-01  0.00000000000E+00 0.  1.
     999901    1    3    3    0    0  0.51938419146E-01  0.78599285674E-03 -0.10130215727E+00  0.88733327687E+00  0.88000000000E+00 0. -1.
        -11    1    4    4    0    0 -0.34801194039E-01  0.63079438780E-02  0.86265060678E-01  0.93235374602E-01  0.51100000000E-03 0. -1.
         11    1    4    4    0    0 -0.22033836685E-01  0.10071211337E-01  0.31046697361E-01  0.39383725000E-01  0.51100000000E-03 0.  1.
</event>
<event>
 8    1  0.1199892E+005  0.1043930E+01  0.7957747E-01            NaN
         13   -1    0    0    0    0  0.00000000000E+00  0.00000000000E+00  0.74505805969E-08  0.10566000000E+00  0.10566000000E+00 0. -1.
     999900   -1    0    0    0    0 -0.00000000000E+00 -0.00000000000E+00 -0.74505805969E-08  0.93827000000E+00  0.93827000000E+00 0.  1.
     999902    2    1    2    0    0 -0.18543336629E-01  0.25917407225E-02  0.14351518443E-01  0.10203389310E+01  0.10200661722E+01 0.  0.
     999903    2    3    3    0    0  0.70131719052E-01 -0.16301260722E-01 -0.10374467612E+00  0.12783295225E+00  0.19852373597E-01 0.  0.
         14    1    1    2    0    0  0.18543336629E-01 -0.25917407225E-02 -0.14351518443E-01  0.23591068966E-01  0.00000000000E+00 0. -1.
     999901    1    3    3    0    0 -0.88675055682E-01  0.18893001444E-01  0.11809619457E+00  0.89250597879E+00  0.88000000000E+00 0. -1.
        -11    1    4    4    0    0  0.59594808311E-01 -0.60847644677E-02 -0.85813802485E-01  0.10465579465E+00  0.51100000000E-03 0.  1.
         11    1    4    4    0    0  0.10536910742E-01 -0.10216496254E-01 -0.17930873639E-01  0.23177157594E-01  0.51100000000E-03 0. -1.
</event>
<event>
 8    1  0.1199892E+005  0.1043930E+01  0.7957747E-01            NaN
         13   -1    0    0    0    0  0.00000000000E+00  0.00000000000E+00  0.74505805969E-08  0.10566000000E+00  0.10566000000E+00 0.  1.
     999900   -1    0    0    0    0 -0.00000000000E+00 -0.00000000000E+00 -0.74505805969E-08  0.93827000000E+00  0.93827000000E+00 0. -1.
     999902    2    1    2    0    0 -0.15039120205E-01 -0.12283620605E-01  0.12240325372E-01  0.10209759582E+01  0.10207178940E+01 0.  0.
     999903    2    3    3    0    0 -0.18090622856E-01 -0.54171578713E-02 -0.12727376690E+00  0.12995371269E+00  0.18241147562E-01 0.  0.
         14    1    1    2    0    0  0.15039120205E-01  0.12283620605E-01 -0.12240325372E-01  0.22954041843E-01  0.00000000000E+00 0.  1.
     999901    1    3    3    0    0  0.30515026502E-02 -0.68664627336E-02  0.13951409228E+00  0.89102224547E+00  0.88000000000E+00 0.  1.
        -11    1    4    4    0    0 -0.15290333902E-01 -0.56876849909E-03 -0.45897588227E-01  0.48383546113E-01  0.51100000000E-03 0. -1.
         11    1    4    4    0    0 -0.28002889540E-02 -0.48483893722E-02 -0.81376178678E-01  0.81570166574E-01  0.51100000000E-03 0.  1.
</event>
<event>
 8    1  0.1199892E+005  0.1043930E+01  0.7957747E-01            NaN
         13   -1    0    0    0    0  0.00000000000E+00  0.00000000000E+00  0.74505805969E-08  0.10566000000E+00  0.10566000000E+00 0. -1.
     999900   -1    0    0    0    0 -0.00000000000E+00 -0.00000000000E+00 -0.74505805969E-08  0.93827000000E+00  0.93827000000E+00 0. -1.
     999902    2    1    2    0    0 -0.10868783157E-01 -0.18789076733E-01 -0.10987790241E-01  0.10196011820E+01  0.10193108843E+01 0.  0.
     999903    2    3    3    0    0  0.11670249790E-01  0.11932130107E+00  0.36915546470E-01  0.12725751829E+00  0.21399784398E-01 0.  0.
         14    1    1    2    0    0  0.10868783157E-01  0.18789076733E-01  0.10987790241E-01  0.24328818018E-01  0.00000000000E+00 0. -1.
     999901    1    3    3    0    0 -0.22539032946E-01 -0.13811037780E+00 -0.47903336711E-01  0.89234366369E+00  0.88000000000E+00 0. -1.
        -11    1    4    4    0    0 -0.11022555164E-02  0.75522220136E-01  0.29219120889E-01  0.80986658457E-01  0.51100000000E-03 0.  1.
         11    1    4    4    0    0  0.12772505306E-01  0.43799080929E-01  0.76964255810E-02  0.46270859834E-01  0.51100000000E-03 0. -1.
</event>
<event>
 8    1  0.1199892E+005  0.1043930E+01  0.7957747E-01            NaN
         13   -1    0    0    0    0  0.00000000000E+00  0.00000000000E+00  0.74505805969E-08  0.10566000000E+00  0.10566000000E+00 0.  1.
     999900   -1    0    0    0    0 -0.00000000000E+00 -0.00000000000E+00 -0.74505805969E-08  0.93827000000E+00  0.93827000000E+00 0. -1.
     999902    2    1    2    0    0 -0.22009571161E-01  0.38398012240E-02 -0.35279695260E-02  0.10213111613E+01  0.10210606624E+01 0.  0.
     999903    2    3    3    0    0 -0.10640467815E+00  0.70587159791E-01  0.35199670963E-01  0.13391182947E+00  0.19719497362E-01 0.  0.
         14    1    1    2    0    0  0.22009571161E-01 -0.38398012240E-02  0.35279695260E-02  0.22618838721E-01  0.00000000000E+00 0.  1.
     999901    1    3    3    0    0  0.84395106989E-01 -0.66747358567E-01 -0.38727640489E-01  0.88739933181E+00  0.88000000000E+00 0. -1.
        -11    1    4    4    0    0 -0.55525709067E-01  0.32335308994E-01  0.27117169581E-01  0.69744380291E-01  0.51100000000E-03 0. -1.
         11    1    4    4    0    0 -0.50878969083E-01  0.38251850798E-01  0.80825013816E-02  0.64167449178E-01  0.51100000000E-03 0.  1.
</event>
<event>
 8    1  0.1199892E+005  0.1043930E+01  0.7957747E-01            NaN
         13   -1    0    0    0    0  0.00000000000E+00  0.00000000000E+00  0.74505805969E-08  0.10566000000E+00  0.10566000000E+00 0. -1.
     999900   -1    0    0    0    0 -0.00000000000E+00 -0.00000000000E+00 -0.74505805969E-08  0.93827000000E+00  0.93827000000E+00 0.  1.
     999902    2    1    2    0    0 -0.21663152867E-01 -0.77922635263E-02  0.19978661986E-02  0.10208214944E+01  0.10205599053E+01 0.  0.
     999903    2    3    3    0    0  0.11154576481E+00  0.51244331667E-01  0.31827658022E-01  0.12834194178E+00  0.19753861089E-01 0.  0.
         14    1    1    2    0    0  0.21663152867E-01  0.77922635263E-02 -0.19978661986E-02  0.23108505628E-01  0.00000000000E+00 0.  1.
     999901    1    3    3    0    0 -0.13320891768E+00 -0.59036595193E-01 -0.29829791823E-01  0.89247955260E+00  0.88000000000E+00 0.  1.
        -11    1    4    4    0    0  0.53029004414E-01  0.17919136862E-01  0.22611788500E-01  0.60371556840E-01  0.51100000000E-03 0. -1.
         11    1    4    4    0    0  0.58516760399E-01  0.33325194805E-01  0.92158695219E-02  0.67970384937E-01  0.51100000000E-03 0.  1.
</event>
<event>
 8    1  0.1199892E+005  0.1043930E+01  0.7957747E-01            NaN
         13   -1    0    0    0    0  0.00000000000E+00  0.00000000000E+00  0.74505805969E-08  0.10566000000E+00  0.10566000000E+00 0.  1.
     999900   -1    0    0    0    0 -0.00000000000E+00 -0.00000000000E+00 -0.74505805969E-08  0.93827000000E+00  0.93827000000E+00 0. -1.
     999902    2    1    2    0    0  0.19273301514E-02  0.18148245950E-01 -0.16911344556E-01  0.10190489428E+01  0.10187451501E+01 0.  0.
     999903    2    3    3    0    0  0.40312719114E-01 -0.38206520541E-01  0.11231778640E+00  0.12700103709E+00  0.20715326375E-01 0.  0.
         14    1    1    2    0    0 -0.19273301514E-02 -0.18148245950E-01  0.16911344556E-01  0.24881057197E-01  0.00000000000E+00 0.  1.
     999901    1    3    3    0    0 -0.38385388962E-01  0.56354766491E-01 -0.12922913096E+00  0.89204790571E+00  0.88000000000E+00 0. -1.
        -11    1    4    4    0    0  0.11412635081E-01 -0.23287458739E-01  0.60414119666E-01  0.65747098415E-01  0.51100000000E-03 0. -1.
         11    1    4    4    0    0  0.28900084033E-01 -0.14919061802E-01  0.51903666734E-01  0.61253938679E-01  0.51100000000E-03 0.  1.
</event>
<event>
 8    1  0.1199892E+005  0.1043930E+01  0.7957747E-01            NaN
         13   -1    0    0    0    0  0.00000000000E+00  0.00000000000E+00  0.74505805969E-08  0.10566000000E+00  0.10566000000E+00 0. -1.
     999900   -1    0    0    0    0 -0.00000000000E+00 -0.00000000000E+00 -0.74505805969E-08  0.93827000000E+00  0.93827000000E+00 0. -1.
     999902    2    1    2    0    0  0.15726478123E-01  0.18829344639E-01 -0.15160819598E-02  0.10193502352E+01  0.10190538441E+01 0.  0.
     999903    2    3    3    0    0  0.93037939083E-01 -0.81835875821E-01 -0.32659748929E-01  0.12969835012E+00  0.20045801174E-01 0.  0.
         14    1    1    2    0    0 -0.15726478123E-01 -0.18829344639E-01  0.15160819598E-02  0.24579764812E-01  0.00000000000E+00 0. -1.
     999901    1    3    3    0    0 -0.77311460959E-01  0.10066522046E+00  0.31143666970E-01  0.88965188506E+00  0.88000000000E+00 0.  1.
        -11    1    4    4    0    0  0.61722040675E-02 -0.32167394977E-02  0.24379527683E-02  0.73924455188E-02  0.51100000000E-03 0.  1.
         11    1    4    4    0    0  0.86865735015E-01 -0.78619136323E-01 -0.35097701698E-01  0.12230590461E+00  0.51100000000E-03 0. -1.
</event>
<event>
 8    1  0.1199892E+005  0.1043930E+01  0.7957747E-01            NaN
         13   -1    0    0    0    0  0.00000000000E+00  0.00000000000E+00  0.74505805969E-08  0.10566000000E+00  0.10566000000E+00 0. -1.
     999900   -1    0    0    0    0 -0.00000000000E+00 -0.00000000000E+00 -0.74505805969E-08  0.93827000000E+00  0.93827000000E+00 0. -1.
     999902    2    1    2    0    0 -0.11974438001E-01 -0.10784650470E-01 -0.18022315889E-01  0.10197535710E+01  0.10194669420E+01 0.  0.
     999903    2    3    3    0    0 -0.12211675963E+00  0.27365197442E-01  0.31799606431E-01  0.13067035446E+00  0.20054165495E-01 0.  0.
         14    1    1    2    0    0  0.11974438001E-01  0.10784650470E-01  0.18022315889E-01  0.24176429041E-01  0.00000000000E+00 0. -1.
     999901    1    3    3    0    0  0.11014232163E+00 -0.38149847912E-01 -0.49821922320E-01  0.88908321649E+00  0.88000000000E+00 0. -1.
        -11    1    4    4    0    0 -0.51785864675E-01  0.20075350175E-01  0.83111290146E-02  0.56161654634E-01  0.51100000000E-03 0.  1.
         11    1    4    4    0    0 -0.70330894952E-01  0.72898472670E-02  0.23488477416E-01  0.74508699830E-01  0.51100000000E-03 0. -1.
</event>
<event>
 8    1  0.1199892E+005  0.1043930E+01  0.7957747E-01            NaN
         13   -1    0    0    0    0  0.00000000000E+00  0.00000000000E+00  0.74505805969E-08  0.10566000000E+00  0.10566000000E+00 0. -1.
     999900   -1    0    0    0    0 -0.00000000000E+00 -0.00000000000E+00 -0.74505805969E-08  0.93827000000E+00  0.93827000000E+00 0. -1.
     999902    2    1    2    0    0 -0.14052706633E-01  0.41677217676E-02 -0.15960419244E-01  0.10222601257E+01  0.10220304209E+01 0.  0.
     999903    2    3    3    0    0  0.56815747768E-01 -0.84616358070E-01 -0.82239433048E-01  0.13248607670E+00  0.20031947556E-01 0.  0.
         14    1    1    2    0    0  0.14052706633E-01 -0.41677217676E-02  0.15960419244E-01  0.21669874270E-01  0.00000000000E+00 0. -1.
     999901    1    3    3    0    0 -0.70868454401E-01  0.88784079838E-01  0.66279013804E-01  0.88977404903E+00  0.88000000000E+00 0.  1.
        -11    1    4    4    0    0  0.16140639807E-01 -0.38321519816E-01 -0.25927202412E-01  0.49005510714E-01  0.51100000000E-03 0. -1.
         11    1    4    4    0    0  0.40675107961E-01 -0.46294838254E-01 -0.56312230636E-01  0.83480565983E-01  0.51100000000E-03 0.  1.
</event>
<event>
 8    1  0.1199892E+005  0.1043930E+01  0.7957747E-01            NaN
         13   -1    0    0    0    0  0.00000000000E+00  0.00000000000E+00  0.74505805969E-08  0.10566000000E+00  0.10566000000E+00 0. -1.
     999900   -1    0    0    0    0 -0.00000000000E+00 -0.00000000000E+00 -0.74505805969E-08  0.93827000000E+00  0.93827000000E+00 0.  1.
     999902    2    1    2    0    0 -0.22968808945E-01 -0.14743555624E-03 -0.67019502386E-02  0.10200029430E+01  0.10197222659E+01 0.  0.
     999903    2    3    3    0    0 -0.52390443099E-01  0.11721594026E+00 -0.20796945681E-01  0.13161200231E+00  0.20121407083E-01 0.  0.
         14    1    1    2    0    0  0.22968808945E-01  0.14743555624E-03  0.67019502386E-02  0.23927057040E-01  0.00000000000E+00 0.  1.
     999901    1    3    3    0    0  0.29421634154E-01 -0.11736337581E+00  0.14094995443E-01  0.88839094065E+00  0.88000000000E+00 0. -1.
        -11    1    4    4    0    0 -0.32961395078E-02  0.22508536229E-01  0.80979212148E-03  0.22768742238E-01  0.51100000000E-03 0.  1.
         11    1    4    4    0    0 -0.49094303591E-01  0.94707404028E-01 -0.21606737803E-01  0.10884326007E+00  0.51100000000E-03 0. -1.
</event>
<event>
 8    1  0.1199892E+005  0.1043930E+01  0.7957747E-01            NaN
         13   -1    0    0    0    0  0.00000000000E+00  0.00000000000E+00  0.74505805969E-08  0.10566000000E+00  0.10566000000E+00 0.  1.
     999900   -1    0    0    0    0 -0.00000000000E+00 -0.00000000000E+00 -0.74505805969E-08  0.93827000000E+00  0.93827000000E+00 0.  1.
     999902    2    1    2    0    0  0.11253242092E-01  0.19910077535E-01  0.27944315399E-02  0.10208896985E+01  0.10206296689E+01 0.  0.
     999903    2    3    3    0    0 -0.12810909868E+00  0.24503613644E-02  0.39258637945E-02  0.12975111005E+00  0.20049756025E-01 0.  0.
         14    1    1    2    0    0 -0.11253242092E-01 -0.19910077535E-01 -0.27944315399E-02  0.23040301488E-01  0.00000000000E+00 0. -1.
     999901    1    3    3    0    0  0.13936234077E+00  0.17459716171E-01 -0.11314322547E-02  0.89113858847E+00  0.88000000000E+00 0. -1.
        -11    1    4    4    0    0 -0.60286852278E-01  0.69656598145E-02  0.99901818322E-02  0.61506827494E-01  0.51100000000E-03 0. -1.
         11    1    4    4    0    0 -0.67822246400E-01 -0.45152984502E-02 -0.60643180376E-02  0.68244282552E-01  0.51100000000E-03 0.  1.
</event>
<event>
 8    1  0.1199892E+005  0.1043930E+01  0.7957747E-01            NaN
         13   -1    0    0    0    0  0.00000000000E+00  0.00000000000E+00  0.74505805969E-08  0.10566000000E+00  0.10566000000E+00 0.  1.
     999900   -1    0    0    0    0 -0.00000000000E+00 -0.00000000000E+00 -0.74505805969E-08  0.93827000000E+00  0.93827000000E+00 0. -1.
     999902    2    1    2    0    0  0.10285934550E-01 -0.20730977844E-01 -0.13855362042E-02  0.10207460917E+01  0.10204827731E+01 0.  0.
     999903    2    3    3    0    0 -0.84907555120E-01  0.22263535158E-02 -0.96120036976E-01  0.13026113107E+00  0.22685924973E-01 0.  0.
         14    1    1    2    0    0 -0.10285934550E-01  0.20730977844E-01  0.13855362042E-02  0.23183908267E-01  0.00000000000E+00 0.  1.
     999901    1    3    3    0    0  0.95193489670E-01 -0.22957331360E-01  0.94734500772E-01  0.89048496067E+00  0.88000000000E+00 0.  1.
        -11    1    4    4    0    0 -0.68405971179E-01 -0.73024579561E-02 -0.73321743307E-01  0.10054373152E+00  0.51100000000E-03 0. -1.
         11    1    4    4    0    0 -0.16501583941E-01  0.95288114719E-02 -0.22798293669E-01  0.29717399547E-01  0.51100000000E-03 0.  1.
</event>
<event>
 8    1  0.1199892E+005  0.1043930E+01  0.7957747E-01            NaN
         13   -1    0    0    0    0  0.00000000000E+00  0.00000000000E+00  0.74505805969E-08  0.10566000000E+00  0.10566000000E+00 0. -1.
     999900   -1    0    0    0    0 -0.00000000000E+00 -0.00000000000E+00 -0.74505805969E-08  0.93827000000E+00  0.93827000000E+00 0. -1.
     999902    2    1    2    0    0 -0.69027310628E-02  0.22712273495E-01  0.69413784501E-04  0.10201918476E+01  0.10199156367E+01 0.  0.
     999903    2    3    3    0    0  0.57600281353E-01 -0.38179041288E-01  0.10631473832E+00  0.12937398748E+00  0.25678268021E-01 0.  0.
         14    1    1    2    0    0  0.69027310628E-02 -0.22712273495E-01 -0.69413784501E-04  0.23738152450E-01  0.00000000000E+00 0.  1.
     999901    1    3    3    0    0 -0.64503012416E-01  0.60891314784E-01 -0.10624532453E+00  0.89081786007E+00  0.88000000000E+00 0. -1.
        -11    1    4    4    0    0  0.37743277827E-01 -0.13898876829E-01  0.74671022632E-01  0.84816015823E-01  0.51100000000E-03 0.  1.
         11    1    4    4    0    0  0.19857003526E-01 -0.24280164459E-01  0.31643715685E-01  0.44557971662E-01  0.51100000000E-03 0. -1.
</event>
<event>
 8    1  0.1199892E+005  0.1043930E+01  0.7957747E-01            NaN
         13   -1    0    0    0    0  0.00000000000E+00  0.00000000000E+00  0.74505805969E-08  0.10566000000E+00  0.10566000000E+00 0. -1.
     999900   -1    0    0    0    0 -0.00000000000E+00 -0.00000000000E+00 -0.74505805969E-08  0.93827000000E+00  0.93827000000E+00 0. -1.
     999902    2    1    2    0    0  0.78178172044E-02  0.21414594842E-01  0.37289174821E-02  0.10208300441E+01  0.10205686508E+01 0.  0.
     999903    2    3    3    0    0  0.12004502257E+00  0.49749069390E-01 -0.14315189294E-01  0.13306691246E+00  0.24821385876E-01 0.  0.
         14    1    1    2    0    0 -0.78178172044E-02 -0.21414594842E-01 -0.37289174821E-02  0.23099955923E-01  0.00000000000E+00 0.  1.
     999901    1    3    3    0    0 -0.11222720537E+00 -0.28334474548E-01  0.18044106776E-01  0.88776313162E+00  0.88000000000E+00 0. -1.
        -11    1    4    4    0    0  0.34424825217E-01  0.26107872565E-02 -0.25519797040E-02  0.34621648181E-01  0.51100000000E-03 0. -1.
         11    1    4    4    0    0  0.85620197356E-01  0.47138282133E-01 -0.11763209590E-01  0.98445264277E-01  0.51100000000E-03 0.  1.
</event>
<event>
 8    1  0.1199892E+005  0.1043930E+01  0.7957747E-01            NaN
         13   -1    0    0    0    0  0.00000000000E+00  0.00000000000E+00  0.74505805969E-08  0.10566000000E+00  0.10566000000E+00 0. -1.
     999900   -1    0    0    0    0 -0.00000000000E+00 -0.00000000000E+00 -0.74505805969E-08  0.93827000000E+00  0.93827000000E+00 0.  1.
     999902    2    1    2    0    0 -0.20053785498E-01 -0.18868322338E-02 -0.13265330969E-01  0.10198118853E+01  0.10195266539E+01 0.  0.
     999903    2    3    3    0    0 -0.16623205421E-01  0.80395987213E-02 -0.12935480506E+00  0.13212552807E+00  0.19583755224E-01 0.  0.
         14    1    1    2    0    0  0.20053785498E-01  0.18868322338E-02  0.13265330969E-01  0.24118114652E-01  0.00000000000E+00 0. -1.
     999901    1    3    3    0    0 -0.34305800763E-02 -0.99264309551E-02  0.11608947409E+00  0.88768635728E+00  0.88000000000E+00 0. -1.
        -11    1    4    4    0    0 -0.26190354808E-02 -0.56202820905E-02 -0.50357045606E-01  0.50739925904E-01  0.51100000000E-03 0. -1.
         11    1    4    4    0    0 -0.14004169941E-01  0.13659880812E-01 -0.78997759453E-01  0.81385602161E-01  0.51100000000E-03 0.  1.
</event>
<event>
 8    1  0.1199892E+005  0.1043930E+01  0.7957747E-01            NaN
         13   -1    0    0    0    0  0.00000000000E+00  0.00000000000E+00  0.74505805969E-08  0.10566000000E+00  0.10566000000E+00 0.  1.
     999900   -1    0    0    0    0 -0.00000000000E+00 -0.00000000000E+00 -0.74505805969E-08  0.93827000000E+00  0.93827000000E+00 0.  1.
     999902    2    1    2    0    0  0.44479059710E-02  0.17646879389E-01 -0.14625222726E-01  0.10205827655E+01  0.10203156805E+01 0.  0.
     999903    2    3    3    0    0  0.11375033574E+00  0.58640282268E-01  0.25094996254E-01  0.13198545735E+00  0.20312078389E-01 0.  0.
         14    1    1    2    0    0 -0.44479059710E-02 -0.17646879389E-01  0.14625222726E-01  0.23347234514E-01  0.00000000000E+00 0.  1.
     999901    1    3    3    0    0 -0.10930242977E+00 -0.40993402879E-01 -0.39720218980E-01  0.88859730814E+00  0.88000000000E+00 0. -1.
        -11    1    4    4    0    0  0.44170199222E-01  0.18186931824E-01  0.31942514587E-03  0.47771687660E-01  0.51100000000E-03 0. -1.
         11    1    4    4    0    0  0.69580136520E-01  0.40453350445E-01  0.24775571108E-01  0.84213769688E-01  0.51100000000E-03 0.  1.
</event>
<event>
 8    1  0.1199892E+005  0.1043930E+01  0.7957747E-01            NaN
         13   -1    0    0    0    0  0.00000000000E+00  0.00000000000E+00  0.74505805969E-08  0.10566000000E+00  0.10566000000E+00 0.  1.
     999900   -1    0    0    0    0 -0.00000000000E+00 -0.00000000000E+00 -0.74505805969E-08  0.93827000000E+00  0.93827000000E+00 0. -1.
     999902    2    1    2    0    0  0.46985219027E-02  0.17725965178E-01  0.15663545862E-01  0.10198129393E+01  0.10195277331E+01 0.  0.
     999903    2    3    3    0    0 -0.66017419392E-01  0.28865178783E-01 -0.10474229388E+00  0.12873359786E+00  0.20245811433E-01 0.  0.
         14    1    1    2    0    0 -0.46985219027E-02 -0.17725965178E-01 -0.15663545862E-01  0.24117060736E-01  0.00000000000E+00 0. -1.
     999901    1    3    3    0    0  0.70715941294E-01 -0.11139213605E-01  0.12040583975E+00  0.89107934140E+00  0.88000000000E+00 0.  1.
        -11    1    4    4    0    0 -0.40710926186E-01  0.25425553856E-01 -0.79194872142E-01  0.92606302131E-01  0.51100000000E-03 0.  1.
         11    1    4    4    0    0 -0.25306493205E-01  0.34396249267E-02 -0.25547421741E-01  0.36127295728E-01  0.51100000000E-03 0. -1.
</event>
<event>
 8    1  0.1199892E+005  0.1043930E+01  0.7957747E-01            NaN
         13   -1    0    0    0    0  0.00000000000E+00  0.00000000000E+00  0.74505805969E-08  0.10566000000E+00  0.10566000000E+00 0.  1.
     999900   -1    0    0    0    0 -0.00000000000E+00 -0.00000000000E+00 -0.74505805969E-08  0.93827000000E+00  0.93827000000E+00 0.  1.
     999902    2    1    2    0    0 -0.78210994333E-02  0.17789097596E-01  0.13481405509E-01  0.10202789982E+01  0.10200048355E+01 0.  0.
     999903    2    3    3    0    0 -0.12715462628E+00  0.24085819809E-01 -0.14897004878E-01  0.13174904742E+00  0.19684131701E-01 0.  0.
         14    1    1    2    0    0  0.78210994333E-02 -0.17789097596E-01 -0.13481405509E-01  0.23651001757E-01  0.00000000000E+00 0.  1.
     999901    1    3    3    0    0  0.11933352685E+00 -0.62967222138E-02  0.28378410387E-01  0.88852995083E+00  0.88000000000E+00 0. -1.
        -11    1    4    4    0    0 -0.37857162591E-01 -0.11700286718E-02 -0.83411617122E-03  0.37887868736E-01  0.51100000000E-03 0. -1.
         11    1    4    4    0    0 -0.89297463687E-01  0.25255848481E-01 -0.14062888707E-01  0.93861178680E-01  0.51100000000E-03 0.  1.
</event>
<event>
 8    1  0.1199892E+005  0.1043930E+01  0.7957747E-01            NaN
         13   -1    0    0    0    0  0.00000000000E+00  0.00000000000E+00  0.74505805969E-08  0.10566000000E+00  0.10566000000E+00 0. -1.
     999900   -1    0    0    0    0 -0.00000000000E+00 -0.00000000000E+00 -0.74505805969E-08  0.93827000000E+00  0.93827000000E+00 0.  1.
     999902    2    1    2    0    0 -0.15697138252E-01 -0.49779918037E-02 -0.16090879526E-01  0.10209061655E+01  0.10206465117E+01 0.  0.
     999903    2    3    3    0    0  0.31184175562E-01 -0.45422477371E-01 -0.11906423560E+00  0.13274113237E+00  0.20205488528E-01 0.  0.
         14    1    1    2    0    0  0.15697138252E-01  0.49779918037E-02  0.16090879526E-01  0.23023834512E-01  0.00000000000E+00 0. -1.
     999901    1    3    3    0    0 -0.46881313815E-01  0.40444485567E-01  0.10297335608E+00  0.88816503312E+00  0.88000000000E+00 0. -1.
        -11    1    4    4    0    0  0.23399716095E-02 -0.17516507744E-01 -0.47595896060E-01  0.50773358698E-01  0.51100000000E-03 0.  1.
         11    1    4    4    0    0  0.28844203953E-01 -0.27905969626E-01 -0.71468339541E-01  0.81967773669E-01  0.51100000000E-03 0. -1.
</event>
<event>
 8    1  0.1199892E+005  0.1043930E+01  0.7957747E-01            NaN
         13   -1    0    0    0    0  0.00000000000E+00  0.00000000000E+00  0.74505805969E-08  0.10566000000E+00  0.10566000000E+00 0. -1.
     999900   -1    0    0    0    0 -0.00000000000E+00 -0.00000000000E+00 -0.74505805969E-08  0.93827000000E+00  0.93827000000E+00 0. -1.
     999902    2    1    2    0    0  0.48479262478E-03 -0.65023918043E-02  0.22552616329E-01  0.10204537008E+01  0.10201836201E+01 0.  0.
     999903    2    3    3    0    0  0.41060896803E-02 -0.12793640838E+00  0.26597379646E-01  0.13209808824E+00  0.18918238564E-01 0.  0.
         14    1    1    2    0    0 -0.48479262478E-03  0.65023918043E-02 -0.22552616329E-01  0.23476299247E-01  0.00000000000E+00 0.  1.
     999901    1    3    3    0    0 -0.36212970555E-02  0.12143401658E+00 -0.40447633170E-02  0.88835561251E+00  0.88000000000E+00 0.  1.
        -11    1    4    4    0    0 -0.24611217503E-02 -0.35971667745E-01 -0.27868950535E-03  0.36060460195E-01  0.51100000000E-03 0. -1.
         11    1    4    4    0    0  0.65672114306E-02 -0.91964740636E-01  0.26876069151E-01  0.96037628044E-01  0.51100000000E-03 0.  1.
</event>
<event>
 8    1  0.1199892E+005  0.1043930E+01  0.7957747E-01            NaN
         13   -1    0    0    0    0  0.00000000000E+00  0.00000000000E+00  0.74505805969E-08  0.10566000000E+00  0.10566000000E+00 0. -1.
     999900   -1    0    0    0    0 -0.00000000000E+00 -0.00000000000E+00 -0.74505805969E-08  0.93827000000E+00  0.93827000000E+00 0.  1.
     999902    2    1    2    0    0  0.67676847475E-02  0.79896776169E-02  0.23176625378E-01  0.10184978851E+01  0.10181803128E+01 0.  0.
     999903    2    3    3    0    0  0.45224006820E-01 -0.81314238964E-01 -0.83717237752E-01  0.12671294677E+00  0.19758004237E-01 0.  0.
         14    1    1    2    0    0 -0.67676847475E-02 -0.79896776169E-02 -0.23176625378E-01  0.25432114917E-01  0.00000000000E+00 0.  1.
     999901    1    3    3    0    0 -0.38456322073E-01  0.89303916581E-01  0.10689386313E+00  0.89178493831E+00  0.88000000000E+00 0.  1.
        -11    1    4    4    0    0  0.88487561683E-02 -0.20145754283E-01 -0.97662697451E-02  0.24078892148E-01  0.51100000000E-03 0. -1.
         11    1    4    4    0    0  0.36375250652E-01 -0.61168484682E-01 -0.73950968007E-01  0.10263405462E+00  0.51100000000E-03 0.  1.
</event>
<event>
 8    1  0.1199892E+005  0.1043930E+01  0.7957747E-01            NaN
         13   -1    0    0    0    0  0.00000000000E+00  0.00000000000E+00  0.74505805969E-08  0.10566000000E+00  0.10566000000E+00 0. -1.
     999900   -1    0    0    0    0 -0.00000000000E+00 -0.00000000000E+00 -0.74505805969E-08  0.93827000000E+00  0.93827000000E+00 0.  1.
     999902    2    1    2    0    0  0.12809066820E-01  0.18675116988E-01  0.53319236934E-02  0.10206649705E+01  0.10203997846E+01 0.  0.
     999903    2    3    3    0    0 -0.44851962701E-01 -0.30639092324E-01 -0.11542348351E+00  0.12918386922E+00  0.20382320414E-01 0.  0.
         14    1    1    2    0    0 -0.12809066820E-01 -0.18675116988E-01 -0.53319236934E-02  0.23265029499E-01  0.00000000000E+00 0.  1.
     999901    1    3    3    0    0  0.57661029521E-01  0.49314209312E-01  0.12075540720E+00  0.89148110128E+00  0.88000000000E+00 0. -1.
        -11    1    4    4    0    0 -0.10658795988E-01 -0.14443090806E-01 -0.22065342080E-01  0.28449134364E-01  0.51100000000E-03 0.  1.
         11    1    4    4    0    0 -0.34193166713E-01 -0.16196001518E-01 -0.93358141430E-01  0.10073473486E+00  0.51100000000E-03 0. -1.
</event>
<event>
 8    1  0.1199892E+005  0.1043930E+01  0.7957747E-01            NaN
         13   -1    0    0    0    0  0.00000000000E+00  0.00000000000E+00  0.74505805969E-08  0.10566000000E+00  0.10566000000E+00 0.  1.
     999900   -1    0    0    0    0 -0.00000000000E+00 -0.00000000000E+00 -0.74505805969E-08  0.93827000000E+00  0.93827000000E+00 0.  1.
     999902    2    1    2    0    0 -0.16288664088E-01  0.33804730872E-02  0.18221133096E-01  0.10192569810E+01  0.10189583090E+01 0.  0.
     999903    2    3    3    0    0 -0.15582172342E-03  0.12771398643E+00 -0.12795704426E-01  0.12982956104E+00  0.19521738063E-01 0.  0.
         14    1    1    2    0    0  0.16288664088E-01 -0.33804730872E-02 -0.18221133096E-01  0.24673019016E-01  0.00000000000E+00 0. -1.
     999901    1    3    3    0    0 -0.16132842365E-01 -0.12433351334E+00  0.31016837522E-01  0.88942741995E+00  0.88000000000E+00 0. -1.
        -11    1    4    4    0    0  0.80642509452E-02  0.98735431210E-01 -0.92937594482E-02  0.99500515603E-01  0.51100000000E-03 0.  1.
         11    1    4    4    0    0 -0.82200726686E-02  0.28978555220E-01 -0.35019449782E-02  0.30329045434E-01  0.51100000000E-03 0. -1.
</event>
<event>
 8    1  0.1199892E+005  0.1043930E+01  0.7957747E-01            NaN
         13   -1    0    0    0    0  0.00000000000E+00  0.00000000000E+00  0.74505805969E-08  0.10566000000E+00  0.10566000000E+00 0.  1.
     999900   -1    0    0    0    0 -0.00000000000E+00 -0.00000000000E+00 -0.74505805969E-08  0.93827000000E+00  0.93827000000E+00 0.  1.
     999902    2    1    2    0    0  0.47125032755E-03 -0.89239496450E-02  0.21978406752E-01  0.10202042899E+01  0.10199283720E+01 0.  0.
     999903    2    3    3    0    0 -0.20190650835E-01 -0.88464667617E-01  0.95719657016E-01  0.13330440159E+00  0.19342981848E-01 0.  0.
         14    1    1    2    0    0 -0.47125032755E-03  0.89239496450E-02 -0.21978406752E-01  0.23725710052E-01  0.00000000000E+00 0. -1.
     999901    1    3    3    0    0  0.20661901162E-01  0.79540717972E-01 -0.73741250264E-01  0.88689988836E+00  0.88000000000E+00 0.  1.
        -11    1    4    4    0    0 -0.76356528303E-02 -0.23142859964E-01  0.38465353768E-01  0.45538332457E-01  0.51100000000E-03 0.  1.
         11    1    4    4    0    0 -0.12554998005E-01 -0.65321807653E-01  0.57254303247E-01  0.87766069135E-01  0.51100000000E-03 0. -1.
</event>
<event>
 8    1  0.1199892E+005  0.1043930E+01  0.7957747E-01            NaN
         13   -1    0    0    0    0  0.00000000000E+00  0.00000000000E+00  0.74505805969E-08  0.10566000000E+00  0.10566000000E+00 0. -1.
     999900   -1    0    0    0    0 -0.00000000000E+00 -0.00000000000E+00 -0.74505805969E-08  0.93827000000E+00  0.93827000000E+00 0. -1.
     999902    2    1    2    0    0  0.71184098360E-02  0.73093828220E-02  0.22065538083E-01  0.10196197798E+01  0.10193299311E+01 0.  0.
     999903    2    3    3    0    0  0.62015815053E-01  0.11073188244E+00 -0.23943521471E-01  0.13067277794E+00  0.19863825665E-01 0.  0.
         14    1    1    2    0    0 -0.71184098360E-02 -0.73093828220E-02 -0.22065538083E-01  0.24310220211E-01  0.00000000000E+00 0.  1.
     999901    1    3    3    0    0 -0.54897405217E-01 -0.10342249962E+00  0.46009059554E-01  0.88894700184E+00  0.88000000000E+00 0.  1.
        -11    1    4    4    0    0  0.58751508666E-01  0.90260823346E-01 -0.21036697369E-01  0.10973404102E+00  0.51100000000E-03 0.  1.
         11    1    4    4    0    0  0.32643063874E-02  0.20471059094E-01 -0.29068241018E-02  0.20938736924E-01  0.51100000000E-03 0. -1.
</event>
<event>
 8    1  0.1199892E+005  0.1043930E+01  0.7957747E-01            NaN
         13   -1    0    0    0    0  0.00000000000E+00  0.00000000000E+00  0.74505805969E-08  0.10566000000E+00  0.10566000000E+00 0. -1.
     999900   -1    0    0    0    0 -0.00000000000E+00 -0.00000000000E+00 -0.74505805969E-08  0.93827000000E+00  0.93827000000E+00 0.  1.
     999902    2    1    2    0    0 -0.19029091428E-01 -0.11155341707E-01  0.91946735645E-02  0.10200325108E+01  0.10197525352E+01 0.  0.
     999903    2    3    3    0    0 -0.26205168510E-01  0.11847756401E+00  0.42133359399E-01  0.12989704729E+00  0.19348873103E-01 0.  0.
         14    1    1    2    0    0  0.19029091428E-01  0.11155341707E-01 -0.91946735645E-02  0.23897489223E-01  0.00000000000E+00 0.  1.
     999901    1    3    3    0    0  0.71760770813E-02 -0.12963290572E+00 -0.32938685835E-01  0.89013546348E+00  0.88000000000E+00 0.  1.
        -11    1    4    4    0    0 -0.23945800646E-02  0.51666605257E-01  0.13938429294E-01  0.53569702675E-01  0.51100000000E-03 0. -1.
         11    1    4    4    0    0 -0.23810588445E-01  0.66810958755E-01  0.28194930105E-01  0.76327344618E-01  0.51100000000E-03 0.  1.
</event>
<event>
 8    1  0.1199892E+005  0.1043930E+01  0.7957747E-01            NaN
         13   -1    0    0    0    0  0.00000000000E+00  0.00000000000E+00  0.74505805969E-08  0.10566000000E+00  0.10566000000E+00 0.  1.
     999900   -1    0    0    0    0 -0.00000000000E+00 -0.00000000000E+00 -0.74505805969E-08  0.93827000000E+00  0.93827000000E+00 0.  1.
     999902    2    1    2    0    0 -0.19611046527E-02  0.13625306198E-01 -0.17912905597E-01  0.10213386944E+01  0.10210888118E+01 0.  0.
     999903    2    3    3    0    0 -0.11178552931E+00 -0.43854964474E-01 -0.46504325897E-01  0.13219143155E+00  0.29877412464E-01 0.  0.
         14    1    1    2    0    0  0.19611046527E-02 -0.13625306198E-01  0.17912905597E-01  0.22591305571E-01  0.00000000000E+00 0.  1.
     999901    1    3    3    0    0  0.10982442466E+00  0.57480270673E-01  0.28591420300E-01  0.88914726288E+00  0.88000000000E+00 0.  1.
        -11    1    4    4    0    0 -0.69112128155E-01 -0.11636798970E-01 -0.29922556369E-01  0.76207098416E-01  0.51100000000E-03 0. -1.
         11    1    4    4    0    0 -0.42673401158E-01 -0.32218165504E-01 -0.16581769529E-01  0.55984333135E-01  0.51100000000E-03 0.  1.
</event>
<event>
 8    1  0.1199892E+005  0.1043930E+01  0.7957747E-01            NaN
         13   -1    0    0    0    0  0.00000000000E+00  0.00000000000E+00  0.74505805969E-08  0.10566000000E+00  0.10566000000E+00 0. -1.
     999900   -1    0    0    0    0 -0.00000000000E+00 -0.00000000000E+00 -0.74505805969E-08  0.93827000000E+00  0.93827000000E+00 0. -1.
     999902    2    1    2    0    0 -0.11945242858E-01  0.70836940744E-02  0.19018989284E-01  0.10203802760E+01  0.10201084835E+01 0.  0.
     999903    2    3    3    0    0 -0.20328403117E-01  0.48063521680E-02 -0.12521252762E+00  0.12859656108E+00  0.20556105030E-01 0.  0.
         14    1    1    2    0    0  0.11945242858E-01 -0.70836940744E-02 -0.19018989284E-01  0.23549724033E-01  0.00000000000E+00 0.  1.
     999901    1    3    3    0    0  0.83831602598E-02  0.22773419065E-02  0.14423151691E+00  0.89178371488E+00  0.88000000000E+00 0.  1.
        -11    1    4    4    0    0 -0.13775366491E-02 -0.49567528135E-02 -0.54344463800E-01  0.54589823891E-01  0.51100000000E-03 0. -1.
         11    1    4    4    0    0 -0.18950866468E-01  0.97631049815E-02 -0.70868063824E-01  0.74006737193E-01  0.51100000000E-03 0.  1.
</event>
<event>
 8    1  0.1199892E+005  0.1043930E+01  0.7957747E-01            NaN
         13   -1    0    0    0    0  0.00000000000E+00  0.00000000000E+00  0.74505805969E-08  0.10566000000E+00  0.10566000000E+00 0.  1.
     999900   -1    0    0    0    0 -0.00000000000E+00 -0.00000000000E+00 -0.74505805969E-08  0.93827000000E+00  0.93827000000E+00 0. -1.
     999902    2    1    2    0    0 -0.96120817192E-02 -0.21326112142E-01  0.17882638098E-02  0.10204695426E+01  0.10201998306E+01 0.  0.
     999903    2    3    3    0    0  0.10976229729E+00 -0.18764788524E-01 -0.63769871573E-01  0.12998951932E+00  0.20755708079E-01 0.  0.
         14    1    1    2    0    0  0.96120817192E-02  0.21326112142E-01 -0.17882638098E-02  0.23460457403E-01  0.00000000000E+00 0.  1.
     999901    1    3    3    0    0 -0.11937437901E+00 -0.25613236189E-02  0.65558135382E-01  0.89048002328E+00  0.88000000000E+00 0. -1.
        -11    1    4    4    0    0  0.45684248767E-01 -0.14685551477E-01 -0.18527650693E-01  0.51441724007E-01  0.51100000000E-03 0. -1.
         11    1    4    4    0    0  0.64078048522E-01 -0.40792370470E-02 -0.45242220880E-01  0.78547795313E-01  0.51100000000E-03 0.  1.
</event>
<event>
 8    1  0.1199892E+005  0.1043930E+01  0.7957747E-01            NaN
         13   -1    0    0    0    0  0.00000000000E+00  0.00000000000E+00  0.74505805969E-08  0.10566000000E+00  0.10566000000E+00 0. -1.
     999900   -1    0    0    0    0 -0.00000000000E+00 -0.00000000000E+00 -0.74505805969E-08  0.93827000000E+00  0.93827000000E+00 0. -1.
     999902    2    1    2    0    0  0.23494535878E-01  0.69790889364E-02 -0.27357266998E-03  0.10194192730E+01  0.10191245647E+01 0.  0.
     999903    2    3    3    0    0  0.65711515668E-01  0.33446958208E-01 -0.10721854080E+00  0.13154538118E+00  0.19278732115E-01 0.  0.
         14    1    1    2    0    0 -0.23494535878E-01 -0.69790889364E-02  0.27357266998E-03  0.24510727050E-01  0.00000000000E+00 0.  1.
     999901    1    3    3    0    0 -0.42216979790E-01 -0.26467869272E-01  0.10694496813E+00  0.88787389177E+00  0.88000000000E+00 0.  1.
        -11    1    4    4    0    0  0.16368963872E-01  0.88763751062E-02 -0.43320386783E-01  0.47155593998E-01  0.51100000000E-03 0.  1.
         11    1    4    4    0    0  0.49342551797E-01  0.24570583102E-01 -0.63898154019E-01  0.84389787177E-01  0.51100000000E-03 0. -1.
</event>
<event>
 8    1  0.1199892E+005  0.1043930E+01  0.7957747E-01            NaN
         13   -1    0    0    0    0  0.00000000000E+00  0.00000000000E+00  0.74505805969E-08  0.10566000000E+00  0.10566000000E+00 0.  1.
     999900   -1    0    0    0    0 -0.00000000000E+00 -0.00000000000E+00 -0.74505805969E-08  0.93827000000E+00  0.93827000000E+00 0. -1.
     999902    2    1    2    0    0  0.36565594490E-01  0.14264234459E-02  0.13741204099E-02  0.10073108030E+01  0.10066449663E+01 0.  0.
     999903    2    3    3    0    0  0.94801742698E-01 -0.72986897542E-01 -0.13418694156E-01  0.12212855131E+00  0.20514971602E-01 0.  0.
         14    1    1    2    0    0 -0.36565594490E-01 -0.14264234459E-02 -0.13741204099E-02  0.36619197030E-01  0.00000000000E+00 0. -1.
     999901    1    3    3    0    0 -0.58236148208E-01  0.74413320988E-01  0.14792814566E-01  0.88518225166E+00  0.88000000000E+00 0. -1.
        -11    1    4    4    0    0  0.28998792214E-01 -0.11300372056E-01 -0.51923413957E-02  0.31557089357E-01  0.51100000000E-03 0. -1.
         11    1    4    4    0    0  0.65802950483E-01 -0.61686525486E-01 -0.82263527599E-02  0.90571461949E-01  0.51100000000E-03 0.  1.
</event>
<event>
 8    1  0.1199892E+005  0.1043930E+01  0.7957747E-01            NaN
         13   -1    0    0    0    0  0.00000000000E+00  0.00000000000E+00  0.74505805969E-08  0.10566000000E+00  0.10566000000E+00 0. -1.
     999900   -1    0    0    0    0 -0.00000000000E+00 -0.00000000000E+00 -0.74505805969E-08  0.93827000000E+00  0.93827000000E+00 0. -1.
     999902    2    1    2    0    0 -0.12759624921E-01  0.34691803146E-02  0.23152420406E-01  0.10172677081E+01  0.10169182426E+01 0.  0.
     999903    2    3    3    0    0  0.60360188533E-01 -0.10344243910E+00  0.39234503486E-01  0.12764125001E+00  0.20229974625E-01 0.  0.
         14    1    1    2    0    0  0.12759624921E-01 -0.34691803146E-02 -0.23152420406E-01  0.26662291928E-01  0.00000000000E+00 0.  1.
     999901    1    3    3    0    0 -0.73119813454E-01  0.10691161942E+00 -0.16082083080E-01  0.88962645806E+00  0.88000000000E+00 0.  1.
        -11    1    4    4    0    0  0.23403010558E-01 -0.22475260885E-01  0.11037110583E-01  0.34277065015E-01  0.51100000000E-03 0. -1.
         11    1    4    4    0    0  0.36957177975E-01 -0.80967178219E-01  0.28197392903E-01  0.93364184997E-01  0.51100000000E-03 0.  1.
</event>
<event>
 8    1  0.1199892E+005  0.1043930E+01  0.7957747E-01            NaN
         13   -1    0    0    0    0  0.00000000000E+00  0.00000000000E+00  0.74505805969E-08  0.10566000000E+00  0.10566000000E+00 0.  1.
     999900   -1    0    0    0    0 -0.00000000000E+00 -0.00000000000E+00 -0.74505805969E-08  0.93827000000E+00  0.93827000000E+00 0. -1.
     999902    2    1    2    0    0 -0.15609587002E-01 -0.25086693333E-02  0.18799058469E-01  0.10193666690E+01  0.10190706790E+01 0.  0.
     999903    2    3    3    0    0  0.31556858424E-01  0.49395906567E-02 -0.12132336054E+00  0.12700214574E+00  0.19747210921E-01 0.  0.
         14    1    1    2    0    0  0.15609587002E-01  0.25086693333E-02 -0.18799058469E-01  0.24563330954E-01  0.00000000000E+00 0. -1.
     999901    1    3    3    0    0 -0.47166445426E-01 -0.74482599900E-02  0.14012241901E+00  0.89236452331E+00  0.88000000000E+00 0.  1.
        -11    1    4    4    0    0  0.32702389799E-01  0.35632256664E-03 -0.10274001878E+00  0.10782089706E+00  0.51100000000E-03 0.  1.
         11    1    4    4    0    0 -0.11455313748E-02  0.45832680901E-02 -0.18583341766E-01  0.19181248675E-01  0.51100000000E-03 0. -1.
</event>
<event>
 8    1  0.1199892E+005  0.1043930E+01  0.7957747E-01            NaN
         13   -1    0    0    0    0  0.00000000000E+00  0.00000000000E+00  0.74505805969E-08  0.10566000000E+00  0.10566000000E+00 0.  1.
     999900   -1    0    0    0    0 -0.00000000000E+00 -0.00000000000E+00 -0.74505805969E-08  0.93827000000E+00  0.93827000000E+00 0.  1.
     999902    2    1    2    0    0 -0.34721516248E-02  0.17850070064E-01 -0.14351927442E-01  0.10207641057E+01  0.10205012008E+01 0.  0.
     999903    2    3    3    0    0 -0.90751267382E-01 -0.28387985478E-01  0.85839259010E-01  0.12958854741E+00  0.19574038429E-01 0.  0.
         14    1    1    2    0    0  0.34721516248E-02 -0.17850070064E-01  0.14351927442E-01  0.23165894317E-01  0.00000000000E+00 0.  1.
     999901    1    3    3    0    0  0.87279115757E-01  0.46238055542E-01 -0.10019118645E+00  0.89117555828E+00  0.88000000000E+00 0.  1.
        -11    1    4    4    0    0 -0.51124985112E-01 -0.15125769163E-01  0.35006060929E-01  0.63782743891E-01  0.51100000000E-03 0.  1.
         11    1    4    4    0    0 -0.39626282270E-01 -0.13262216314E-01  0.50833198081E-01  0.65805803515E-01  0.51100000000E-03 0. -1.
</event>
<event>
 8    1  0.1199892E+005  0.1043930E+01  0.7957747E-01            NaN
         13   -1    0    0    0    0  0.00000000000E+00  0.00000000000E+00  0.74505805969E-08  0.10566000000E+00  0.10566000000E+00 0.  1.
     999900   -1    0    0    0    0 -0.00000000000E+00 -0.00000000000E+00 -0.74505805969E-08  0.93827000000E+00  0.93827000000E+00 0.  1.
     999902    2    1    2    0    0  0.57958928396E-02 -0.22156833064E-01  0.91576298319E-03  0.10210093489E+01  0.10207520435E+01 0.  0.
     999903    2    3    3    0    0  0.67428960785E-01  0.10248776691E+00 -0.35942219848E-01  0.12932923682E+00  0.19590845074E-01 0.  0.
         14    1    1    2    0    0 -0.57958928396E-02  0.22156833064E-01 -0.91576298319E-03  0.22920651105E-01  0.00000000000E+00 0.  1.
     999901    1    3    3    0    0 -0.61633067945E-01 -0.12464459997E+00  0.36857982831E-01  0.89168011207E+00  0.88000000000E+00 0. -1.
        -11    1    4    4    0    0  0.27139112557E-01  0.54793475164E-01 -0.24391435267E-01  0.65833574917E-01  0.51100000000E-03 0. -1.
         11    1    4    4    0    0  0.40289848227E-01  0.47694291746E-01 -0.11550784580E-01  0.63495661905E-01  0.51100000000E-03 0.  1.
</event>
<event>
 8    1  0.1199892E+005  0.1043930E+01  0.7957747E-01            NaN
         13   -1    0    0    0    0  0.00000000000E+00  0.00000000000E+00  0.74505805969E-08  0.10566000000E+00  0.10566000000E+00 0.  1.
     999900   -1    0    0    0    0 -0.00000000000E+00 -0.00000000000E+00 -0.74505805969E-08  0.93827000000E+00  0.93827000000E+00 0.  1.
     999902    2    1    2    0    0  0.50304416144E-02  0.21764383801E-01  0.76717075487E-02  0.10203111761E+01  0.10200377676E+01 0.  0.
     999903    2    3    3    0    0  0.10353835881E+00  0.28549758034E-01  0.74633474607E-01  0.13226065430E+00  0.19683615392E-01 0.  0.
         14    1    1    2    0    0 -0.50304416144E-02 -0.21764383801E-01 -0.76717075487E-02  0.23618823886E-01  0.00000000000E+00 0. -1.
     999901    1    3    3    0    0 -0.98507917192E-01 -0.67853742338E-02 -0.66961767058E-01  0.88805052182E+00  0.88000000000E+00 0.  1.
        -11    1    4    4    0    0  0.26799442204E-01 -0.13066703204E-02  0.17535751303E-01  0.32057466907E-01  0.51100000000E-03 0. -1.
         11    1    4    4    0    0  0.76738916603E-01  0.29856428355E-01  0.57097723304E-01  0.10020318739E+00  0.51100000000E-03 0.  1.
</event>
<event>
 8    1  0.1416445E+005  0.1043930E+01  0.7957747E-01            NaN
         13   -1    0    0    0    0  0.00000000000E+00  0.00000000000E+00  0.74505805969E-08  0.10566000000E+00  0.10566000000E+00 0. -1.
     999900   -1    0    0    0    0 -0.00000000000E+00 -0.00000000000E+00 -0.74505805969E-08  0.93827000000E+00  0.93827000000E+00 0. -1.
     999902    2    1    2    0    0  0.16092143523E-01  0.74521776904E-02 -0.16988086981E-01  0.10193721675E+01  0.10190763116E+01 0.  0.
     999903    2    3    3    0    0  0.38513403593E-01  0.13004254032E-02  0.12072699712E+00  0.12835813772E+00  0.20391918068E-01 0.  0.
         14    1    1    2    0    0 -0.16092143523E-01 -0.74521776904E-02  0.16988086981E-01  0.24557832453E-01  0.00000000000E+00 0.  1.
     999901    1    3    3    0    0 -0.22421260069E-01  0.61517522871E-02 -0.13771508410E+00  0.89101402983E+00  0.88000000000E+00 0. -1.
        -11    1    4    4    0    0  0.11245941814E-01 -0.72953506886E-02  0.56204947326E-01  0.57783653172E-01  0.51100000000E-03 0.  1.
         11    1    4    4    0    0  0.27267461779E-01  0.85957760918E-02  0.64522049796E-01  0.70574484549E-01  0.51100000000E-03 0. -1.
</event>
<event>
 8    1  0.1199892E+005  0.1043930E+01  0.7957747E-01            NaN
         13   -1    0    0    0    0  0.00000000000E+00  0.00000000000E+00  0.74505805969E-08  0.10566000000E+00  0.10566000000E+00 0.  1.
     999900   -1    0    0    0    0 -0.00000000000E+00 -0.00000000000E+00 -0.74505805969E-08  0.93827000000E+00  0.93827000000E+00 0.  1.
     999902    2    1    2    0    0  0.17908623810E-01  0.10676615897E-02  0.16209042241E-01  0.10197516676E+01  0.10194649929E+01 0.  0.
     999903    2    3    3    0    0  0.12344700319E+00 -0.91830143223E-02 -0.38977891392E-01  0.13167001395E+00  0.22231198962E-01 0.  0.
         14    1    1    2    0    0 -0.17908623810E-01 -0.10676615897E-02 -0.16209042241E-01  0.24178332416E-01  0.00000000000E+00 0. -1.
     999901    1    3    3    0    0 -0.10553837938E+00  0.10250675912E-01  0.55186933633E-01  0.88808165363E+00  0.88000000000E+00 0. -1.
        -11    1    4    4    0    0  0.97898504131E-01 -0.95508910520E-02 -0.39773185593E-01  0.10610138568E+00  0.51100000000E-03 0. -1.
         11    1    4    4    0    0  0.25548499060E-01  0.36787672977E-03  0.79529420077E-03  0.25568628265E-01  0.51100000000E-03 0.  1.
</event>
<event>
 8    1  0.1199892E+005  0.1043930E+01  0.7957747E-01            NaN
         13   -1    0    0    0    0  0.00000000000E+00  0.00000000000E+00  0.74505805969E-08  0.10566000000E+00  0.10566000000E+00 0.  1.
     999900   -1    0    0    0    0 -0.00000000000E+00 -0.00000000000E+00 -0.74505805969E-08  0.93827000000E+00  0.93827000000E+00 0.  1.
     999902    2    1    2    0    0 -0.12924469453E-01  0.12811655374E-01  0.14217918944E-01  0.10208360691E+01  0.10205748137E+01 0.  0.
     999903    2    3    3    0    0 -0.51100154223E-01  0.11846976128E+00 -0.24883194161E-01  0.13283273845E+00  0.19469282248E-01 0.  0.
         14    1    1    2    0    0  0.12924469453E-01 -0.12811655374E-01 -0.14217918944E-01  0.23093930873E-01  0.00000000000E+00 0. -1.
     999901    1    3    3    0    0  0.38175684770E-01 -0.10565810591E+00  0.39101113105E-01  0.88800333068E+00  0.88000000000E+00 0. -1.
        -11    1    4    4    0    0 -0.80559566361E-02  0.31878263470E-01  0.37720852528E-03  0.32886555406E-01  0.51100000000E-03 0.  1.
         11    1    4    4    0    0 -0.43044197587E-01  0.86591497815E-01 -0.25260402686E-01  0.99946183042E-01  0.51100000000E-03 0. -1.
</event>
<event>
 7    1  0.1199892E+005  0.1043930E+01  0.7957747E-01            NaN
         13   -1    0    0    0    0  0.00000000000E+00  0.00000000000E+00  0.74505805969E-08  0.10566000000E+00  0.10566000000E+00 0. -1.
     999900   -1    0    0    0    0 -0.00000000000E+00 -0.00000000000E+00 -0.74505805969E-08  0.93827000000E+00  0.93827000000E+00 0. -1.
     999902    2    1    2    0    0 -0.16658742774E-01  0.19482504456E-01  0.18862791022E-02  0.10182270869E+01  0.10179026284E+01 0.  0.
         14    1    1    2    0    0  0.16658742774E-01 -0.19482504456E-01 -0.18862791022E-02  0.25702913056E-01  0.00000000000E+00 0.  1.
     999901    1    3    3    0    0  0.77502376528E-01 -0.60843014330E-01  0.28115409722E-01  0.88594523929E+00  0.88000000000E+00 0.  1.
        -11    1    3    3    0    0 -0.29571132099E-02  0.61522357804E-02 -0.12066511300E-01  0.13872863424E-01  0.51100000000E-03 0.  1.
         11    1    3    3    0    0 -0.91204006092E-01  0.74173283006E-01 -0.14162619320E-01  0.11840898423E+00  0.51100000000E-03 0. -1.
</event>
<event>
 8    1  0.1199892E+005  0.1043930E+01  0.7957747E-01            NaN
         13   -1    0    0    0    0  0.00000000000E+00  0.00000000000E+00  0.74505805969E-08  0.10566000000E+00  0.10566000000E+00 0.  1.
     999900   -1    0    0    0    0 -0.00000000000E+00 -0.00000000000E+00 -0.74505805969E-08  0.93827000000E+00  0.93827000000E+00 0.  1.
     999902    2    1    2    0    0  0.23528850905E-01  0.15472778881E-03 -0.39272048351E-02  0.10200751535E+01  0.10197961880E+01 0.  0.
     999903    2    3    3    0    0 -0.29030052748E-01  0.12416040012E+00  0.12441633968E-01  0.12967761078E+00  0.20073354522E-01 0.  0.
         14    1    1    2    0    0 -0.23528850905E-01 -0.15472778881E-03  0.39272048351E-02  0.23854846539E-01  0.00000000000E+00 0.  1.
     999901    1    3    3    0    0  0.52558903653E-01 -0.12400567233E+00 -0.16368838803E-01  0.89039754268E+00  0.88000000000E+00 0. -1.
        -11    1    4    4    0    0 -0.12194724121E-01  0.29540869754E-01  0.10176593694E-01  0.33543978035E-01  0.51100000000E-03 0. -1.
         11    1    4    4    0    0 -0.16835328627E-01  0.94619530366E-01  0.22650402738E-02  0.96133632747E-01  0.51100000000E-03 0.  1.
</event>
<event>
 8    1  0.1199892E+005  0.1043930E+01  0.7957747E-01            NaN
         13   -1    0    0    0    0  0.00000000000E+00  0.00000000000E+00  0.74505805969E-08  0.10566000000E+00  0.10566000000E+00 0. -1.
     999900   -1    0    0    0    0 -0.00000000000E+00 -0.00000000000E+00 -0.74505805969E-08  0.93827000000E+00  0.93827000000E+00 0. -1.
     999902    2    1    2    0    0  0.20571509654E-01 -0.30069334653E-02  0.11720482248E-01  0.10200637401E+01  0.10197845044E+01 0.  0.
     999903    2    3    3    0    0 -0.91171848874E-01  0.73549786919E-01 -0.46790764569E-01  0.12777955014E+00  0.20404916149E-01 0.  0.
         14    1    1    2    0    0 -0.20571509654E-01  0.30069334653E-02 -0.11720482248E-01  0.23866259917E-01  0.00000000000E+00 0.  1.
     999901    1    3    3    0    0  0.11174335853E+00 -0.76556720385E-01  0.58511246817E-01  0.89228418994E+00  0.88000000000E+00 0.  1.
        -11    1    4    4    0    0 -0.15634241662E-01  0.23491563818E-01 -0.93823077395E-02  0.29741753521E-01  0.51100000000E-03 0. -1.
         11    1    4    4    0    0 -0.75537607212E-01  0.50058223101E-01 -0.37408456829E-01  0.98037796623E-01  0.51100000000E-03 0.  1.
</event>
<event>
 8    1  0.1199892E+005  0.1043930E+01  0.7957747E-01            NaN
         13   -1    0    0    0    0  0.00000000000E+00  0.00000000000E+00  0.74505805969E-08  0.10566000000E+00  0.10566000000E+00 0. -1.
     999900   -1    0    0    0    0 -0.00000000000E+00 -0.00000000000E+00 -0.74505805969E-08  0.93827000000E+00  0.93827000000E+00 0.  1.
     999902    2    1    2    0    0 -0.15703571015E-01  0.44956305158E-02  0.16303491482E-01  0.10208515106E+01  0.10205906085E+01 0.  0.
     999903    2    3    3    0    0 -0.19561758853E-01  0.81289139966E-01  0.10184207317E+00  0.13336687548E+00  0.20599245633E-01 0.  0.
         14    1    1    2    0    0  0.15703571015E-01 -0.44956305158E-02 -0.16303491482E-01  0.23078489354E-01  0.00000000000E+00 0. -1.
     999901    1    3    3    0    0  0.38581878379E-02 -0.76793509451E-01 -0.85538581688E-01  0.88748463517E+00  0.88000000000E+00 0.  1.
        -11    1    4    4    0    0 -0.22664082378E-01  0.54806725872E-01  0.73600732535E-01  0.94523895294E-01  0.51100000000E-03 0. -1.
         11    1    4    4    0    0  0.31023235250E-02  0.26482414095E-01  0.28241340635E-01  0.38842980182E-01  0.51100000000E-03 0.  1.
</event>
<event>
 8    1  0.1199892E+005  0.1043930E+01  0.7957747E-01            NaN
         13   -1    0    0    0    0  0.00000000000E+00  0.00000000000E+00  0.74505805969E-08  0.10566000000E+00  0.10566000000E+00 0. -1.
     999900   -1    0    0    0    0 -0.00000000000E+00 -0.00000000000E+00 -0.74505805969E-08  0.93827000000E+00  0.93827000000E+00 0. -1.
     999902    2    1    2    0    0 -0.15680853230E-01 -0.13519727554E-01 -0.10183593963E-01  0.10208566869E+01  0.10205959031E+01 0.  0.
     999903    2    3    3    0    0  0.68762432073E-01  0.10468473000E+00  0.18914122183E-01  0.12847244270E+00  0.21453665351E-01 0.  0.
         14    1    1    2    0    0  0.15680853230E-01  0.13519727554E-01  0.10183593963E-01  0.23073313095E-01  0.00000000000E+00 0.  1.
     999901    1    3    3    0    0 -0.84443285302E-01 -0.11820445755E+00 -0.29097716146E-01  0.89238424420E+00  0.88000000000E+00 0.  1.
        -11    1    4    4    0    0  0.27151841145E-01  0.60687199899E-01  0.11208770152E-01  0.67424449264E-01  0.51100000000E-03 0.  1.
         11    1    4    4    0    0  0.41610590927E-01  0.43997530097E-01  0.77053520309E-02  0.61047993438E-01  0.51100000000E-03 0. -1.
</event>
<event>
 8    1  0.1199892E+005  0.1043930E+01  0.7957747E-01            NaN
         13   -1    0    0    0    0  0.00000000000E+00  0.00000000000E+00  0.74505805969E-08  0.10566000000E+00  0.10566000000E+00 0.  1.
     999900   -1    0    0    0    0 -0.00000000000E+00 -0.00000000000E+00 -0.74505805969E-08  0.93827000000E+00  0.93827000000E+00 0.  1.
     999902    2    1    2    0    0 -0.15559951553E-01 -0.10165166849E-01 -0.14290141475E-01  0.10204853662E+01  0.10202160221E+01 0.  0.
     999903    2    3    3    0    0 -0.96521693945E-01  0.86775244800E-01 -0.33951281452E-02  0.13140103476E+00  0.20207041576E-01 0.  0.
         14    1    1    2    0    0  0.15559951553E-01  0.10165166849E-01  0.14290141475E-01  0.23444633773E-01  0.00000000000E+00 0. -1.
     999901    1    3    3    0    0  0.80961742392E-01 -0.96940411649E-01 -0.10895013329E-01  0.88908433147E+00  0.88000000000E+00 0. -1.
        -11    1    4    4    0    0 -0.41347171493E-01  0.31249915291E-01  0.74907436115E-02  0.52369057247E-01  0.51100000000E-03 0. -1.
         11    1    4    4    0    0 -0.55174522452E-01  0.55525329509E-01 -0.10885871757E-01  0.79031977514E-01  0.51100000000E-03 0.  1.
</event>
<event>
 8    1  0.1199892E+005  0.1043930E+01  0.7957747E-01            NaN
         13   -1    0    0    0    0  0.00000000000E+00  0.00000000000E+00  0.74505805969E-08  0.10566000000E+00  0.10566000000E+00 0. -1.
     999900   -1    0    0    0    0 -0.00000000000E+00 -0.00000000000E+00 -0.74505805969E-08  0.93827000000E+00  0.93827000000E+00 0.  1.
     999902    2    1    2    0    0  0.60164839672E-02  0.21183240863E-01 -0.57979150882E-02  0.10211584477E+01  0.10209045165E+01 0.  0.
     999903    2    3    3    0    0 -0.63668340152E-01 -0.97713498352E-01 -0.52529774987E-01  0.12920762172E+00  0.18266005406E-01 0.  0.
         14    1    1    2    0    0 -0.60164839672E-02 -0.21183240863E-01  0.57979150882E-02  0.22771552256E-01  0.00000000000E+00 0.  1.
     999901    1    3    3    0    0  0.69684824119E-01  0.11889673921E+00  0.46731859899E-01  0.89195082602E+00  0.88000000000E+00 0. -1.
        -11    1    4    4    0    0 -0.26373215775E-01 -0.34901334160E-01 -0.28888367418E-01  0.52425647632E-01  0.51100000000E-03 0. -1.
         11    1    4    4    0    0 -0.37295124377E-01 -0.62812164191E-01 -0.23641407569E-01  0.76781974092E-01  0.51100000000E-03 0.  1.
</event>
<event>
 8    1  0.1199892E+005  0.1043930E+01  0.7957747E-01            NaN
         13   -1    0    0    0    0  0.00000000000E+00  0.00000000000E+00  0.74505805969E-08  0.10566000000E+00  0.10566000000E+00 0.  1.
     999900   -1    0    0    0    0 -0.00000000000E+00 -0.00000000000E+00 -0.74505805969E-08  0.93827000000E+00  0.93827000000E+00 0. -1.
     999902    2    1    2    0    0  0.46089291060E-04  0.20903341552E-01  0.10720967181E-01  0.10204376406E+01  0.10201671860E+01 0.  0.
     999903    2    3    3    0    0  0.94781923205E-01  0.88550262599E-01  0.19379277080E-01  0.13272938308E+00  0.20414964633E-01 0.  0.
         14    1    1    2    0    0 -0.46089291060E-04 -0.20903341552E-01 -0.10720967181E-01  0.23492359387E-01  0.00000000000E+00 0.  1.
     999901    1    3    3    0    0 -0.94735833914E-01 -0.67646921047E-01 -0.86583098996E-02  0.88770825753E+00  0.88000000000E+00 0.  1.
        -11    1    4    4    0    0  0.16219068463E-01  0.26849237120E-01  0.59979614809E-02  0.31940200041E-01  0.51100000000E-03 0.  1.
         11    1    4    4    0    0  0.78562854742E-01  0.61701025479E-01  0.13381315599E-01  0.10078918304E+00  0.51100000000E-03 0. -1.
</event>
<event>
 8    1  0.1199892E+005  0.1043930E+01  0.7957747E-01            NaN
         13   -1    0    0    0    0  0.00000000000E+00  0.00000000000E+00  0.74505805969E-08  0.10566000000E+00  0.10566000000E+00 0. -1.
     999900   -1    0    0    0    0 -0.00000000000E+00 -0.00000000000E+00 -0.74505805969E-08  0.93827000000E+00  0.93827000000E+00 0.  1.
     999902    2    1    2    0    0  0.92563779826E-02 -0.19519561664E-01  0.12632559935E-01  0.10189045052E+01  0.10185971310E+01 0.  0.
     999903    2    3    3    0    0 -0.65817132743E-02 -0.87347166288E-01 -0.93332754296E-01  0.12981504010E+00  0.21635507927E-01 0.  0.
         14    1    1    2    0    0 -0.92563779826E-02  0.19519561664E-01 -0.12632559935E-01  0.25025494828E-01  0.00000000000E+00 0.  1.
     999901    1    3    3    0    0  0.15838091257E-01  0.67827604624E-01  0.10596531423E+00  0.88908946507E+00  0.88000000000E+00 0. -1.
        -11    1    4    4    0    0 -0.13537636540E-01 -0.46711393574E-01 -0.56262057456E-01  0.74370035114E-01  0.51100000000E-03 0.  1.
         11    1    4    4    0    0  0.69559232659E-02 -0.40635772714E-01 -0.37070696840E-01  0.55445004985E-01  0.51100000000E-03 0. -1.
</event>
<event>
 8    1  0.1199892E+005  0.1043930E+01  0.7957747E-01            NaN
         13   -1    0    0    0    0  0.00000000000E+00  0.00000000000E+00  0.74505805969E-08  0.10566000000E+00  0.10566000000E+00 0. -1.
     999900   -1    0    0    0    0 -0.00000000000E+00 -0.00000000000E+00 -0.74505805969E-08  0.93827000000E+00  0.93827000000E+00 0.  1.
     999902    2    1    2    0    0 -0.13490200430E-01 -0.19371580411E-01 -0.36542785431E-02  0.10200428196E+01  0.10197630884E+01 0.  0.
     999903    2    3    3    0    0  0.90962922616E-01  0.18620982716E-01 -0.87167201953E-01  0.12912851501E+00  0.21332088602E-01 0.  0.
         14    1    1    2    0    0  0.13490200430E-01  0.19371580411E-01  0.36542785431E-02  0.23887180389E-01  0.00000000000E+00 0. -1.
     999901    1    3    3    0    0 -0.10445312305E+00 -0.37992563127E-01  0.83512923410E-01  0.89091430460E+00  0.88000000000E+00 0. -1.
        -11    1    4    4    0    0  0.26553257888E-01  0.50065238525E-02 -0.39450137737E-01  0.47819611814E-01  0.51100000000E-03 0. -1.
         11    1    4    4    0    0  0.64409664728E-01  0.13614458863E-01 -0.47717064216E-01  0.81308903196E-01  0.51100000000E-03 0.  1.
</event>
<event>
 8    1  0.1199892E+005  0.1043930E+01  0.7957747E-01            NaN
         13   -1    0    0    0    0  0.00000000000E+00  0.00000000000E+00  0.74505805969E-08  0.10566000000E+00  0.10566000000E+00 0.  1.
     999900   -1    0    0    0    0 -0.00000000000E+00 -0.00000000000E+00 -0.74505805969E-08  0.93827000000E+00  0.93827000000E+00 0. -1.
     999902    2    1    2    0    0 -0.12181440306E-01  0.11785364250E-01 -0.13858338011E-01  0.10220362605E+01  0.10218017332E+01 0.  0.
     999903    2    3    3    0    0 -0.12581233853E-01 -0.32179886964E-01 -0.12755222508E+00  0.13363353472E+00  0.19862500043E-01 0.  0.
         14    1    1    2    0    0  0.12181440306E-01 -0.11785364250E-01  0.13858338011E-01  0.21893739536E-01  0.00000000000E+00 0.  1.
     999901    1    3    3    0    0  0.39979354726E-03  0.43965251214E-01  0.11369388707E+00  0.88840272574E+00  0.88000000000E+00 0.  1.
        -11    1    4    4    0    0 -0.13431225758E-01 -0.11198025805E-01 -0.75552732487E-01  0.77551725413E-01  0.51100000000E-03 0.  1.
         11    1    4    4    0    0  0.84999190486E-03 -0.20981861159E-01 -0.51999492597E-01  0.56081809308E-01  0.51100000000E-03 0. -1.
</event>
<event>
 8    1  0.1199892E+005  0.1043930E+01  0.7957747E-01            NaN
         13   -1    0    0    0    0  0.00000000000E+00  0.00000000000E+00  0.74505805969E-08  0.10566000000E+00  0.10566000000E+00 0.  1.
     999900   -1    0    0    0    0 -0.00000000000E+00 -0.00000000000E+00 -0.74505805969E-08  0.93827000000E+00  0.93827000000E+00 0. -1.
     999902    2    1    2    0    0  0.17364071503E-01 -0.78725619171E-02 -0.16811003883E-01  0.10185115409E+01  0.10181943139E+01 0.  0.
     999903    2    3    3    0    0 -0.52737551615E-01  0.95407067196E-01 -0.62790001836E-01  0.12851435688E+00  0.26260193679E-01 0.  0.
         14    1    1    2    0    0 -0.17364071503E-01  0.78725619171E-02  0.16811003883E-01  0.25418459077E-01  0.00000000000E+00 0.  1.
     999901    1    3    3    0    0  0.70101623119E-01 -0.10327962911E+00  0.45978997953E-01  0.88999718404E+00  0.88000000000E+00 0.  1.
        -11    1    4    4    0    0 -0.45440962302E-01  0.57682686390E-01 -0.45412821585E-01  0.86340945382E-01  0.51100000000E-03 0.  1.
         11    1    4    4    0    0 -0.72965893132E-02  0.37724380806E-01 -0.17377180251E-01  0.42173411497E-01  0.51100000000E-03 0. -1.
</event>
<event>
 8    1  0.1199892E+005  0.1043930E+01  0.7957747E-01            NaN
         13   -1    0    0    0    0  0.00000000000E+00  0.00000000000E+00  0.74505805969E-08  0.10566000000E+00  0.10566000000E+00 0. -1.
     999900   -1    0    0    0    0 -0.00000000000E+00 -0.00000000000E+00 -0.74505805969E-08  0.93827000000E+00  0.93827000000E+00 0.  1.
     999902    2    1    2    0    0  0.21469707555E-01 -0.77094406326E-02 -0.47188448971E-02  0.10206351226E+01  0.10203692479E+01 0.  0.
     999903    2    3    3    0    0 -0.10958026846E+00 -0.39275834732E-01 -0.52377762267E-01  0.12909605676E+00  0.19285628363E-01 0.  0.
         14    1    1    2    0    0 -0.21469707555E-01  0.77094406326E-02  0.47188448971E-02  0.23294877431E-01  0.00000000000E+00 0. -1.
     999901    1    3    3    0    0  0.13104997602E+00  0.31566394100E-01  0.47658917370E-01  0.89153906580E+00  0.88000000000E+00 0. -1.
        -11    1    4    4    0    0 -0.10635652439E+00 -0.33766083413E-01 -0.49523964077E-01  0.12208498192E+00  0.51100000000E-03 0.  1.
         11    1    4    4    0    0 -0.32237440693E-02 -0.55097513192E-02 -0.28537981903E-02  0.70110748487E-02  0.51100000000E-03 0. -1.
</event>
<event>
 8    1  0.1199892E+005  0.1043930E+01  0.7957747E-01            NaN
         13   -1    0    0    0    0  0.00000000000E+00  0.00000000000E+00  0.74505805969E-08  0.10566000000E+00  0.10566000000E+00 0. -1.
     999900   -1    0    0    0    0 -0.00000000000E+00 -0.00000000000E+00 -0.74505805969E-08  0.93827000000E+00  0.93827000000E+00 0.  1.
     999902    2    1    2    0    0  0.53810375624E-02  0.23177528159E-01 -0.25475257457E-02  0.10200000342E+01  0.10197192881E+01 0.  0.
     999903    2    3    3    0    0 -0.12757348259E+00  0.14006406289E-02  0.11788704342E-01  0.12963119782E+00  0.19705802338E-01 0.  0.
         14    1    1    2    0    0 -0.53810375624E-02 -0.23177528159E-01  0.25475257457E-02  0.23929965822E-01  0.00000000000E+00 0. -1.
     999901    1    3    3    0    0  0.13295452015E+00  0.21776887530E-01 -0.14336230087E-01  0.89036883635E+00  0.88000000000E+00 0.  1.
        -11    1    4    4    0    0 -0.12432136522E+00  0.40035702959E-02  0.13461908298E-01  0.12511320682E+00  0.51100000000E-03 0. -1.
         11    1    4    4    0    0 -0.32521173690E-02 -0.26029296670E-02 -0.16732039568E-02  0.45179910042E-02  0.51100000000E-03 0.  1.
</event>
<event>
 8    1  0.1199892E+005  0.1043930E+01  0.7957747E-01            NaN
         13   -1    0    0    0    0  0.00000000000E+00  0.00000000000E+00  0.74505805969E-08  0.10566000000E+00  0.10566000000E+00 0. -1.
     999900   -1    0    0    0    0 -0.00000000000E+00 -0.00000000000E+00 -0.74505805969E-08  0.93827000000E+00  0.93827000000E+00 0.  1.
     999902    2    1    2    0    0  0.26762981029E-01 -0.83964561841E-02 -0.21203240142E-01  0.10087684440E+01  0.10081554635E+01 0.  0.
     999903    2    3    3    0    0  0.53368227026E-01  0.10664345760E+00 -0.43165068453E-02  0.12072160813E+00  0.18277848153E-01 0.  0.
         14    1    1    2    0    0 -0.26762981029E-01  0.83964561841E-02  0.21203240142E-01  0.35161556032E-01  0.00000000000E+00 0. -1.
     999901    1    3    3    0    0 -0.26605245996E-01 -0.11503991379E+00 -0.16886733297E-01  0.88804683584E+00  0.88000000000E+00 0.  1.
        -11    1    4    4    0    0  0.99647389300E-02  0.88575539058E-02 -0.32369629252E-02  0.13729214585E-01  0.51100000000E-03 0.  1.
         11    1    4    4    0    0  0.43403488096E-01  0.97785903697E-01 -0.10795439201E-02  0.10699239355E+00  0.51100000000E-03 0. -1.
</event>
<event>
 8    1  0.1199892E+005  0.1043930E+01  0.7957747E-01            NaN
         13   -1    0    0    0    0  0.00000000000E+00  0.00000000000E+00  0.74505805969E-08  0.10566000000E+00  0.10566000000E+00 0. -1.
     999900   -1    0    0    0    0 -0.00000000000E+00 -0.00000000000E+00 -0.74505805969E-08  0.93827000000E+00  0.93827000000E+00 0. -1.
     999902    2    1    2    0    0 -0.21422575691E-02 -0.22795311929E-01  0.11942007489E-02  0.10210031243E+01  0.10207456775E+01 0.  0.
     999903    2    3    3    0    0  0.48234670976E-01  0.49709396929E-01  0.10817664374E+00  0.13013836979E+00  0.20885435444E-01 0.  0.
         14    1    1    2    0    0  0.21422575691E-02  0.22795311929E-01 -0.11942007489E-02  0.22926875689E-01  0.00000000000E+00 0. -1.
     999901    1    3    3    0    0 -0.50376928545E-01 -0.72504708858E-01 -0.10698244299E+00  0.89086475452E+00  0.88000000000E+00 0. -1.
        -11    1    4    4    0    0  0.33952853416E-01  0.20852746990E-01  0.53943234031E-01  0.67065392944E-01  0.51100000000E-03 0. -1.
         11    1    4    4    0    0  0.14281817560E-01  0.28856649940E-01  0.54233409711E-01  0.63072976848E-01  0.51100000000E-03 0.  1.
</event>
<event>
 8    1  0.1199892E+005  0.1043930E+01  0.7957747E-01            NaN
         13   -1    0    0    0    0  0.00000000000E+00  0.00000000000E+00  0.74505805969E-08  0.10566000000E+00  0.10566000000E+00 0.  1.
     999900   -1    0    0    0    0 -0.00000000000E+00 -0.00000000000E+00 -0.74505805969E-08  0.93827000000E+00  0.93827000000E+00 0.  1.
     999902    2    1    2    0    0  0.12627983498E-01 -0.15165480887E-01 -0.13178905124E-01  0.10201994012E+01  0.10199233682E+01 0.  0.
     999903    2    3    3    0    0  0.24014933841E-01 -0.10765314678E+00 -0.72255496222E-01  0.13330951258E+00  0.19612555941E-01 0.  0.
         14    1    1    2    0    0 -0.12627983498E-01  0.15165480887E-01  0.13178905124E-01  0.23730598771E-01  0.00000000000E+00 0.  1.
     999901    1    3    3    0    0 -0.11386950344E-01  0.92487665890E-01  0.59076591098E-01  0.88688988865E+00  0.88000000000E+00 0. -1.
        -11    1    4    4    0    0  0.21368382079E-02 -0.24128083815E-01 -0.74393891291E-02  0.25344351199E-01  0.51100000000E-03 0. -1.
         11    1    4    4    0    0  0.21878095633E-01 -0.83525062962E-01 -0.64816107093E-01  0.10796516138E+00  0.51100000000E-03 0.  1.
</event>
<event>
 8    1  0.1199892E+005  0.1043930E+01  0.7957747E-01            NaN
         13   -1    0    0    0    0  0.00000000000E+00  0.00000000000E+00  0.74505805969E-08  0.10566000000E+00  0.10566000000E+00 0. -1.
     999900   -1    0    0    0    0 -0.00000000000E+00 -0.00000000000E+00 -0.74505805969E-08  0.93827000000E+00  0.93827000000E+00 0. -1.
     999902    2    1    2    0    0  0.22526906445E-01 -0.20835384194E-02  0.15626290452E-02  0.10212530413E+01  0.10210012389E+01 0.  0.
     999903    2    3    3    0    0 -0.56001373350E-02  0.99330679770E-01 -0.82815839444E-01  0.13097460160E+00  0.19948371390E-01 0.  0.
         14    1    1    2    0    0 -0.22526906445E-01  0.20835384194E-02 -0.15626290452E-02  0.22676958699E-01  0.00000000000E+00 0.  1.
     999901    1    3    3    0    0  0.28127043780E-01 -0.10141421819E+00  0.84378468489E-01  0.89027843970E+00  0.88000000000E+00 0.  1.
        -11    1    4    4    0    0 -0.12826834800E-01  0.50680188231E-01 -0.42959191608E-01  0.67666553294E-01  0.51100000000E-03 0. -1.
         11    1    4    4    0    0  0.72266974647E-02  0.48650491538E-01 -0.39856647836E-01  0.63308048310E-01  0.51100000000E-03 0.  1.
</event>
<event>
 8    1  0.1199892E+005  0.1043930E+01  0.7957747E-01            NaN
         13   -1    0    0    0    0  0.00000000000E+00  0.00000000000E+00  0.74505805969E-08  0.10566000000E+00  0.10566000000E+00 0. -1.
     999900   -1    0    0    0    0 -0.00000000000E+00 -0.00000000000E+00 -0.74505805969E-08  0.93827000000E+00  0.93827000000E+00 0.  1.
     999902    2    1    2    0    0  0.12275879210E-01 -0.84413636158E-02 -0.18310696979E-01  0.10203241648E+01  0.10200510604E+01 0.  0.
     999903    2    3    3    0    0  0.24622214125E-02 -0.75896544419E-01  0.10277709626E+00  0.12942082385E+00  0.20500491269E-01 0.  0.
         14    1    1    2    0    0 -0.12275879210E-01  0.84413636158E-02  0.18310696979E-01  0.23605835167E-01  0.00000000000E+00 0. -1.
     999901    1    3    3    0    0  0.98136577977E-02  0.67455180804E-01 -0.12108779324E+00  0.89090334098E+00  0.88000000000E+00 0.  1.
        -11    1    4    4    0    0  0.85450792493E-02 -0.17295150971E-01  0.31544202739E-01  0.36978892276E-01  0.51100000000E-03 0.  1.
         11    1    4    4    0    0 -0.60828578368E-02 -0.58601393448E-01  0.71232893520E-01  0.92441931578E-01  0.51100000000E-03 0. -1.
</event>
<event>
 8    1  0.1199892E+005  0.1043930E+01  0.7957747E-01            NaN
         13   -1    0    0    0    0  0.00000000000E+00  0.00000000000E+00  0.74505805969E-08  0.10566000000E+00  0.10566000000E+00 0. -1.
     999900   -1    0    0    0    0 -0.00000000000E+00 -0.00000000000E+00 -0.74505805969E-08  0.93827000000E+00  0.93827000000E+00 0.  1.
     999902    2    1    2    0    0 -0.28444689903E-02 -0.24425621548E-01 -0.20789146985E-02  0.10192515909E+01  0.10189527867E+01 0.  0.
     999903    2    3    3    0    0  0.21020879107E-01  0.10892871045E+00 -0.58632585905E-01  0.12709059057E+00  0.20171682192E-01 0.  0.
         14    1    1    2    0    0  0.28444689903E-02  0.24425621548E-01  0.20789146985E-02  0.24678409150E-01  0.00000000000E+00 0.  1.
     999901    1    3    3    0    0 -0.23865348097E-01 -0.13335433199E+00  0.56553671207E-01  0.89216100028E+00  0.88000000000E+00 0. -1.
        -11    1    4    4    0    0  0.23302586780E-01  0.73148396433E-01 -0.37113938106E-01  0.85272527664E-01  0.51100000000E-03 0.  1.
         11    1    4    4    0    0 -0.22817076727E-02  0.35780314013E-01 -0.21518647799E-01  0.41818062902E-01  0.51100000000E-03 0. -1.
</event>
<event>
 8    1  0.1199892E+005  0.1043930E+01  0.7957747E-01            NaN
         13   -1    0    0    0    0  0.00000000000E+00  0.00000000000E+00  0.74505805969E-08  0.10566000000E+00  0.10566000000E+00 0. -1.
     999900   -1    0    0    0    0 -0.00000000000E+00 -0.00000000000E+00 -0.74505805969E-08  0.93827000000E+00  0.93827000000E+00 0. -1.
     999902    2    1    2    0    0  0.52788133673E-02 -0.10204503619E-02  0.23294473951E-01  0.10200231034E+01  0.10197429047E+01 0.  0.
     999903    2    3    3    0    0 -0.10737146902E-01  0.12090760496E+00 -0.39590790194E-01  0.12924955297E+00  0.20101766446E-01 0.  0.
         14    1    1    2    0    0 -0.52788133673E-02  0.10204503619E-02 -0.23294473951E-01  0.23906896624E-01  0.00000000000E+00 0.  1.
     999901    1    3    3    0    0  0.16015960269E-01 -0.12192805532E+00  0.62885264145E-01  0.89077355041E+00  0.88000000000E+00 0.  1.
        -11    1    4    4    0    0 -0.12205389094E-01  0.10691795843E+00 -0.28483953115E-01  0.11131944154E+00  0.51100000000E-03 0.  1.
         11    1    4    4    0    0  0.14682421916E-02  0.13989646527E-01 -0.11106837079E-01  0.17930111432E-01  0.51100000000E-03 0. -1.
</event>
<event>
 8    1  0.1199892E+005  0.1043930E+01  0.7957747E-01            NaN
         13   -1    0    0    0    0  0.00000000000E+00  0.00000000000E+00  0.74505805969E-08  0.10566000000E+00  0.10566000000E+00 0. -1.
     999900   -1    0    0    0    0 -0.00000000000E+00 -0.00000000000E+00 -0.74505805969E-08  0.93827000000E+00  0.93827000000E+00 0. -1.
     999902    2    1    2    0    0  0.21625755653E-01 -0.70908012224E-02 -0.11860922557E-01  0.10182661294E+01  0.10179426684E+01 0.  0.
     999903    2    3    3    0    0  0.26463055549E-01  0.23210699596E-01  0.12027052557E+00  0.12787278936E+00  0.25444470004E-01 0.  0.
         14    1    1    2    0    0 -0.21625755653E-01  0.70908012224E-02  0.11860922557E-01  0.25663870586E-01  0.00000000000E+00 0. -1.
     999901    1    3    3    0    0 -0.48372998964E-02 -0.30301500819E-01 -0.13213144813E+00  0.89039334005E+00  0.88000000000E+00 0. -1.
        -11    1    4    4    0    0  0.50094916675E-02 -0.19167764593E-02  0.49220903756E-01  0.49514922259E-01  0.51100000000E-03 0.  1.
         11    1    4    4    0    0  0.21453563882E-01  0.25127476055E-01  0.71049621815E-01  0.78357867105E-01  0.51100000000E-03 0. -1.
</event>
<event>
 8    1  0.1199892E+005  0.1043930E+01  0.7957747E-01            NaN
         13   -1    0    0    0    0  0.00000000000E+00  0.00000000000E+00  0.74505805969E-08  0.10566000000E+00  0.10566000000E+00 0.  1.
     999900   -1    0    0    0    0 -0.00000000000E+00 -0.00000000000E+00 -0.74505805969E-08  0.93827000000E+00  0.93827000000E+00 0.  1.
     999902    2    1    2    0    0  0.79890103694E-02  0.95930775341E-02  0.23769396536E-01  0.10170816176E+01  0.10167271912E+01 0.  0.
     999903    2    3    3    0    0  0.77570027397E-01  0.91622996222E-01  0.46212448682E-01  0.13024785866E+00  0.20421353661E-01 0.  0.
         14    1    1    2    0    0 -0.79890103694E-02 -0.95930775341E-02 -0.23769396536E-01  0.26848382353E-01  0.00000000000E+00 0. -1.
     999901    1    3    3    0    0 -0.69581017027E-01 -0.82029918688E-01 -0.22443052145E-01  0.88683375899E+00  0.88000000000E+00 0. -1.
        -11    1    4    4    0    0  0.41332884422E-01  0.42807728392E-01  0.12780340634E-01  0.60864662757E-01  0.51100000000E-03 0.  1.
         11    1    4    4    0    0  0.36237142974E-01  0.48815267829E-01  0.33432108048E-01  0.69383195903E-01  0.51100000000E-03 0. -1.
</event>
<event>
 8    1  0.1199892E+005  0.1043930E+01  0.7957747E-01            NaN
         13   -1    0    0    0    0  0.00000000000E+00  0.00000000000E+00  0.74505805969E-08  0.10566000000E+00  0.10566000000E+00 0.  1.
     999900   -1    0    0    0    0 -0.00000000000E+00 -0.00000000000E+00 -0.74505805969E-08  0.93827000000E+00  0.93827000000E+00 0.  1.
     999902    2    1    2    0    0  0.10442730745E-01 -0.94731081885E-02 -0.18770550654E-01  0.10204539702E+01  0.10201838958E+01 0.  0.
     999903    2    3    3    0    0  0.28493751173E-01  0.58921094619E-02 -0.12867262065E+00  0.13330099902E+00  0.19128570882E-01 0.  0.
         14    1    1    2    0    0 -0.10442730745E-01  0.94731081885E-02  0.18770550654E-01  0.23476029818E-01  0.00000000000E+00 0.  1.
     999901    1    3    3    0    0 -0.18051020428E-01 -0.15365217650E-01  0.10990207000E+00  0.88715297116E+00  0.88000000000E+00 0. -1.
        -11    1    4    4    0    0  0.77370449779E-02 -0.67596701739E-02 -0.31729276096E-01  0.33355105883E-01  0.51100000000E-03 0. -1.
         11    1    4    4    0    0  0.20756706195E-01  0.12651779636E-01 -0.96943344558E-01  0.99945893137E-01  0.51100000000E-03 0.  1.
</event>
<event>
 8    1  0.1199892E+005  0.1043930E+01  0.7957747E-01            NaN
         13   -1    0    0    0    0  0.00000000000E+00  0.00000000000E+00  0.74505805969E-08  0.10566000000E+00  0.10566000000E+00 0. -1.
     999900   -1    0    0    0    0 -0.00000000000E+00 -0.00000000000E+00 -0.74505805969E-08  0.93827000000E+00  0.93827000000E+00 0. -1.
     999902    2    1    2    0    0 -0.91370058338E-02  0.13041255308E-01 -0.17668560578E-01  0.10201447683E+01  0.10198674477E+01 0.  0.
     999903    2    3    3    0    0 -0.11095717072E+00 -0.30729545510E-02 -0.70047777123E-01  0.13258035029E+00  0.18706186665E-01 0.  0.
         14    1    1    2    0    0  0.91370058338E-02 -0.13041255308E-01  0.17668560578E-01  0.23785231731E-01  0.00000000000E+00 0. -1.
     999901    1    3    3    0    0  0.10182016489E+00  0.16114209859E-01  0.52379216545E-01  0.88756441798E+00  0.88000000000E+00 0.  1.
        -11    1    4    4    0    0 -0.10665052534E+00 -0.67682281188E-02 -0.66382174660E-01  0.12580539615E+00  0.51100000000E-03 0.  1.
         11    1    4    4    0    0 -0.43066453766E-02  0.36952735678E-02 -0.36656024630E-02  0.67749541369E-02  0.51100000000E-03 0. -1.
</event>
<event>
 8    1  0.1199892E+005  0.1043930E+01  0.7957747E-01            NaN
         13   -1    0    0    0    0  0.00000000000E+00  0.00000000000E+00  0.74505805969E-08  0.10566000000E+00  0.10566000000E+00 0.  1.
     999900   -1    0    0    0    0 -0.00000000000E+00 -0.00000000000E+00 -0.74505805969E-08  0.93827000000E+00  0.93827000000E+00 0.  1.
     999902    2    1    2    0    0  0.70747489676E-02 -0.18492927972E-01 -0.12387329528E-01  0.10205743499E+01  0.10203070701E+01 0.  0.
     999903    2    3    3    0    0 -0.67511681680E-01 -0.29133772352E-01 -0.10778150646E+00  0.13221833334E+00  0.21406323395E-01 0.  0.
         14    1    1    2    0    0 -0.70747489676E-02  0.18492927972E-01  0.12387329528E-01  0.23355650082E-01  0.00000000000E+00 0. -1.
     999901    1    3    3    0    0  0.74586430648E-01  0.10640844380E-01  0.95394176928E-01  0.88835601658E+00  0.88000000000E+00 0.  1.
        -11    1    4    4    0    0 -0.24195247735E-01 -0.10518719738E-01 -0.22097111740E-01  0.34417974172E-01  0.51100000000E-03 0. -1.
         11    1    4    4    0    0 -0.43316433945E-01 -0.18615052614E-01 -0.85684394716E-01  0.97800359163E-01  0.51100000000E-03 0.  1.
</event>
<event>
 8    1  0.1199892E+005  0.1043930E+01  0.7957747E-01            NaN
         13   -1    0    0    0    0  0.00000000000E+00  0.00000000000E+00  0.74505805969E-08  0.10566000000E+00  0.10566000000E+00 0. -1.
     999900   -1    0    0    0    0 -0.00000000000E+00 -0.00000000000E+00 -0.74505805969E-08  0.93827000000E+00  0.93827000000E+00 0. -1.
     999902    2    1    2    0    0 -0.49077296804E-03  0.18305362158E-01 -0.14524433067E-01  0.10205572317E+01  0.10202895554E+01 0.  0.
     999903    2    3    3    0    0 -0.23068724810E-01 -0.53295946213E-01  0.11229317090E+00  0.12830210230E+00  0.21887194366E-01 0.  0.
         14    1    1    2    0    0  0.49077296804E-03 -0.18305362158E-01  0.14524433067E-01  0.23372768295E-01  0.00000000000E+00 0. -1.
     999901    1    3    3    0    0  0.22577951842E-01  0.71601308371E-01 -0.12681760397E+00  0.89225512940E+00  0.88000000000E+00 0. -1.
        -11    1    4    4    0    0 -0.74549875160E-02 -0.10715689079E-02  0.13320949283E-01  0.15311234751E-01  0.51100000000E-03 0. -1.
         11    1    4    4    0    0 -0.15613737294E-01 -0.52224377305E-01  0.98972221617E-01  0.11299086755E+00  0.51100000000E-03 0.  1.
</event>
<event>
 7    1  0.1199892E+005  0.1043930E+01  0.7957747E-01            NaN
         13   -1    0    0    0    0  0.00000000000E+00  0.00000000000E+00  0.74505805969E-08  0.10566000000E+00  0.10566000000E+00 0. -1.
     999900   -1    0    0    0    0 -0.00000000000E+00 -0.00000000000E+00 -0.74505805969E-08  0.93827000000E+00  0.93827000000E+00 0.  1.
     999903    2    1    2    0    0 -0.10575263539E+00  0.32104556393E-01 -0.18097973214E-01  0.11406981649E+00  0.21680958624E-01 0.  0.
         14    1    1    2    0    0 -0.15534701275E-01  0.33264362732E-01 -0.12018894648E-01  0.38630280872E-01  0.00000000000E+00 0.  1.
     999901    1    1    2    0    0  0.12128733667E+00 -0.65368919125E-01  0.30116867862E-01  0.89122990264E+00  0.88000000000E+00 0. -1.
        -11    1    3    3    0    0 -0.90047708514E-02 -0.27344060632E-02  0.10106872125E-02  0.94786857869E-02  0.51100000000E-03 0.  1.
         11    1    3    3    0    0 -0.96747864539E-01  0.34838962456E-01 -0.19108660427E-01  0.10459113071E+00  0.51100000000E-03 0. -1.
</event>
<event>
 8    1  0.1199892E+005  0.1043930E+01  0.7957747E-01            NaN
         13   -1    0    0    0    0  0.00000000000E+00  0.00000000000E+00  0.74505805969E-08  0.10566000000E+00  0.10566000000E+00 0. -1.
     999900   -1    0    0    0    0 -0.00000000000E+00 -0.00000000000E+00 -0.74505805969E-08  0.93827000000E+00  0.93827000000E+00 0. -1.
     999902    2    1    2    0    0 -0.10992736953E-01 -0.20597807531E-01  0.66094615711E-02  0.10196649032E+01  0.10193761425E+01 0.  0.
     999903    2    3    3    0    0 -0.61447929188E-01 -0.82501613135E-01  0.81709669973E-01  0.13286286842E+00  0.19842063068E-01 0.  0.
         14    1    1    2    0    0  0.10992736953E-01  0.20597807531E-01 -0.66094615711E-02  0.24265096807E-01  0.00000000000E+00 0.  1.
     999901    1    3    3    0    0  0.50455192235E-01  0.61903805604E-01 -0.75100208402E-01  0.88680203477E+00  0.88000000000E+00 0. -1.
        -11    1    4    4    0    0 -0.48692890314E-01 -0.53249260814E-01  0.63484956225E-01  0.96109740049E-01  0.51100000000E-03 0.  1.
         11    1    4    4    0    0 -0.12755038874E-01 -0.29252352321E-01  0.18224713748E-01  0.36753128373E-01  0.51100000000E-03 0. -1.
</event>
<event>
 8    1  0.1199892E+005  0.1043930E+01  0.7957747E-01            NaN
         13   -1    0    0    0    0  0.00000000000E+00  0.00000000000E+00  0.74505805969E-08  0.10566000000E+00  0.10566000000E+00 0. -1.
     999900   -1    0    0    0    0 -0.00000000000E+00 -0.00000000000E+00 -0.74505805969E-08  0.93827000000E+00  0.93827000000E+00 0. -1.
     999902    2    1    2    0    0  0.10039367716E-01 -0.21026931445E-01 -0.54828241745E-02  0.10199929553E+01  0.10197120410E+01 0.  0.
     999903    2    3    3    0    0  0.12536569427E+00 -0.30235369329E-01 -0.21221507179E-01  0.13228091689E+00  0.20424341993E-01 0.  0.
         14    1    1    2    0    0 -0.10039367716E-01  0.21026931445E-01  0.54828241745E-02  0.23937044744E-01  0.00000000000E+00 0. -1.
     999901    1    3    3    0    0 -0.11532632656E+00  0.92084378846E-02  0.15738683004E-01  0.88771203837E+00  0.88000000000E+00 0. -1.
        -11    1    4    4    0    0  0.30869334438E-01 -0.11050011766E-02 -0.11314471857E-01  0.32900079494E-01  0.51100000000E-03 0.  1.
         11    1    4    4    0    0  0.94496359836E-01 -0.29130368153E-01 -0.99070353217E-02  0.99380837392E-01  0.51100000000E-03 0. -1.
</event>
<event>
 8    1  0.1199892E+005  0.1043930E+01  0.7957747E-01            NaN
         13   -1    0    0    0    0  0.00000000000E+00  0.00000000000E+00  0.74505805969E-08  0.10566000000E+00  0.10566000000E+00 0.  1.
     999900   -1    0    0    0    0 -0.00000000000E+00 -0.00000000000E+00 -0.74505805969E-08  0.93827000000E+00  0.93827000000E+00 0. -1.
     999902    2    1    2    0    0 -0.39579589420E-02 -0.24250365668E-01 -0.70469555405E-02  0.10183682071E+01  0.10180473466E+01 0.  0.
     999903    2    3    3    0    0 -0.80109987924E-01  0.93723562376E-01  0.22804827788E-01  0.12673593526E+00  0.18445075374E-01 0.  0.
         14    1    1    2    0    0  0.39579589420E-02  0.24250365668E-01  0.70469555405E-02  0.25561792903E-01  0.00000000000E+00 0. -1.
     999901    1    3    3    0    0  0.76152028982E-01 -0.11797392804E+00 -0.29851783328E-01  0.89163227184E+00  0.88000000000E+00 0.  1.
        -11    1    4    4    0    0 -0.49770632668E-01  0.67404090427E-01  0.90432237170E-02  0.84276143117E-01  0.51100000000E-03 0. -1.
         11    1    4    4    0    0 -0.30339355256E-01  0.26319471949E-01  0.13761604071E-01  0.42459792141E-01  0.51100000000E-03 0.  1.
</event>
<event>
 8    1  0.1199892E+005  0.1043930E+01  0.7957747E-01            NaN
         13   -1    0    0    0    0  0.00000000000E+00  0.00000000000E+00  0.74505805969E-08  0.10566000000E+00  0.10566000000E+00 0.  1.
     999900   -1    0    0    0    0 -0.00000000000E+00 -0.00000000000E+00 -0.74505805969E-08  0.93827000000E+00  0.93827000000E+00 0. -1.
     999902    2    1    2    0    0 -0.10367025233E-01 -0.17499626466E-01 -0.11128846472E-01  0.10207445873E+01  0.10204812341E+01 0.  0.
     999903    2    3    3    0    0  0.39183272903E-01  0.11547435401E+00  0.34142098119E-01  0.12822748944E+00  0.20173023455E-01 0.  0.
         14    1    1    2    0    0  0.10367025233E-01  0.17499626466E-01  0.11128846472E-01  0.23185412707E-01  0.00000000000E+00 0.  1.
     999901    1    3    3    0    0 -0.49550298136E-01 -0.13297398048E+00 -0.45270944591E-01  0.89251709785E+00  0.88000000000E+00 0. -1.
        -11    1    4    4    0    0  0.17638987484E-01  0.80525668805E-01  0.20312668566E-01  0.84902195739E-01  0.51100000000E-03 0. -1.
         11    1    4    4    0    0  0.21544285419E-01  0.34948685206E-01  0.13829429553E-01  0.43325293705E-01  0.51100000000E-03 0.  1.
</event>
<event>
 8    1  0.1199892E+005  0.1043930E+01  0.7957747E-01            NaN
         13   -1    0    0    0    0  0.00000000000E+00  0.00000000000E+00  0.74505805969E-08  0.10566000000E+00  0.10566000000E+00 0.  1.
     999900   -1    0    0    0    0 -0.00000000000E+00 -0.00000000000E+00 -0.74505805969E-08  0.93827000000E+00  0.93827000000E+00 0. -1.
     999902    2    1    2    0    0 -0.59046416686E-02  0.21913662358E-01 -0.43228454732E-02  0.10208267452E+01  0.10205652763E+01 0.  0.
     999903    2    3    3    0    0 -0.39793127695E-01 -0.27163399547E-01 -0.12011284281E+00  0.13124014962E+00  0.21806847016E-01 0.  0.
         14    1    1    2    0    0  0.59046416686E-02 -0.21913662358E-01  0.43228454732E-02  0.23103254839E-01  0.00000000000E+00 0.  1.
     999901    1    3    3    0    0  0.33888486026E-01  0.49077061905E-01  0.11578999734E+00  0.88958659555E+00  0.88000000000E+00 0.  1.
        -11    1    4    4    0    0 -0.12552709214E-01  0.11561870131E-02 -0.41125213245E-01  0.43016875322E-01  0.51100000000E-03 0.  1.
         11    1    4    4    0    0 -0.27240418481E-01 -0.28319586560E-01 -0.78987629564E-01  0.88223274294E-01  0.51100000000E-03 0. -1.
</event>
<event>
 8    1  0.1199892E+005  0.1043930E+01  0.7957747E-01            NaN
         13   -1    0    0    0    0  0.00000000000E+00  0.00000000000E+00  0.74505805969E-08  0.10566000000E+00  0.10566000000E+00 0. -1.
     999900   -1    0    0    0    0 -0.00000000000E+00 -0.00000000000E+00 -0.74505805969E-08  0.93827000000E+00  0.93827000000E+00 0. -1.
     999902    2    1    2    0    0 -0.14823722630E-01  0.97241856947E-02  0.15495982229E-01  0.10203837051E+01  0.10201119927E+01 0.  0.
     999903    2    3    3    0    0  0.43214932155E-01  0.78462092011E-01  0.95174555379E-01  0.13221589421E+00  0.19975396023E-01 0.  0.
         14    1    1    2    0    0  0.14823722630E-01 -0.97241856947E-02 -0.15495982229E-01  0.23546294938E-01  0.00000000000E+00 0.  1.
     999901    1    3    3    0    0 -0.58038654786E-01 -0.68737906317E-01 -0.79678573150E-01  0.88816781085E+00  0.88000000000E+00 0.  1.
        -11    1    4    4    0    0  0.40646691942E-01  0.56538176422E-01  0.74301655278E-01  0.10183180278E+00  0.51100000000E-03 0. -1.
         11    1    4    4    0    0  0.25682402139E-02  0.21923915589E-01  0.20872900101E-01  0.30384091433E-01  0.51100000000E-03 0.  1.
</event>
<event>
 8    1  0.1199892E+005  0.1043930E+01  0.7957747E-01            NaN
         13   -1    0    0    0    0  0.00000000000E+00  0.00000000000E+00  0.74505805969E-08  0.10566000000E+00  0.10566000000E+00 0. -1.
     999900   -1    0    0    0    0 -0.00000000000E+00 -0.00000000000E+00 -0.74505805969E-08  0.93827000000E+00  0.93827000000E+00 0.  1.
     999902    2    1    2    0    0  0.13191139860E-01 -0.13984087000E-01 -0.14084470922E-01  0.10200986513E+01  0.10198202416E+01 0.  0.
     999903    2    3    3    0    0 -0.73307311235E-01 -0.80999162864E-01  0.66713846608E-01  0.12964855693E+00  0.20571454000E-01 0.  0.
         14    1    1    2    0    0 -0.13191139860E-01  0.13984087000E-01  0.14084470922E-01  0.23831348707E-01  0.00000000000E+00 0. -1.
     999901    1    3    3    0    0  0.86498451095E-01  0.67015075865E-01 -0.80798317530E-01  0.89045009436E+00  0.88000000000E+00 0. -1.
        -11    1    4    4    0    0 -0.29623345940E-02 -0.50207040289E-02  0.10009027761E-01  0.11594164606E-01  0.51100000000E-03 0. -1.
         11    1    4    4    0    0 -0.70344976641E-01 -0.75978458836E-01  0.56704818847E-01  0.11805439232E+00  0.51100000000E-03 0.  1.
</event>
<event>
 8    1  0.1199892E+005  0.1043930E+01  0.7957747E-01            NaN
         13   -1    0    0    0    0  0.00000000000E+00  0.00000000000E+00  0.74505805969E-08  0.10566000000E+00  0.10566000000E+00 0.  1.
     999900   -1    0    0    0    0 -0.00000000000E+00 -0.00000000000E+00 -0.74505805969E-08  0.93827000000E+00  0.93827000000E+00 0.  1.
     999902    2    1    2    0    0  0.14493829243E-01  0.16527482204E-01 -0.77014447305E-02  0.10206374904E+01  0.10203716704E+01 0.  0.
     999903    2    3    3    0    0 -0.11642431517E+00 -0.35079073082E-01 -0.40175607589E-01  0.12886545204E+00  0.14389675271E-01 0.  0.
         14    1    1    2    0    0 -0.14493829243E-01 -0.16527482204E-01  0.77014447305E-02  0.23292509634E-01  0.00000000000E+00 0. -1.
     999901    1    3    3    0    0  0.13091814441E+00  0.51606555286E-01  0.32474162858E-01  0.89177203832E+00  0.88000000000E+00 0.  1.
        -11    1    4    4    0    0 -0.85785809915E-01 -0.25489460097E-01 -0.22780270737E-01  0.92347818678E-01  0.51100000000E-03 0. -1.
         11    1    4    4    0    0 -0.30638505251E-01 -0.95896129853E-02 -0.17395336852E-01  0.36517633363E-01  0.51100000000E-03 0.  1.
</event>
<event>
 8    1  0.1199892E+005  0.1043930E+01  0.7957747E-01            NaN
         13   -1    0    0    0    0  0.00000000000E+00  0.00000000000E+00  0.74505805969E-08  0.10566000000E+00  0.10566000000E+00 0.  1.
     999900   -1    0    0    0    0 -0.00000000000E+00 -0.00000000000E+00 -0.74505805969E-08  0.93827000000E+00  0.93827000000E+00 0.  1.
     999902    2    1    2    0    0  0.16768809017E-01 -0.15626856319E-01  0.53499919530E-02  0.10203924978E+01  0.10201209907E+01 0.  0.
     999903    2    3    3    0    0 -0.30066122949E-01  0.12136407928E+00 -0.18688614985E-01  0.12823898979E+00  0.21511919561E-01 0.  0.
         14    1    1    2    0    0 -0.16768809017E-01  0.15626856319E-01 -0.53499919530E-02  0.23537502165E-01  0.00000000000E+00 0.  1.
     999901    1    3    3    0    0  0.46834931966E-01 -0.13699093560E+00  0.24038606938E-01  0.89215350804E+00  0.88000000000E+00 0. -1.
        -11    1    4    4    0    0 -0.73943526778E-02  0.57144505752E-01 -0.29405346131E-04  0.57623198235E-01  0.51100000000E-03 0.  1.
         11    1    4    4    0    0 -0.22671770271E-01  0.64219573532E-01 -0.18659209639E-01  0.70615791557E-01  0.51100000000E-03 0. -1.
</event>
<event>
 8    1  0.1199892E+005  0.1043930E+01  0.7957747E-01            NaN
         13   -1    0    0    0    0  0.00000000000E+00  0.00000000000E+00  0.74505805969E-08  0.10566000000E+00  0.10566000000E+00 0. -1.
     999900   -1    0    0    0    0 -0.00000000000E+00 -0.00000000000E+00 -0.74505805969E-08  0.93827000000E+00  0.93827000000E+00 0.  1.
     999902    2    1    2    0    0  0.14512972350E-01  0.19206569221E-01 -0.16520838962E-02  0.10198001834E+01  0.10195146718E+01 0.  0.
     999903    2    3    3    0    0  0.10266099376E-01  0.11184917442E+00  0.67968544233E-01  0.13219231949E+00  0.15474356562E-01 0.  0.
         14    1    1    2    0    0 -0.14512972350E-01 -0.19206569221E-01  0.16520838962E-02  0.24129816594E-01  0.00000000000E+00 0.  1.
     999901    1    3    3    0    0  0.42468729747E-02 -0.92642605202E-01 -0.69620628129E-01  0.88760786392E+00  0.88000000000E+00 0.  1.
        -11    1    4    4    0    0  0.54294260105E-02  0.79086253359E-01  0.39759916273E-01  0.88686110526E-01  0.51100000000E-03 0. -1.
         11    1    4    4    0    0  0.48366733653E-02  0.32762921064E-01  0.28208627960E-01  0.43506208962E-01  0.51100000000E-03 0.  1.
</event>
<event>
 8    1  0.1199892E+005  0.1043930E+01  0.7957747E-01            NaN
         13   -1    0    0    0    0  0.00000000000E+00  0.00000000000E+00  0.74505805969E-08  0.10566000000E+00  0.10566000000E+00 0.  1.
     999900   -1    0    0    0    0 -0.00000000000E+00 -0.00000000000E+00 -0.74505805969E-08  0.93827000000E+00  0.93827000000E+00 0.  1.
     999902    2    1    2    0    0  0.18374707177E-01 -0.10053099251E-01 -0.10340783490E-01  0.10205713512E+01  0.10203040020E+01 0.  0.
     999903    2    3    3    0    0  0.18447680962E-01  0.32413573411E-01 -0.12525212795E+00  0.13208497504E+00  0.19167378597E-01 0.  0.
         14    1    1    2    0    0 -0.18374707177E-01  0.10053099251E-01  0.10340783490E-01  0.23358648753E-01  0.00000000000E+00 0.  1.
     999901    1    3    3    0    0 -0.72973785593E-04 -0.42466672663E-01  0.11491134446E+00  0.88848637620E+00  0.88000000000E+00 0.  1.
        -11    1    4    4    0    0  0.12878381504E-01  0.17323387059E-01 -0.41293963497E-01  0.46598336790E-01  0.51100000000E-03 0.  1.
         11    1    4    4    0    0  0.55692994584E-02  0.15090186352E-01 -0.83958164453E-01  0.85486638254E-01  0.51100000000E-03 0. -1.
</event>
<event>
 8    1  0.1199892E+005  0.1043930E+01  0.7957747E-01            NaN
         13   -1    0    0    0    0  0.00000000000E+00  0.00000000000E+00  0.74505805969E-08  0.10566000000E+00  0.10566000000E+00 0. -1.
     999900   -1    0    0    0    0 -0.00000000000E+00 -0.00000000000E+00 -0.74505805969E-08  0.93827000000E+00  0.93827000000E+00 0.  1.
     999902    2    1    2    0    0 -0.22756463022E-01 -0.66588207462E-03 -0.94682526522E-02  0.10192734022E+01  0.10189751325E+01 0.  0.
     999903    2    3    3    0    0 -0.99605301898E-01  0.11243317972E-01 -0.84509381686E-01  0.13266258331E+00  0.20245914429E-01 0.  0.
         14    1    1    2    0    0  0.22756463022E-01  0.66588207462E-03  0.94682526522E-02  0.24656597829E-01  0.00000000000E+00 0. -1.
     999901    1    3    3    0    0  0.76848838875E-01 -0.11909200046E-01  0.75041129034E-01  0.88661081887E+00  0.88000000000E+00 0. -1.
        -11    1    4    4    0    0 -0.16567215562E-01 -0.43689440133E-02 -0.20110166608E-01  0.26424235566E-01  0.51100000000E-03 0. -1.
         11    1    4    4    0    0 -0.83038086336E-01  0.15612261985E-01 -0.64399215079E-01  0.10623834774E+00  0.51100000000E-03 0.  1.
</event>
<event>
 8    1  0.1199892E+005  0.1043930E+01  0.7957747E-01            NaN
         13   -1    0    0    0    0  0.00000000000E+00  0.00000000000E+00  0.74505805969E-08  0.10566000000E+00  0.10566000000E+00 0. -1.
     999900   -1    0    0    0    0 -0.00000000000E+00 -0.00000000000E+00 -0.74505805969E-08  0.93827000000E+00  0.93827000000E+00 0.  1.
     999902    2    1    2    0    0  0.21810266557E-01  0.97721365928E-02  0.26279222595E-02  0.10198865319E+01  0.10196030844E+01 0.  0.
     999903    2    3    3    0    0 -0.28119629944E-01  0.12243259672E+00  0.30331426632E-01  0.13086861424E+00  0.20643265796E-01 0.  0.
         14    1    1    2    0    0 -0.21810266557E-01 -0.97721365928E-02 -0.26279222595E-02  0.24043468058E-01  0.00000000000E+00 0. -1.
     999901    1    3    3    0    0  0.49929896501E-01 -0.11266046013E+00 -0.27703504373E-01  0.88901791770E+00  0.88000000000E+00 0.  1.
        -11    1    4    4    0    0 -0.94351952116E-02  0.69895235725E-01  0.87371367990E-02  0.71070145393E-01  0.51100000000E-03 0.  1.
         11    1    4    4    0    0 -0.18684434733E-01  0.52537360998E-01  0.21594289833E-01  0.59798468846E-01  0.51100000000E-03 0. -1.
</event>
<event>
 8    1  0.1199892E+005  0.1043930E+01  0.7957747E-01            NaN
         13   -1    0    0    0    0  0.00000000000E+00  0.00000000000E+00  0.74505805969E-08  0.10566000000E+00  0.10566000000E+00 0.  1.
     999900   -1    0    0    0    0 -0.00000000000E+00 -0.00000000000E+00 -0.74505805969E-08  0.93827000000E+00  0.93827000000E+00 0. -1.
     999902    2    1    2    0    0 -0.14224533637E-01  0.13102444243E-01 -0.13739248629E-01  0.10202070500E+01  0.10199311970E+01 0.  0.
     999903    2    3    3    0    0 -0.11470743242E+00 -0.33742308440E-01 -0.53172717278E-01  0.13237472225E+00  0.19984764105E-01 0.  0.
         14    1    1    2    0    0  0.14224533637E-01 -0.13102444243E-01  0.13739248629E-01  0.23722949969E-01  0.00000000000E+00 0.  1.
     999901    1    3    3    0    0  0.10048289879E+00  0.46844752682E-01  0.39433468649E-01  0.88783232778E+00  0.88000000000E+00 0.  1.
        -11    1    4    4    0    0 -0.83465973566E-01 -0.30199638639E-01 -0.46590786898E-01  0.10024744117E+00  0.51100000000E-03 0. -1.
         11    1    4    4    0    0 -0.31241458857E-01 -0.35426698008E-02 -0.65819303801E-02  0.32127281076E-01  0.51100000000E-03 0.  1.
</event>
<event>
 8    1  0.1199892E+005  0.1043930E+01  0.7957747E-01            NaN
         13   -1    0    0    0    0  0.00000000000E+00  0.00000000000E+00  0.74505805969E-08  0.10566000000E+00  0.10566000000E+00 0. -1.
     999900   -1    0    0    0    0 -0.00000000000E+00 -0.00000000000E+00 -0.74505805969E-08  0.93827000000E+00  0.93827000000E+00 0. -1.
     999902    2    1    2    0    0 -0.20060842558E-01 -0.11131435280E-01  0.70894066457E-02  0.10199173795E+01  0.10196346675E+01 0.  0.
     999903    2    3    3    0    0 -0.11728975911E+00  0.42716985452E-01 -0.37411242149E-01  0.13181072919E+00  0.19820162753E-01 0.  0.
         14    1    1    2    0    0  0.20060842558E-01  0.11131435280E-01 -0.70894066457E-02  0.24012620476E-01  0.00000000000E+00 0.  1.
     999901    1    3    3    0    0  0.97228916552E-01 -0.53848420732E-01  0.44500648795E-01  0.88810665034E+00  0.88000000000E+00 0.  1.
        -11    1    4    4    0    0 -0.74114443213E-01  0.30818814698E-01 -0.14734885623E-01  0.81609607324E-01  0.51100000000E-03 0. -1.
         11    1    4    4    0    0 -0.43175315897E-01  0.11898170754E-01 -0.22676356526E-01  0.50201121864E-01  0.51100000000E-03 0.  1.
</event>
<event>
 8    1  0.1199892E+005  0.1043930E+01  0.7957747E-01            NaN
         13   -1    0    0    0    0  0.00000000000E+00  0.00000000000E+00  0.74505805969E-08  0.10566000000E+00  0.10566000000E+00 0. -1.
     999900   -1    0    0    0    0 -0.00000000000E+00 -0.00000000000E+00 -0.74505805969E-08  0.93827000000E+00  0.93827000000E+00 0. -1.
     999902    2    1    2    0    0 -0.75065252464E-02  0.77057627018E-02  0.25090385214E-01  0.10166306570E+01  0.10162640595E+01 0.  0.
     999903    2    3    3    0    0  0.73687694649E-01 -0.20537082127E-01  0.10188182895E+00  0.12911328504E+00  0.20944813679E-01 0.  0.
         14    1    1    2    0    0  0.75065252464E-02 -0.77057627018E-02 -0.25090385214E-01  0.27299343037E-01  0.00000000000E+00 0.  1.
     999901    1    3    3    0    0 -0.81194219896E-01  0.28242844828E-01 -0.76791443733E-01  0.88751737192E+00  0.88000000000E+00 0. -1.
        -11    1    4    4    0    0  0.73977457825E-02  0.22120327462E-02  0.19335341783E-01  0.20826336558E-01  0.51100000000E-03 0. -1.
         11    1    4    4    0    0  0.66289948867E-01 -0.22749114873E-01  0.82546487164E-01  0.10828694849E+00  0.51100000000E-03 0.  1.
</event>
<event>
 8    1  0.1199892E+005  0.1043930E+01  0.7957747E-01            NaN
         13   -1    0    0    0    0  0.00000000000E+00  0.00000000000E+00  0.74505805969E-08  0.10566000000E+00  0.10566000000E+00 0. -1.
     999900   -1    0    0    0    0 -0.00000000000E+00 -0.00000000000E+00 -0.74505805969E-08  0.93827000000E+00  0.93827000000E+00 0. -1.
     999902    2    1    2    0    0 -0.48078305875E-02 -0.37642395825E-02 -0.21283318967E-01  0.10217880850E+01  0.10215481517E+01 0.  0.
     999903    2    3    3    0    0  0.74207933174E-01 -0.77454461571E-01  0.71573201359E-01  0.13033081000E+00  0.18904653389E-01 0.  0.
         14    1    1    2    0    0  0.48078305875E-02  0.37642395825E-02  0.21283318967E-01  0.22141915023E-01  0.00000000000E+00 0. -1.
     999901    1    3    3    0    0 -0.79015763762E-01  0.73690221988E-01 -0.92856520326E-01  0.89145727498E+00  0.88000000000E+00 0. -1.
        -11    1    4    4    0    0  0.12119049428E-01 -0.18679572473E-01  0.75435044435E-02  0.23515173125E-01  0.51100000000E-03 0.  1.
         11    1    4    4    0    0  0.62088883747E-01 -0.58774889098E-01  0.64029696915E-01  0.10681563688E+00  0.51100000000E-03 0. -1.
</event>
<event>
 8    1  0.1199892E+005  0.1043930E+01  0.7957747E-01            NaN
         13   -1    0    0    0    0  0.00000000000E+00  0.00000000000E+00  0.74505805969E-08  0.10566000000E+00  0.10566000000E+00 0.  1.
     999900   -1    0    0    0    0 -0.00000000000E+00 -0.00000000000E+00 -0.74505805969E-08  0.93827000000E+00  0.93827000000E+00 0.  1.
     999902    2    1    2    0    0  0.22719872902E-01  0.90362106807E-03 -0.64501563914E-02  0.10202949905E+01  0.10200212027E+01 0.  0.
     999903    2    3    3    0    0 -0.69355576010E-01 -0.10621001545E+00  0.80307504030E-02  0.12891352555E+00  0.21527675519E-01 0.  0.
         14    1    1    2    0    0 -0.22719872902E-01 -0.90362106807E-03  0.64501563914E-02  0.23635009481E-01  0.00000000000E+00 0.  1.
     999901    1    3    3    0    0  0.92075448912E-01  0.10711363652E+00 -0.14480906794E-01  0.89138146496E+00  0.88000000000E+00 0.  1.
        -11    1    4    4    0    0 -0.45013937381E-01 -0.80684086767E-01  0.12953089079E-01  0.93296409651E-01  0.51100000000E-03 0.  1.
         11    1    4    4    0    0 -0.24341638629E-01 -0.25525928683E-01 -0.49223386756E-02  0.35617115904E-01  0.51100000000E-03 0. -1.
</event>
<event>
 8    1  0.1199892E+005  0.1043930E+01  0.7957747E-01            NaN
         13   -1    0    0    0    0  0.00000000000E+00  0.00000000000E+00  0.74505805969E-08  0.10566000000E+00  0.10566000000E+00 0. -1.
     999900   -1    0    0    0    0 -0.00000000000E+00 -0.00000000000E+00 -0.74505805969E-08  0.93827000000E+00  0.93827000000E+00 0. -1.
     999902    2    1    2    0    0 -0.20436981365E-01 -0.11181708999E-01  0.22636450953E-02  0.10205243402E+01  0.10202559012E+01 0.  0.
     999903    2    3    3    0    0 -0.12729196500E+00  0.15630394131E-01  0.29850690433E-01  0.13322623835E+00  0.20263595262E-01 0.  0.
         14    1    1    2    0    0  0.20436981365E-01  0.11181708999E-01 -0.22636450953E-02  0.23405659840E-01  0.00000000000E+00 0.  1.
     999901    1    3    3    0    0  0.10685498363E+00 -0.26812103129E-01 -0.27587045338E-01  0.88729810181E+00  0.88000000000E+00 0.  1.
        -11    1    4    4    0    0 -0.36175893733E-01  0.11110619599E-01  0.22542534751E-02  0.37914165360E-01  0.51100000000E-03 0. -1.
         11    1    4    4    0    0 -0.91116071263E-01  0.45197745318E-02  0.27596436958E-01  0.95312072992E-01  0.51100000000E-03 0.  1.
</event>
<event>
 8    1  0.1199892E+005  0.1043930E+01  0.7957747E-01            NaN
         13   -1    0    0    0    0  0.00000000000E+00  0.00000000000E+00  0.74505805969E-08  0.10566000000E+00  0.10566000000E+00 0. -1.
     999900   -1    0    0    0    0 -0.00000000000E+00 -0.00000000000E+00 -0.74505805969E-08  0.93827000000E+00  0.93827000000E+00 0. -1.
     999902    2    1    2    0    0  0.36503558877E-03 -0.19298925684E-01  0.11266371309E-01  0.10215802146E+01  0.10213357049E+01 0.  0.
     999903    2    3    3    0    0 -0.22467529026E-02 -0.72880547719E-02 -0.12876819081E+00  0.13042323573E+00  0.19256422651E-01 0.  0.
         14    1    1    2    0    0 -0.36503558877E-03  0.19298925684E-01 -0.11266371309E-01  0.22349785368E-01  0.00000000000E+00 0.  1.
     999901    1    3    3    0    0  0.26117884913E-02 -0.12010870912E-01  0.14003456212E+00  0.89115697890E+00  0.88000000000E+00 0.  1.
        -11    1    4    4    0    0  0.53170824978E-02  0.26260993811E-02 -0.18101156575E-01  0.19054678024E-01  0.51100000000E-03 0.  1.
         11    1    4    4    0    0 -0.75638354004E-02 -0.99141541530E-02 -0.11066703423E+00  0.11136855771E+00  0.51100000000E-03 0. -1.
</event>
<event>
 8    1  0.1199892E+005  0.1043930E+01  0.7957747E-01            NaN
         13   -1    0    0    0    0  0.00000000000E+00  0.00000000000E+00  0.74505805969E-08  0.10566000000E+00  0.10566000000E+00 0.  1.
     999900   -1    0    0    0    0 -0.00000000000E+00 -0.00000000000E+00 -0.74505805969E-08  0.93827000000E+00  0.93827000000E+00 0.  1.
     999902    2    1    2    0    0  0.13645737483E-01  0.16357432282E-01 -0.13072088895E-01  0.10189369760E+01  0.10186304088E+01 0.  0.
     999903    2    3    3    0    0  0.68253358233E-01  0.18354264399E-01  0.10540366684E+00  0.12931768420E+00  0.24854185409E-01 0.  0.
         14    1    1    2    0    0 -0.13645737483E-01 -0.16357432282E-01  0.13072088895E-01  0.24993024035E-01  0.00000000000E+00 0.  1.
     999901    1    3    3    0    0 -0.54607620749E-01 -0.19968321173E-02 -0.11847575573E+00  0.88961929176E+00  0.88000000000E+00 0.  1.
        -11    1    4    4    0    0  0.11823514075E-01  0.10851435976E-01  0.36931879363E-01  0.40271255036E-01  0.51100000000E-03 0. -1.
         11    1    4    4    0    0  0.56429844158E-01  0.75028284229E-02  0.68471787476E-01  0.89046429165E-01  0.51100000000E-03 0.  1.
</event>
<event>
 8    1  0.1199892E+005  0.1043930E+01  0.7957747E-01            NaN
         13   -1    0    0    0    0  0.00000000000E+00  0.00000000000E+00  0.74505805969E-08  0.10566000000E+00  0.10566000000E+00 0.  1.
     999900   -1    0    0    0    0 -0.00000000000E+00 -0.00000000000E+00 -0.74505805969E-08  0.93827000000E+00  0.93827000000E+00 0.  1.
     999902    2    1    2    0    0  0.18265188088E-01  0.13800943031E-01  0.85077972200E-02  0.10195073519E+01  0.10192147835E+01 0.  0.
     999903    2    3    3    0    0 -0.75547685889E-01 -0.70052081978E-01 -0.70880018576E-01  0.12701947504E+00  0.22253605851E-01 0.  0.
         14    1    1    2    0    0 -0.18265188088E-01 -0.13800943031E-01 -0.85077972200E-02  0.24422648055E-01  0.00000000000E+00 0.  1.
     999901    1    3    3    0    0  0.93812873977E-01  0.83853025010E-01  0.79387815796E-01  0.89248787691E+00  0.88000000000E+00 0.  1.
        -11    1    4    4    0    0 -0.41586261356E-01 -0.48634279617E-01 -0.52887492616E-01  0.83018421351E-01  0.51100000000E-03 0.  1.
         11    1    4    4    0    0 -0.33961424532E-01 -0.21417802361E-01 -0.17992525960E-01  0.44001053688E-01  0.51100000000E-03 0. -1.
</event>
<event>
 8    1  0.1199892E+005  0.1043930E+01  0.7957747E-01            NaN
         13   -1    0    0    0    0  0.00000000000E+00  0.00000000000E+00  0.74505805969E-08  0.10566000000E+00  0.10566000000E+00 0.  1.
     999900   -1    0    0    0    0 -0.00000000000E+00 -0.00000000000E+00 -0.74505805969E-08  0.93827000000E+00  0.93827000000E+00 0. -1.
     999902    2    1    2    0    0 -0.91919902946E-02  0.23019518506E-01 -0.18777739998E-03  0.10191423785E+01  0.10188408912E+01 0.  0.
     999903    2    3    3    0    0  0.33828645831E-01  0.50763194840E-01 -0.11366717567E+00  0.13038028407E+00  0.18907998839E-01 0.  0.
         14    1    1    2    0    0  0.91919902946E-02 -0.23019518506E-01  0.18777739998E-03  0.24787621470E-01  0.00000000000E+00 0.  1.
     999901    1    3    3    0    0 -0.43020636125E-01 -0.27743676334E-01  0.11347939827E+00  0.88876209446E+00  0.88000000000E+00 0.  1.
        -11    1    4    4    0    0  0.28569890456E-01  0.26410351636E-01 -0.71405861972E-01  0.81319146326E-01  0.51100000000E-03 0.  1.
         11    1    4    4    0    0  0.52587553748E-02  0.24352843204E-01 -0.42261313703E-01  0.49061137748E-01  0.51100000000E-03 0. -1.
</event>
<event>
 8    1  0.1199892E+005  0.1043930E+01  0.7957747E-01            NaN
         13   -1    0    0    0    0  0.00000000000E+00  0.00000000000E+00  0.74505805969E-08  0.10566000000E+00  0.10566000000E+00 0. -1.
     999900   -1    0    0    0    0 -0.00000000000E+00 -0.00000000000E+00 -0.74505805969E-08  0.93827000000E+00  0.93827000000E+00 0. -1.
     999902    2    1    2    0    0 -0.20447463529E-02 -0.10257972495E-01 -0.16416603203E-01  0.10244643418E+01  0.10242793934E+01 0.  0.
     999903    2    3    3    0    0 -0.90926337050E-01  0.94232086211E-01 -0.19457687058E-01  0.13383121998E+00  0.19619098248E-01 0.  0.
         14    1    1    2    0    0  0.20447463529E-02  0.10257972495E-01  0.16416603203E-01  0.19465658172E-01  0.00000000000E+00 0. -1.
     999901    1    3    3    0    0  0.88881590697E-01 -0.10449005871E+00  0.30410838550E-02  0.89063312184E+00  0.88000000000E+00 0.  1.
        -11    1    4    4    0    0 -0.43107811602E-01  0.50580835677E-01 -0.18844740691E-01  0.69080313633E-01  0.51100000000E-03 0. -1.
         11    1    4    4    0    0 -0.47818525447E-01  0.43651250534E-01 -0.61294636662E-03  0.64750906352E-01  0.51100000000E-03 0.  1.
</event>
<event>
 8    1  0.1199892E+005  0.1043930E+01  0.7957747E-01            NaN
         13   -1    0    0    0    0  0.00000000000E+00  0.00000000000E+00  0.74505805969E-08  0.10566000000E+00  0.10566000000E+00 0. -1.
     999900   -1    0    0    0    0 -0.00000000000E+00 -0.00000000000E+00 -0.74505805969E-08  0.93827000000E+00  0.93827000000E+00 0.  1.
     999902    2    1    2    0    0 -0.62190112907E-02  0.94241797055E-02 -0.21418754615E-01  0.10197173109E+01  0.10194298111E+01 0.  0.
     999903    2    3    3    0    0  0.47634747984E-01  0.95559238713E-01  0.69476419090E-01  0.12922227532E+00  0.21697610702E-01 0.  0.
         14    1    1    2    0    0  0.62190112907E-02 -0.94241797055E-02  0.21418754615E-01  0.24212689107E-01  0.00000000000E+00 0. -1.
     999901    1    3    3    0    0 -0.53853759274E-01 -0.86135059008E-01 -0.90895173705E-01  0.89049503557E+00  0.88000000000E+00 0.  1.
        -11    1    4    4    0    0  0.15172912138E-01  0.42508201135E-01  0.40348328286E-01  0.60542655566E-01  0.51100000000E-03 0. -1.
         11    1    4    4    0    0  0.32461835846E-01  0.53051037578E-01  0.29128090804E-01  0.68679619754E-01  0.51100000000E-03 0.  1.
</event>
<event>
 8    1  0.1199892E+005  0.1043930E+01  0.7957747E-01            NaN
         13   -1    0    0    0    0  0.00000000000E+00  0.00000000000E+00  0.74505805969E-08  0.10566000000E+00  0.10566000000E+00 0. -1.
     999900   -1    0    0    0    0 -0.00000000000E+00 -0.00000000000E+00 -0.74505805969E-08  0.93827000000E+00  0.93827000000E+00 0. -1.
     999902    2    1    2    0    0  0.92806258566E-02  0.86449432742E-02  0.20151534692E-01  0.10201193005E+01  0.10198413788E+01 0.  0.
     999903    2    3    3    0    0  0.34403436967E-01 -0.96553901420E-01  0.80065164423E-01  0.13147561735E+00  0.19213408057E-01 0.  0.
         14    1    1    2    0    0 -0.92806258566E-02 -0.86449432742E-02 -0.20151534692E-01  0.23810699506E-01  0.00000000000E+00 0.  1.
     999901    1    3    3    0    0 -0.25122811111E-01  0.10519884469E+00 -0.59913629730E-01  0.88864368314E+00  0.88000000000E+00 0. -1.
        -11    1    4    4    0    0  0.52231509227E-02 -0.29051306874E-01  0.32429524269E-01  0.43854246111E-01  0.51100000000E-03 0. -1.
         11    1    4    4    0    0  0.29180286044E-01 -0.67502594546E-01  0.47635640153E-01  0.87621371240E-01  0.51100000000E-03 0.  1.
</event>
<event>
 8    1  0.1199892E+005  0.1043930E+01  0.7957747E-01            NaN
         13   -1    0    0    0    0  0.00000000000E+00  0.00000000000E+00  0.74505805969E-08  0.10566000000E+00  0.10566000000E+00 0. -1.
     999900   -1    0    0    0    0 -0.00000000000E+00 -0.00000000000E+00 -0.74505805969E-08  0.93827000000E+00  0.93827000000E+00 0. -1.
     999902    2    1    2    0    0 -0.13152848811E-02  0.14959296164E-01  0.17797859981E-01  0.10206432154E+01  0.10203775276E+01 0.  0.
     999903    2    3    3    0    0 -0.14189503524E-01 -0.11903621509E+00 -0.41643424570E-01  0.12842473946E+00  0.19692038532E-01 0.  0.
         14    1    1    2    0    0  0.13152848811E-02 -0.14959296164E-01 -0.17797859981E-01  0.23286784577E-01  0.00000000000E+00 0.  1.
     999901    1    3    3    0    0  0.12874218643E-01  0.13399551126E+00  0.59441284551E-01  0.89221847596E+00  0.88000000000E+00 0. -1.
        -11    1    4    4    0    0 -0.11026282287E-03 -0.61763103370E-01 -0.28369745123E-01  0.67969086025E-01  0.51100000000E-03 0. -1.
         11    1    4    4    0    0 -0.14079240701E-01 -0.57273111722E-01 -0.13273679447E-01  0.60455653434E-01  0.51100000000E-03 0.  1.
</event>
<event>
 8    1  0.1199892E+005  0.1043930E+01  0.7957747E-01            NaN
         13   -1    0    0    0    0  0.00000000000E+00  0.00000000000E+00  0.74505805969E-08  0.10566000000E+00  0.10566000000E+00 0. -1.
     999900   -1    0    0    0    0 -0.00000000000E+00 -0.00000000000E+00 -0.74505805969E-08  0.93827000000E+00  0.93827000000E+00 0.  1.
     999902    2    1    2    0    0  0.11423533022E-01  0.17882771149E-01 -0.12094035577E-01  0.10195054978E+01  0.10192128844E+01 0.  0.
     999903    2    3    3    0    0 -0.34757725212E-01  0.12032225429E+00 -0.36539728004E-01  0.13202358352E+00  0.20236861000E-01 0.  0.
         14    1    1    2    0    0 -0.11423533022E-01 -0.17882771149E-01  0.12094035577E-01  0.24424502189E-01  0.00000000000E+00 0. -1.
     999901    1    3    3    0    0  0.46181258233E-01 -0.10243948314E+00  0.24445692427E-01  0.88748191429E+00  0.88000000000E+00 0.  1.
        -11    1    4    4    0    0 -0.18675949836E-01  0.51301703709E-01 -0.62620967388E-02  0.54955717467E-01  0.51100000000E-03 0. -1.
         11    1    4    4    0    0 -0.16081775376E-01  0.69020550580E-01 -0.30277631265E-01  0.77067866051E-01  0.51100000000E-03 0.  1.
</event>
<event>
 8    1  0.1199892E+005  0.1043930E+01  0.7957747E-01            NaN
         13   -1    0    0    0    0  0.00000000000E+00  0.00000000000E+00  0.74505805969E-08  0.10566000000E+00  0.10566000000E+00 0. -1.
     999900   -1    0    0    0    0 -0.00000000000E+00 -0.00000000000E+00 -0.74505805969E-08  0.93827000000E+00  0.93827000000E+00 0.  1.
     999902    2    1    2    0    0  0.43612102799E-02 -0.20586853029E-01  0.12210683099E-01  0.10196001941E+01  0.10193098726E+01 0.  0.
     999903    2    3    3    0    0  0.76138458071E-01  0.14830532680E-01 -0.10101036585E+00  0.12874365660E+00  0.18836815242E-01 0.  0.
         14    1    1    2    0    0 -0.43612102799E-02  0.20586853029E-01 -0.12210683099E-01  0.24329805887E-01  0.00000000000E+00 0.  1.
     999901    1    3    3    0    0 -0.71777247791E-01 -0.35417385709E-01  0.11322104895E+00  0.89085653752E+00  0.88000000000E+00 0. -1.
        -11    1    4    4    0    0  0.35350230345E-01  0.71629610276E-02 -0.32037618947E-01  0.48245382628E-01  0.51100000000E-03 0. -1.
         11    1    4    4    0    0  0.40788227725E-01  0.76675716522E-02 -0.68972746900E-01  0.80498273969E-01  0.51100000000E-03 0.  1.
</event>
<event>
 8    1  0.1199892E+005  0.1043930E+01  0.7957747E-01            NaN
         13   -1    0    0    0    0  0.00000000000E+00  0.00000000000E+00  0.74505805969E-08  0.10566000000E+00  0.10566000000E+00 0.  1.
     999900   -1    0    0    0    0 -0.00000000000E+00 -0.00000000000E+00 -0.74505805969E-08  0.93827000000E+00  0.93827000000E+00 0. -1.
     999902    2    1    2    0    0  0.14523623520E-01 -0.14536647032E-01 -0.14282017813E-02  0.10233317111E+01  0.10231243821E+01 0.  0.
     999903    2    3    3    0    0  0.85160281216E-01  0.99935444909E-01 -0.11713766629E-01  0.13305131136E+00  0.18057477100E-01 0.  0.
         14    1    1    2    0    0 -0.14523623520E-01  0.14536647032E-01  0.14282017813E-02  0.20598288944E-01  0.00000000000E+00 0.  1.
     999901    1    3    3    0    0 -0.70636657695E-01 -0.11447209194E+00  0.10285564848E-01  0.89028039970E+00  0.88000000000E+00 0.  1.
        -11    1    4    4    0    0  0.55843097651E-01  0.77929533628E-01 -0.86063197509E-02  0.96258992450E-01  0.51100000000E-03 0.  1.
         11    1    4    4    0    0  0.29317183564E-01  0.22005911281E-01 -0.31074468784E-02  0.36792318907E-01  0.51100000000E-03 0. -1.
</event>
<event>
 8    1  0.1199892E+005  0.1043930E+01  0.7957747E-01            NaN
         13   -1    0    0    0    0  0.00000000000E+00  0.00000000000E+00  0.74505805969E-08  0.10566000000E+00  0.10566000000E+00 0.  1.
     999900   -1    0    0    0    0 -0.00000000000E+00 -0.00000000000E+00 -0.74505805969E-08  0.93827000000E+00  0.93827000000E+00 0.  1.
     999902    2    1    2    0    0  0.30618286760E-02  0.63440408132E-02  0.21870308079E-01  0.10209532286E+01  0.10206946473E+01 0.  0.
     999903    2    3    3    0    0  0.13069481897E-01 -0.12182344927E+00 -0.37345407074E-01  0.12964320422E+00  0.20022907387E-01 0.  0.
         14    1    1    2    0    0 -0.30618286760E-02 -0.63440408132E-02 -0.21870308079E-01  0.22976771404E-01  0.00000000000E+00 0. -1.
     999901    1    3    3    0    0 -0.10007653221E-01  0.12816749009E+00  0.59215715153E-01  0.89131002438E+00  0.88000000000E+00 0. -1.
        -11    1    4    4    0    0 -0.29162579604E-02 -0.62843708606E-01 -0.21846249869E-01  0.66598468647E-01  0.51100000000E-03 0. -1.
         11    1    4    4    0    0  0.15985739857E-01 -0.58979740668E-01 -0.15499157205E-01  0.63044735570E-01  0.51100000000E-03 0.  1.
</event>
<event>
 8    1  0.1199892E+005  0.1043930E+01  0.7957747E-01            NaN
         13   -1    0    0    0    0  0.00000000000E+00  0.00000000000E+00  0.74505805969E-08  0.10566000000E+00  0.10566000000E+00 0.  1.
     999900   -1    0    0    0    0 -0.00000000000E+00 -0.00000000000E+00 -0.74505805969E-08  0.93827000000E+00  0.93827000000E+00 0.  1.
     999902    2    1    2    0    0 -0.21783857270E-01 -0.10062311176E-01  0.28227145293E-02  0.10197689930E+01  0.10194827339E+01 0.  0.
     999903    2    3    3    0    0  0.16485018842E-01 -0.58816930294E-02  0.12741111213E+00  0.13015994778E+00  0.20041715350E-01 0.  0.
         14    1    1    2    0    0  0.21783857270E-01  0.10062311176E-01 -0.28227145293E-02  0.24161007037E-01  0.00000000000E+00 0.  1.
     999901    1    3    3    0    0 -0.38268876112E-01 -0.41806181468E-02 -0.12458839760E+00  0.88960904518E+00  0.88000000000E+00 0.  1.
        -11    1    4    4    0    0  0.14306376434E-01  0.19262756074E-02  0.43048596751E-01  0.45407331431E-01  0.51100000000E-03 0.  1.
         11    1    4    4    0    0  0.21786424082E-02 -0.78079686368E-02  0.84362515377E-01  0.84752616354E-01  0.51100000000E-03 0. -1.
</event>
<event>
 8    1  0.1199892E+005  0.1043930E+01  0.7957747E-01            NaN
         13   -1    0    0    0    0  0.00000000000E+00  0.00000000000E+00  0.74505805969E-08  0.10566000000E+00  0.10566000000E+00 0. -1.
     999900   -1    0    0    0    0 -0.00000000000E+00 -0.00000000000E+00 -0.74505805969E-08  0.93827000000E+00  0.93827000000E+00 0.  1.
     999902    2    1    2    0    0 -0.17374013614E-02  0.20934882609E-01  0.10889373116E-01  0.10202685055E+01  0.10199940966E+01 0.  0.
     999903    2    3    3    0    0 -0.10407960441E+00 -0.22394332782E-01 -0.71016273835E-01  0.12950485426E+00  0.19852605201E-01 0.  0.
         14    1    1    2    0    0  0.17374013614E-02 -0.20934882609E-01 -0.10889373116E-01  0.23661494463E-01  0.00000000000E+00 0.  1.
     999901    1    3    3    0    0  0.10234220305E+00  0.43329215391E-01  0.81905646951E-01  0.89076365128E+00  0.88000000000E+00 0. -1.
        -11    1    4    4    0    0 -0.51275137161E-01 -0.15817347130E-01 -0.25201114209E-01  0.59284782529E-01  0.51100000000E-03 0. -1.
         11    1    4    4    0    0 -0.52804467248E-01 -0.65769856516E-02 -0.45815159626E-01  0.70220071733E-01  0.51100000000E-03 0.  1.
</event>
<event>
 8    1  0.1199892E+005  0.1043930E+01  0.7957747E-01            NaN
         13   -1    0    0    0    0  0.00000000000E+00  0.00000000000E+00  0.74505805969E-08  0.10566000000E+00  0.10566000000E+00 0. -1.
     999900   -1    0    0    0    0 -0.00000000000E+00 -0.00000000000E+00 -0.74505805969E-08  0.93827000000E+00  0.93827000000E+00 0. -1.
     999902    2    1    2    0    0 -0.11904394862E-01  0.50260625575E-03  0.19480214381E-01  0.10210948082E+01  0.10208394396E+01 0.  0.
     999903    2    3    3    0    0 -0.15548655432E-01 -0.12529510260E+00  0.33210293688E-01  0.13203527184E+00  0.19742491808E-01 0.  0.
         14    1    1    2    0    0  0.11904394862E-01 -0.50260625575E-03 -0.19480214381E-01  0.22835191754E-01  0.00000000000E+00 0.  1.
     999901    1    3    3    0    0  0.36442605699E-02  0.12579770886E+00 -0.13730079307E-01  0.88905953640E+00  0.88000000000E+00 0. -1.
        -11    1    4    4    0    0  0.12904665299E-02 -0.63491246967E-01  0.12616238538E-01  0.64747465905E-01  0.51100000000E-03 0.  1.
         11    1    4    4    0    0 -0.16839121962E-01 -0.61803855634E-01  0.20594055150E-01  0.67287805940E-01  0.51100000000E-03 0. -1.
</event>
<event>
 8    1  0.1199892E+005  0.1043930E+01  0.7957747E-01            NaN
         13   -1    0    0    0    0  0.00000000000E+00  0.00000000000E+00  0.74505805969E-08  0.10566000000E+00  0.10566000000E+00 0.  1.
     999900   -1    0    0    0    0 -0.00000000000E+00 -0.00000000000E+00 -0.74505805969E-08  0.93827000000E+00  0.93827000000E+00 0. -1.
     999902    2    1    2    0    0 -0.21336879497E-01 -0.94163769050E-03  0.13316140867E-01  0.10187611956E+01  0.10184502467E+01 0.  0.
     999903    2    3    3    0    0  0.10417175923E+00  0.16073549395E-01  0.69425223626E-01  0.12792441808E+00  0.20848996484E-01 0.  0.
         14    1    1    2    0    0  0.21336879497E-01  0.94163769050E-03 -0.13316140867E-01  0.25168804418E-01  0.00000000000E+00 0. -1.
     999901    1    3    3    0    0 -0.12550863872E+00 -0.17015187086E-01 -0.56109082758E-01  0.89083677750E+00  0.88000000000E+00 0. -1.
        -11    1    4    4    0    0  0.76109495084E-01  0.41843695132E-02  0.42611809476E-01  0.87328068901E-01  0.51100000000E-03 0.  1.
         11    1    4    4    0    0  0.28062264143E-01  0.11889179882E-01  0.26813414150E-01  0.40596349177E-01  0.51100000000E-03 0. -1.
</event>
<event>
 8    1  0.1199892E+005  0.1043930E+01  0.7957747E-01            NaN
         13   -1    0    0    0    0  0.00000000000E+00  0.00000000000E+00  0.74505805969E-08  0.10566000000E+00  0.10566000000E+00 0. -1.
     999900   -1    0    0    0    0 -0.00000000000E+00 -0.00000000000E+00 -0.74505805969E-08  0.93827000000E+00  0.93827000000E+00 0.  1.
     999902    2    1    2    0    0  0.21446821490E-01  0.10598754175E-02 -0.11491878299E-01  0.10195752724E+01  0.10192843487E+01 0.  0.
     999903    2    3    3    0    0  0.99982208281E-01 -0.74883247253E-01  0.36211888747E-01  0.13153765260E+00  0.19670039959E-01 0.  0.
         14    1    1    2    0    0 -0.21446821490E-01 -0.10598754175E-02  0.11491878299E-01  0.24354727565E-01  0.00000000000E+00 0. -1.
     999901    1    3    3    0    0 -0.78535386791E-01  0.75943122671E-01 -0.47703767046E-01  0.88803761984E+00  0.88000000000E+00 0.  1.
        -11    1    4    4    0    0  0.48514289573E-01 -0.40770881150E-01  0.88112465730E-02  0.63982811986E-01  0.51100000000E-03 0.  1.
         11    1    4    4    0    0  0.51467918707E-01 -0.34112366104E-01  0.27400642174E-01  0.67554840610E-01  0.51100000000E-03 0. -1.
</event>
<event>
 7    1  0.1199892E+005  0.1043930E+01  0.7957747E-01            NaN
         13   -1    0    0    0    0  0.00000000000E+00  0.00000000000E+00  0.74505805969E-08  0.10566000000E+00  0.10566000000E+00 0.  1.
     999900   -1    0    0    0    0 -0.00000000000E+00 -0.00000000000E+00 -0.74505805969E-08  0.93827000000E+00  0.93827000000E+00 0. -1.
     999902    2    1    2    0    0  0.11450876350E-01  0.92494533600E-02  0.18549515757E-01  0.10202496391E+01  0.10199747873E+01 0.  0.
         14    1    1    2    0    0 -0.11450876350E-01 -0.92494533600E-02 -0.18549515757E-01  0.23680360881E-01  0.00000000000E+00 0. -1.
     999901    1    3    3    0    0 -0.44686638417E-01  0.63581455489E-01 -0.59025066903E-01  0.88539451978E+00  0.88000000000E+00 0. -1.
        -11    1    3    3    0    0 -0.10029033659E-01  0.12141609984E-01  0.17122903226E-01  0.23269188749E-01  0.51100000000E-03 0. -1.
         11    1    3    3    0    0  0.66166548426E-01 -0.66473612113E-01  0.60451679435E-01  0.11158593059E+00  0.51100000000E-03 0.  1.
</event>
<event>
 8    1  0.1199892E+005  0.1043930E+01  0.7957747E-01            NaN
         13   -1    0    0    0    0  0.00000000000E+00  0.00000000000E+00  0.74505805969E-08  0.10566000000E+00  0.10566000000E+00 0.  1.
     999900   -1    0    0    0    0 -0.00000000000E+00 -0.00000000000E+00 -0.74505805969E-08  0.93827000000E+00  0.93827000000E+00 0. -1.
     999902    2    1    2    0    0  0.27806901649E-02  0.85589325683E-02 -0.22796818227E-01  0.10194211753E+01  0.10191265134E+01 0.  0.
     999903    2    3    3    0    0 -0.32757868459E-01  0.12474445920E+00 -0.21663398549E-02  0.13083371067E+00  0.21874843363E-01 0.  0.
         14    1    1    2    0    0 -0.27806901649E-02 -0.85589325683E-02  0.22796818227E-01  0.24508824651E-01  0.00000000000E+00 0.  1.
     999901    1    3    3    0    0  0.35538558624E-01 -0.11618552663E+00 -0.20630478372E-01  0.88858746468E+00  0.88000000000E+00 0. -1.
        -11    1    4    4    0    0 -0.31985261205E-01  0.10863456249E+00  0.45907100844E-02  0.11333958197E+00  0.51100000000E-03 0.  1.
         11    1    4    4    0    0 -0.77260725400E-03  0.16109896710E-01 -0.67570499393E-02  0.17494128697E-01  0.51100000000E-03 0. -1.
</event>
<event>
 8    1  0.1199892E+005  0.1043930E+01  0.7957747E-01            NaN
         13   -1    0    0    0    0  0.00000000000E+00  0.00000000000E+00  0.74505805969E-08  0.10566000000E+00  0.10566000000E+00 0. -1.
     999900   -1    0    0    0    0 -0.00000000000E+00 -0.00000000000E+00 -0.74505805969E-08  0.93827000000E+00  0.93827000000E+00 0.  1.
     999902    2    1    2    0    0  0.46195085223E-02  0.14574624138E-01  0.18030411146E-01  0.10202898804E+01  0.10200159728E+01 0.  0.
     999903    2    3    3    0    0  0.12189361914E+00  0.18134868308E-01  0.43685262021E-01  0.13213220087E+00  0.19067998188E-01 0.  0.
         14    1    1    2    0    0 -0.46195085223E-02 -0.14574624138E-01 -0.18030411146E-01  0.23640119582E-01  0.00000000000E+00 0.  1.
     999901    1    3    3    0    0 -0.11727411062E+00 -0.35602441700E-02 -0.25654850875E-01  0.88815767954E+00  0.88000000000E+00 0.  1.
        -11    1    4    4    0    0  0.24564999449E-01  0.10981871661E-01  0.64283487710E-02  0.27669938418E-01  0.51100000000E-03 0. -1.
         11    1    4    4    0    0  0.97328619689E-01  0.71529966468E-02  0.37256913250E-01  0.10446226246E+00  0.51100000000E-03 0.  1.
</event>
<event>
 8    1  0.1199892E+005  0.1043930E+01  0.7957747E-01            NaN
         13   -1    0    0    0    0  0.00000000000E+00  0.00000000000E+00  0.74505805969E-08  0.10566000000E+00  0.10566000000E+00 0. -1.
     999900   -1    0    0    0    0 -0.00000000000E+00 -0.00000000000E+00 -0.74505805969E-08  0.93827000000E+00  0.93827000000E+00 0. -1.
     999902    2    1    2    0    0 -0.82583584648E-03  0.75910383640E-03 -0.23322925747E-01  0.10205801154E+01  0.10203129691E+01 0.  0.
     999903    2    3    3    0    0  0.11589759031E+00 -0.51003724865E-01 -0.29484549056E-01  0.13134352474E+00  0.18658817395E-01 0.  0.
         14    1    1    2    0    0  0.82583584648E-03 -0.75910383640E-03  0.23322925747E-01  0.23349884558E-01  0.00000000000E+00 0. -1.
     999901    1    3    3    0    0 -0.11672342616E+00  0.51762828701E-01  0.61616233093E-02  0.88923659071E+00  0.88000000000E+00 0.  1.
        -11    1    4    4    0    0  0.24730383461E-01 -0.83167506475E-02  0.11394414287E-02  0.26121249113E-01  0.51100000000E-03 0.  1.
         11    1    4    4    0    0  0.91167206852E-01 -0.42686974217E-01 -0.30623990485E-01  0.10522227562E+00  0.51100000000E-03 0. -1.
</event>
<event>
 8    1  0.1199892E+005  0.1043930E+01  0.7957747E-01            NaN
         13   -1    0    0    0    0  0.00000000000E+00  0.00000000000E+00  0.74505805969E-08  0.10566000000E+00  0.10566000000E+00 0.  1.
     999900   -1    0    0    0    0 -0.00000000000E+00 -0.00000000000E+00 -0.74505805969E-08  0.93827000000E+00  0.93827000000E+00 0. -1.
     999902    2    1    2    0    0  0.60105681128E-02 -0.69781348240E-02  0.22690157875E-01  0.10194419507E+01  0.10191477941E+01 0.  0.
     999903    2    3    3    0    0  0.11626844763E+00 -0.55855539558E-01  0.12787062273E-01  0.13116053583E+00  0.20034569704E-01 0.  0.
         14    1    1    2    0    0 -0.60105681128E-02  0.69781348240E-02 -0.22690157875E-01  0.24488049311E-01  0.00000000000E+00 0. -1.
     999901    1    3    3    0    0 -0.11025787952E+00  0.48877404734E-01  0.99030956029E-02  0.88828141486E+00  0.88000000000E+00 0. -1.
        -11    1    4    4    0    0  0.11185903521E+00 -0.49507365725E-01  0.14630698930E-01  0.12319797681E+00  0.51100000000E-03 0.  1.
         11    1    4    4    0    0  0.44094124219E-02 -0.63481738329E-02 -0.18436366577E-02  0.79625590136E-02  0.51100000000E-03 0. -1.
</event>
<event>
 8    1  0.1199892E+005  0.1043930E+01  0.7957747E-01            NaN
         13   -1    0    0    0    0  0.00000000000E+00  0.00000000000E+00  0.74505805969E-08  0.10566000000E+00  0.10566000000E+00 0. -1.
     999900   -1    0    0    0    0 -0.00000000000E+00 -0.00000000000E+00 -0.74505805969E-08  0.93827000000E+00  0.93827000000E+00 0. -1.
     999902    2    1    2    0    0  0.15972939163E-01  0.31963232623E-02  0.15883064450E-01  0.10211786703E+01  0.10209251949E+01 0.  0.
     999903    2    3    3    0    0  0.10100003142E+00  0.78707733964E-01  0.32862566153E-01  0.13369915894E+00  0.19990075395E-01 0.  0.
         14    1    1    2    0    0 -0.15972939163E-01 -0.31963232623E-02 -0.15883064450E-01  0.22751329724E-01  0.00000000000E+00 0.  1.
     999901    1    3    3    0    0 -0.85027092257E-01 -0.75511410702E-01 -0.16979501703E-01  0.88747951134E+00  0.88000000000E+00 0. -1.
        -11    1    4    4    0    0  0.83693253556E-01  0.57388500503E-01  0.20267726558E-01  0.10348450387E+00  0.51100000000E-03 0. -1.
         11    1    4    4    0    0  0.17306777864E-01  0.21319233462E-01  0.12594839595E-01  0.30214655068E-01  0.51100000000E-03 0.  1.
</event>
<event>
 8    1  0.1199892E+005  0.1043930E+01  0.7957747E-01            NaN
         13   -1    0    0    0    0  0.00000000000E+00  0.00000000000E+00  0.74505805969E-08  0.10566000000E+00  0.10566000000E+00 0.  1.
     999900   -1    0    0    0    0 -0.00000000000E+00 -0.00000000000E+00 -0.74505805969E-08  0.93827000000E+00  0.93827000000E+00 0. -1.
     999902    2    1    2    0    0 -0.72722199941E-02 -0.67504900671E-02 -0.21566877260E-01  0.10201900654E+01  0.10199138126E+01 0.  0.
     999903    2    3    3    0    0 -0.40981163476E-01 -0.11966302606E+00  0.22461210361E-01  0.13124461930E+00  0.26869100437E-01 0.  0.
         14    1    1    2    0    0  0.72722199941E-02  0.67504900671E-02  0.21566877260E-01  0.23739934594E-01  0.00000000000E+00 0.  1.
     999901    1    3    3    0    0  0.33708943482E-01  0.11291253599E+00 -0.44028087621E-01  0.88894544611E+00  0.88000000000E+00 0. -1.
        -11    1    4    4    0    0 -0.25750899028E-01 -0.77178482719E-01  0.27371562703E-01  0.85843407210E-01  0.51100000000E-03 0. -1.
         11    1    4    4    0    0 -0.15230264449E-01 -0.42484543341E-01 -0.49103523414E-02  0.45401212089E-01  0.51100000000E-03 0.  1.
</event>
<event>
 8    1  0.1199892E+005  0.1043930E+01  0.7957747E-01            NaN
         13   -1    0    0    0    0  0.00000000000E+00  0.00000000000E+00  0.74505805969E-08  0.10566000000E+00  0.10566000000E+00 0.  1.
     999900   -1    0    0    0    0 -0.00000000000E+00 -0.00000000000E+00 -0.74505805969E-08  0.93827000000E+00  0.93827000000E+00 0. -1.
     999902    2    1    2    0    0 -0.14918001395E-01  0.16074438053E-01  0.93167442719E-02  0.10201027877E+01  0.10198244757E+01 0.  0.
     999903    2    3    3    0    0 -0.10480211398E-01  0.10621014433E+00 -0.73588627739E-01  0.13161112183E+00  0.22710606952E-01 0.  0.
         14    1    1    2    0    0  0.14918001395E-01 -0.16074438053E-01 -0.93167442719E-02  0.23827212346E-01  0.00000000000E+00 0. -1.
     999901    1    3    3    0    0 -0.44377899970E-02 -0.90135706276E-01  0.82905372011E-01  0.88849166582E+00  0.88000000000E+00 0.  1.
        -11    1    4    4    0    0 -0.17017385271E-01  0.67672421188E-01 -0.51330402440E-01  0.86626897247E-01  0.51100000000E-03 0.  1.
         11    1    4    4    0    0  0.65371738726E-02  0.38537723141E-01 -0.22258225299E-01  0.44984224586E-01  0.51100000000E-03 0. -1.
</event>
<event>
 8    1  0.1199892E+005  0.1043930E+01  0.7957747E-01            NaN
         13   -1    0    0    0    0  0.00000000000E+00  0.00000000000E+00  0.74505805969E-08  0.10566000000E+00  0.10566000000E+00 0.  1.
     999900   -1    0    0    0    0 -0.00000000000E+00 -0.00000000000E+00 -0.74505805969E-08  0.93827000000E+00  0.93827000000E+00 0.  1.
     999902    2    1    2    0    0  0.16878086965E-01  0.16454972673E-01 -0.78889736050E-02  0.10190729718E+01  0.10187697728E+01 0.  0.
     999903    2    3    3    0    0  0.12967382981E+00  0.12689799372E-01 -0.37935697873E-03  0.13183374226E+00  0.20091255338E-01 0.  0.
         14    1    1    2    0    0 -0.16878086965E-01 -0.16454972673E-01  0.78889736050E-02  0.24857028177E-01  0.00000000000E+00 0. -1.
     999901    1    3    3    0    0 -0.11279574284E+00  0.37651733004E-02 -0.75096166263E-02  0.88723922956E+00  0.88000000000E+00 0. -1.
        -11    1    4    4    0    0  0.33939030847E-01  0.11996150644E-01 -0.23241789315E-02  0.36075315298E-01  0.51100000000E-03 0.  1.
         11    1    4    4    0    0  0.95734798962E-01  0.69364872820E-03  0.19448219528E-02  0.95758426962E-01  0.51100000000E-03 0. -1.
</event>
<event>
 8    1  0.1199892E+005  0.1043930E+01  0.7957747E-01            NaN
         13   -1    0    0    0    0  0.00000000000E+00  0.00000000000E+00  0.74505805969E-08  0.10566000000E+00  0.10566000000E+00 0. -1.
     999900   -1    0    0    0    0 -0.00000000000E+00 -0.00000000000E+00 -0.74505805969E-08  0.93827000000E+00  0.93827000000E+00 0.  1.
     999902    2    1    2    0    0  0.16889896364E-01 -0.15698959948E-01  0.62459777721E-02  0.10200398727E+01  0.10197600717E+01 0.  0.
     999903    2    3    3    0    0  0.65913913965E-01  0.98641143676E-01  0.49808661370E-01  0.13022263251E+00  0.20057716454E-01 0.  0.
         14    1    1    2    0    0 -0.16889896364E-01  0.15698959948E-01 -0.62459777721E-02  0.23890127270E-01  0.00000000000E+00 0. -1.
     999901    1    3    3    0    0 -0.49024017601E-01 -0.11434010362E+00 -0.43562683598E-01  0.88981724022E+00  0.88000000000E+00 0.  1.
        -11    1    4    4    0    0  0.56408230247E-01  0.88168333949E-01  0.36659083682E-01  0.11090398139E+00  0.51100000000E-03 0. -1.
         11    1    4    4    0    0  0.95056837188E-02  0.10472809727E-01  0.13149577688E-01  0.19318651115E-01  0.51100000000E-03 0.  1.
</event>
<event>
 8    1  0.1199892E+005  0.1043930E+01  0.7957747E-01            NaN
         13   -1    0    0    0    0  0.00000000000E+00  0.00000000000E+00  0.74505805969E-08  0.10566000000E+00  0.10566000000E+00 0.  1.
     999900   -1    0    0    0    0 -0.00000000000E+00 -0.00000000000E+00 -0.74505805969E-08  0.93827000000E+00  0.93827000000E+00 0. -1.
     999902    2    1    2    0    0  0.17727104919E-01  0.33533766012E-02  0.14814382528E-01  0.10205855935E+01  0.10203185740E+01 0.  0.
     999903    2    3    3    0    0 -0.41719071598E-01 -0.10733040597E+00 -0.53750841071E-01  0.12902183389E+00  0.22297617025E-01 0.  0.
         14    1    1    2    0    0 -0.17727104919E-01 -0.33533766012E-02 -0.14814382528E-01  0.23344406464E-01  0.00000000000E+00 0. -1.
     999901    1    3    3    0    0  0.59446176518E-01  0.11068378257E+00  0.68565223599E-01  0.89156375965E+00  0.88000000000E+00 0.  1.
        -11    1    4    4    0    0 -0.28996482758E-01 -0.62426816974E-01 -0.42882649998E-01  0.81099237245E-01  0.51100000000E-03 0. -1.
         11    1    4    4    0    0 -0.12722588840E-01 -0.44903588991E-01 -0.10868191073E-01  0.47922596646E-01  0.51100000000E-03 0.  1.
</event>
<event>
 8    1  0.1199892E+005  0.1043930E+01  0.7957747E-01            NaN
         13   -1    0    0    0    0  0.00000000000E+00  0.00000000000E+00  0.74505805969E-08  0.10566000000E+00  0.10566000000E+00 0. -1.
     999900   -1    0    0    0    0 -0.00000000000E+00 -0.00000000000E+00 -0.74505805969E-08  0.93827000000E+00  0.93827000000E+00 0.  1.
     999902    2    1    2    0    0  0.16516795691E-01  0.16407521590E-01 -0.39025579079E-02  0.10203240418E+01  0.10200509345E+01 0.  0.
     999903    2    3    3    0    0 -0.16152335033E-01 -0.12469971492E+00  0.14820806229E-01  0.12828755786E+00  0.20666987611E-01 0.  0.
         14    1    1    2    0    0 -0.16516795691E-01 -0.16407521590E-01  0.39025579079E-02  0.23605958207E-01  0.00000000000E+00 0. -1.
     999901    1    3    3    0    0  0.32669130724E-01  0.14110723651E+00 -0.18723364137E-01  0.89203648393E+00  0.88000000000E+00 0. -1.
        -11    1    4    4    0    0 -0.11220298266E-01 -0.24387536921E-01  0.64550324158E-03  0.26857491426E-01  0.51100000000E-03 0.  1.
         11    1    4    4    0    0 -0.49320367669E-02 -0.10031217800E+00  0.14175302988E-01  0.10143006644E+00  0.51100000000E-03 0. -1.
</event>
<event>
 8    1  0.1199892E+005  0.1043930E+01  0.7957747E-01            NaN
         13   -1    0    0    0    0  0.00000000000E+00  0.00000000000E+00  0.74505805969E-08  0.10566000000E+00  0.10566000000E+00 0. -1.
     999900   -1    0    0    0    0 -0.00000000000E+00 -0.00000000000E+00 -0.74505805969E-08  0.93827000000E+00  0.93827000000E+00 0. -1.
     999902    2    1    2    0    0 -0.42459229199E-02 -0.23750345982E-02  0.23452102949E-01  0.10199785954E+01  0.10196973400E+01 0.  0.
     999903    2    3    3    0    0 -0.57668466898E-01 -0.27735954992E-01  0.11521945441E+00  0.13323263892E+00  0.19505848544E-01 0.  0.
         14    1    1    2    0    0  0.42459229199E-02  0.23750345982E-02 -0.23452102949E-01  0.23951404625E-01  0.00000000000E+00 0.  1.
     999901    1    3    3    0    0  0.53422543978E-01  0.25360920394E-01 -0.91767351457E-01  0.88674595645E+00  0.88000000000E+00 0. -1.
        -11    1    4    4    0    0 -0.45618107683E-01 -0.25001653238E-01  0.75924068579E-01  0.92037056253E-01  0.51100000000E-03 0.  1.
         11    1    4    4    0    0 -0.12050359215E-01 -0.27343017541E-02  0.39295385827E-01  0.41195582671E-01  0.51100000000E-03 0. -1.
</event>
<event>
 8    1  0.1199892E+005  0.1043930E+01  0.7957747E-01            NaN
         13   -1    0    0    0    0  0.00000000000E+00  0.00000000000E+00  0.74505805969E-08  0.10566000000E+00  0.10566000000E+00 0. -1.
     999900   -1    0    0    0    0 -0.00000000000E+00 -0.00000000000E+00 -0.74505805969E-08  0.93827000000E+00  0.93827000000E+00 0.  1.
     999902    2    1    2    0    0 -0.14489006863E-01 -0.30299128303E-02  0.19917459721E-01  0.10191143418E+01  0.10188121636E+01 0.  0.
     999903    2    3    3    0    0  0.14525605183E-01 -0.28980438531E-01  0.12633605967E+00  0.13184876940E+00  0.19298678637E-01 0.  0.
         14    1    1    2    0    0  0.14489006863E-01  0.30299128303E-02 -0.19917459721E-01  0.24815658229E-01  0.00000000000E+00 0.  1.
     999901    1    3    3    0    0 -0.29014612046E-01  0.25950525701E-01 -0.10641859995E+00  0.88726557237E+00  0.88000000000E+00 0.  1.
        -11    1    4    4    0    0  0.14922941401E-01 -0.87364801868E-02  0.51964780843E-01  0.54768785226E-01  0.51100000000E-03 0. -1.
         11    1    4    4    0    0 -0.39733621828E-03 -0.20243958344E-01  0.74371278825E-01  0.77079984176E-01  0.51100000000E-03 0.  1.
</event>
<event>
 8    1  0.1199892E+005  0.1043930E+01  0.7957747E-01            NaN
         13   -1    0    0    0    0  0.00000000000E+00  0.00000000000E+00  0.74505805969E-08  0.10566000000E+00  0.10566000000E+00 0. -1.
     999900   -1    0    0    0    0 -0.00000000000E+00 -0.00000000000E+00 -0.74505805969E-08  0.93827000000E+00  0.93827000000E+00 0. -1.
     999902    2    1    2    0    0  0.18495103329E-01 -0.11194776268E-01 -0.62806985900E-02  0.10214169141E+01  0.10211687781E+01 0.  0.
     999903    2    3    3    0    0  0.21244412409E-01 -0.83527897684E-01  0.98314390349E-01  0.13227138506E+00  0.20044081539E-01 0.  0.
         14    1    1    2    0    0 -0.18495103329E-01  0.11194776268E-01  0.62806985900E-02  0.22513085920E-01  0.00000000000E+00 0. -1.
     999901    1    3    3    0    0 -0.27493090796E-02  0.72333121416E-01 -0.10459508894E+00  0.88914552902E+00  0.88000000000E+00 0. -1.
        -11    1    4    4    0    0 -0.10993568205E-02 -0.22901568284E-01  0.34724182987E-01  0.41613945023E-01  0.51100000000E-03 0. -1.
         11    1    4    4    0    0  0.22343769229E-01 -0.60626329400E-01  0.63590207362E-01  0.90657440033E-01  0.51100000000E-03 0.  1.
</event>
<event>
 8    1  0.1199892E+005  0.1043930E+01  0.7957747E-01            NaN
         13   -1    0    0    0    0  0.00000000000E+00  0.00000000000E+00  0.74505805969E-08  0.10566000000E+00  0.10566000000E+00 0.  1.
     999900   -1    0    0    0    0 -0.00000000000E+00 -0.00000000000E+00 -0.74505805969E-08  0.93827000000E+00  0.93827000000E+00 0. -1.
     999902    2    1    2    0    0 -0.52331291860E-02  0.41148003924E-02 -0.23225744124E-01  0.10197690312E+01  0.10194827731E+01 0.  0.
     999903    2    3    3    0    0  0.59302837238E-01 -0.10068949847E+00 -0.55172477694E-01  0.13062932012E+00  0.19100140711E-01 0.  0.
         14    1    1    2    0    0  0.52331291860E-02 -0.41148003924E-02  0.23225744124E-01  0.24160968802E-01  0.00000000000E+00 0.  1.
     999901    1    3    3    0    0 -0.64535966424E-01  0.10480429886E+00  0.31946733571E-01  0.88913971107E+00  0.88000000000E+00 0. -1.
        -11    1    4    4    0    0  0.57079789810E-01 -0.84611362213E-01 -0.45705813105E-01  0.11183231864E+00  0.51100000000E-03 0. -1.
         11    1    4    4    0    0  0.22230474280E-02 -0.16078136255E-01 -0.94666645890E-02  0.18797001483E-01  0.51100000000E-03 0.  1.
</event>
<event>
 8    1  0.1199892E+005  0.1043930E+01  0.7957747E-01            NaN
         13   -1    0    0    0    0  0.00000000000E+00  0.00000000000E+00  0.74505805969E-08  0.10566000000E+00  0.10566000000E+00 0.  1.
     999900   -1    0    0    0    0 -0.00000000000E+00 -0.00000000000E+00 -0.74505805969E-08  0.93827000000E+00  0.93827000000E+00 0.  1.
     999902    2    1    2    0    0 -0.16159453445E-01 -0.53974275368E-02  0.14658629384E-01  0.10214547786E+01  0.10212074859E+01 0.  0.
     999903    2    3    3    0    0 -0.81897891963E-01 -0.69833732602E-01 -0.73904231888E-01  0.13223210681E+00  0.20963770240E-01 0.  0.
         14    1    1    2    0    0  0.16159453445E-01  0.53974275368E-02 -0.14658629384E-01  0.22475221358E-01  0.00000000000E+00 0. -1.
     999901    1    3    3    0    0  0.65738438518E-01  0.64436305065E-01  0.88562861272E-01  0.88922267184E+00  0.88000000000E+00 0. -1.
        -11    1    4    4    0    0 -0.37445740668E-01 -0.21837168873E-01 -0.21387665560E-01  0.48339826206E-01  0.51100000000E-03 0.  1.
         11    1    4    4    0    0 -0.44452151295E-01 -0.47996563729E-01 -0.52516566328E-01  0.83892280601E-01  0.51100000000E-03 0. -1.
</event>
<event>
 8    1  0.1199892E+005  0.1043930E+01  0.7957747E-01            NaN
         13   -1    0    0    0    0  0.00000000000E+00  0.00000000000E+00  0.74505805969E-08  0.10566000000E+00  0.10566000000E+00 0. -1.
     999900   -1    0    0    0    0 -0.00000000000E+00 -0.00000000000E+00 -0.74505805969E-08  0.93827000000E+00  0.93827000000E+00 0.  1.
     999902    2    1    2    0    0 -0.14113805631E-01  0.16368787157E-01  0.82816907382E-02  0.10207843070E+01  0.10205218657E+01 0.  0.
     999903    2    3    3    0    0 -0.15604421458E-01  0.11346909893E+00 -0.63675537081E-01  0.13252278296E+00  0.19722565731E-01 0.  0.
         14    1    1    2    0    0  0.14113805631E-01 -0.16368787157E-01 -0.82816907382E-02  0.23145692988E-01  0.00000000000E+00 0.  1.
     999901    1    3    3    0    0  0.14906158272E-02 -0.97100311772E-01  0.71957227819E-01  0.88826152406E+00  0.88000000000E+00 0.  1.
        -11    1    4    4    0    0 -0.18832386300E-01  0.71069590861E-01 -0.43802236984E-01  0.85582957443E-01  0.51100000000E-03 0.  1.
         11    1    4    4    0    0  0.32279648417E-02  0.42399508069E-01 -0.19873300097E-01  0.46939825513E-01  0.51100000000E-03 0. -1.
</event>
<event>
 8    1  0.1199892E+005  0.1043930E+01  0.7957747E-01            NaN
         13   -1    0    0    0    0  0.00000000000E+00  0.00000000000E+00  0.74505805969E-08  0.10566000000E+00  0.10566000000E+00 0. -1.
     999900   -1    0    0    0    0 -0.00000000000E+00 -0.00000000000E+00 -0.74505805969E-08  0.93827000000E+00  0.93827000000E+00 0.  1.
     999902    2    1    2    0    0  0.22946246303E-01 -0.22085395032E-02 -0.38155275724E-02  0.10205640822E+01  0.10202965646E+01 0.  0.
     999903    2    3    3    0    0 -0.11040313477E+00 -0.48359989165E-01 -0.38987429909E-01  0.12862850351E+00  0.22309897012E-01 0.  0.
         14    1    1    2    0    0 -0.22946246303E-01  0.22085395032E-02  0.38155275724E-02  0.23365917847E-01  0.00000000000E+00 0. -1.
     999901    1    3    3    0    0  0.13334938107E+00  0.46151449662E-01  0.35171902337E-01  0.89193557864E+00  0.88000000000E+00 0. -1.
        -11    1    4    4    0    0 -0.55147560853E-01 -0.31662850380E-01 -0.11232668709E-01  0.64577267901E-01  0.51100000000E-03 0.  1.
         11    1    4    4    0    0 -0.55255573918E-01 -0.16697138785E-01 -0.27754761200E-01  0.64051235608E-01  0.51100000000E-03 0. -1.
</event>
<event>
 8    1  0.1199892E+005  0.1043930E+01  0.7957747E-01            NaN
         13   -1    0    0    0    0  0.00000000000E+00  0.00000000000E+00  0.74505805969E-08  0.10566000000E+00  0.10566000000E+00 0. -1.
     999900   -1    0    0    0    0 -0.00000000000E+00 -0.00000000000E+00 -0.74505805969E-08  0.93827000000E+00  0.93827000000E+00 0. -1.
     999902    2    1    2    0    0 -0.19542114635E-01 -0.12737871906E-02  0.12765395150E-01  0.10205532575E+01  0.10202854891E+01 0.  0.
     999903    2    3    3    0    0 -0.46369708293E-01  0.10359465658E+00  0.66101750056E-01  0.13231799751E+00  0.16019000702E-01 0.  0.
         14    1    1    2    0    0  0.19542114635E-01  0.12737871906E-02 -0.12765395150E-01  0.23376742535E-01  0.00000000000E+00 0. -1.
     999901    1    3    3    0    0  0.26827593658E-01 -0.10486844377E+00 -0.53336354907E-01  0.88823525996E+00  0.88000000000E+00 0. -1.
        -11    1    4    4    0    0 -0.36160258298E-01  0.66772422802E-01  0.49548262525E-01  0.90672003217E-01  0.51100000000E-03 0.  1.
         11    1    4    4    0    0 -0.10209449995E-01  0.36822233782E-01  0.16553487531E-01  0.41645994289E-01  0.51100000000E-03 0. -1.
</event>
<event>
 8    1  0.1199892E+005  0.1043930E+01  0.7957747E-01            NaN
         13   -1    0    0    0    0  0.00000000000E+00  0.00000000000E+00  0.74505805969E-08  0.10566000000E+00  0.10566000000E+00 0. -1.
     999900   -1    0    0    0    0 -0.00000000000E+00 -0.00000000000E+00 -0.74505805969E-08  0.93827000000E+00  0.93827000000E+00 0.  1.
     999902    2    1    2    0    0 -0.56393769270E-02 -0.22688942067E-01  0.30973912126E-02  0.10203464359E+01  0.10200738526E+01 0.  0.
     999903    2    3    3    0    0 -0.92504513905E-01 -0.30629154767E-02  0.91315168850E-01  0.13146336751E+00  0.19434258191E-01 0.  0.
         14    1    1    2    0    0  0.56393769270E-02  0.22688942067E-01 -0.30973912126E-02  0.23583564119E-01  0.00000000000E+00 0.  1.
     999901    1    3    3    0    0  0.86865136978E-01 -0.19626026590E-01 -0.88217777637E-01  0.88888306837E+00  0.88000000000E+00 0.  1.
        -11    1    4    4    0    0 -0.62860423375E-01  0.15806755440E-02  0.72815092882E-01  0.96209304302E-01  0.51100000000E-03 0. -1.
         11    1    4    4    0    0 -0.29644090530E-01 -0.46435910206E-02  0.18500075968E-01  0.35254063209E-01  0.51100000000E-03 0.  1.
</event>
<event>
 8    1  0.1199892E+005  0.1043930E+01  0.7957747E-01            NaN
         13   -1    0    0    0    0  0.00000000000E+00  0.00000000000E+00  0.74505805969E-08  0.10566000000E+00  0.10566000000E+00 0. -1.
     999900   -1    0    0    0    0 -0.00000000000E+00 -0.00000000000E+00 -0.74505805969E-08  0.93827000000E+00  0.93827000000E+00 0. -1.
     999902    2    1    2    0    0 -0.20870620184E-01 -0.66938843544E-02  0.94804994727E-02  0.10200496578E+01  0.10197700886E+01 0.  0.
     999903    2    3    3    0    0 -0.12247047942E+00 -0.31551523018E-01 -0.34852348070E-01  0.13274709665E+00  0.20312276323E-01 0.  0.
         14    1    1    2    0    0  0.20870620184E-01  0.66938843544E-02 -0.94804994727E-02  0.23880342227E-01  0.00000000000E+00 0.  1.
     999901    1    3    3    0    0  0.10159985924E+00  0.24857638664E-01  0.44332847543E-01  0.88730256112E+00  0.88000000000E+00 0.  1.
        -11    1    4    4    0    0 -0.79439550089E-02  0.27339185201E-02 -0.86985535259E-03  0.84615897438E-02  0.51100000000E-03 0.  1.
         11    1    4    4    0    0 -0.11452652441E+00 -0.34285441538E-01 -0.33982492718E-01  0.12428550691E+00  0.51100000000E-03 0. -1.
</event>
<event>
 8    1  0.1199892E+005  0.1043930E+01  0.7957747E-01            NaN
         13   -1    0    0    0    0  0.00000000000E+00  0.00000000000E+00  0.74505805969E-08  0.10566000000E+00  0.10566000000E+00 0.  1.
     999900   -1    0    0    0    0 -0.00000000000E+00 -0.00000000000E+00 -0.74505805969E-08  0.93827000000E+00  0.93827000000E+00 0.  1.
     999902    2    1    2    0    0  0.53195177611E-02 -0.44762898048E-02 -0.22582819750E-01  0.10203012424E+01  0.10200276011E+01 0.  0.
     999903    2    3    3    0    0 -0.32634037941E-01  0.94287381092E-01  0.78331212302E-01  0.12823713203E+00  0.18812031918E-01 0.  0.
         14    1    1    2    0    0 -0.53195177611E-02  0.44762898048E-02  0.22582819750E-01  0.23628757638E-01  0.00000000000E+00 0.  1.
     999901    1    3    3    0    0  0.37953555702E-01 -0.98763670896E-01 -0.10091403205E+00  0.89206411033E+00  0.88000000000E+00 0. -1.
        -11    1    4    4    0    0 -0.11481085107E-01  0.42244936858E-01  0.23296522317E-01  0.49592732113E-01  0.51100000000E-03 0. -1.
         11    1    4    4    0    0 -0.21152952834E-01  0.52042444234E-01  0.55034689985E-01  0.78644399916E-01  0.51100000000E-03 0.  1.
</event>
<event>
 8    1  0.1199892E+005  0.1043930E+01  0.7957747E-01            NaN
         13   -1    0    0    0    0  0.00000000000E+00  0.00000000000E+00  0.74505805969E-08  0.10566000000E+00  0.10566000000E+00 0. -1.
     999900   -1    0    0    0    0 -0.00000000000E+00 -0.00000000000E+00 -0.74505805969E-08  0.93827000000E+00  0.93827000000E+00 0.  1.
     999902    2    1    2    0    0  0.19933755013E-01 -0.49529261540E-02  0.12391393380E-01  0.10199418217E+01  0.10196596918E+01 0.  0.
     999903    2    3    3    0    0  0.51157935743E-01 -0.10019646886E+00  0.67071279798E-01  0.13256581808E+00  0.20461495281E-01 0.  0.
         14    1    1    2    0    0 -0.19933755013E-01  0.49529261540E-02 -0.12391393380E-01  0.23988178262E-01  0.00000000000E+00 0.  1.
     999901    1    3    3    0    0 -0.31224180729E-01  0.95243542701E-01 -0.54679886418E-01  0.88737600366E+00  0.88000000000E+00 0.  1.
        -11    1    4    4    0    0  0.67782573904E-02 -0.33832429603E-01  0.20030686665E-01  0.39900721740E-01  0.51100000000E-03 0.  1.
         11    1    4    4    0    0  0.44379678352E-01 -0.66364039252E-01  0.47040593133E-01  0.92665096341E-01  0.51100000000E-03 0. -1.
</event>
<event>
 8    1  0.1199892E+005  0.1043930E+01  0.7957747E-01            NaN
         13   -1    0    0    0    0  0.00000000000E+00  0.00000000000E+00  0.74505805969E-08  0.10566000000E+00  0.10566000000E+00 0.  1.
     999900   -1    0    0    0    0 -0.00000000000E+00 -0.00000000000E+00 -0.74505805969E-08  0.93827000000E+00  0.93827000000E+00 0. -1.
     999902    2    1    2    0    0  0.78061397336E-02 -0.10246781893E-01  0.19445246180E-01  0.10206051215E+01  0.10203385537E+01 0.  0.
     999903    2    3    3    0    0  0.28270739831E-01 -0.11928484250E+00  0.48464913219E-01  0.13316484771E+00  0.18865854680E-01 0.  0.
         14    1    1    2    0    0 -0.78061397336E-02  0.10246781893E-01 -0.19445246180E-01  0.23324878471E-01  0.00000000000E+00 0. -1.
     999901    1    3    3    0    0 -0.20464600097E-01  0.10903806060E+00 -0.29019667039E-01  0.88744027382E+00  0.88000000000E+00 0. -1.
        -11    1    4    4    0    0  0.74612745160E-02 -0.71107171259E-01  0.26063952311E-01  0.76101847238E-01  0.51100000000E-03 0.  1.
         11    1    4    4    0    0  0.20809465315E-01 -0.48177671237E-01  0.22400960908E-01  0.57063000474E-01  0.51100000000E-03 0. -1.
</event>
<event>
 8    1  0.1199892E+005  0.1043930E+01  0.7957747E-01            NaN
         13   -1    0    0    0    0  0.00000000000E+00  0.00000000000E+00  0.74505805969E-08  0.10566000000E+00  0.10566000000E+00 0. -1.
     999900   -1    0    0    0    0 -0.00000000000E+00 -0.00000000000E+00 -0.74505805969E-08  0.93827000000E+00  0.93827000000E+00 0.  1.
     999902    2    1    2    0    0  0.13930584451E-01 -0.13527102411E-01 -0.11426159978E-01  0.10214000019E+01  0.10211514888E+01 0.  0.
     999903    2    3    3    0    0 -0.32755620901E-01 -0.11312010764E+00 -0.58591883230E-01  0.13329923401E+00  0.21600637833E-01 0.  0.
         14    1    1    2    0    0 -0.13930584451E-01  0.13527102411E-01  0.11426159978E-01  0.22529998105E-01  0.00000000000E+00 0. -1.
     999901    1    3    3    0    0  0.46686205352E-01  0.99593005230E-01  0.47165723253E-01  0.88810076788E+00  0.88000000000E+00 0. -1.
        -11    1    4    4    0    0 -0.22373158216E-01 -0.93729714703E-01 -0.39414372346E-01  0.10411326282E+00  0.51100000000E-03 0. -1.
         11    1    4    4    0    0 -0.10382462686E-01 -0.19390392938E-01 -0.19177510885E-01  0.29185971192E-01  0.51100000000E-03 0.  1.
</event>
<event>
 8    1  0.1199892E+005  0.1043930E+01  0.7957747E-01            NaN
         13   -1    0    0    0    0  0.00000000000E+00  0.00000000000E+00  0.74505805969E-08  0.10566000000E+00  0.10566000000E+00 0. -1.
     999900   -1    0    0    0    0 -0.00000000000E+00 -0.00000000000E+00 -0.74505805969E-08  0.93827000000E+00  0.93827000000E+00 0.  1.
     999902    2    1    2    0    0 -0.16088670103E-01  0.77854254873E-02 -0.15357650025E-01  0.10203648654E+01  0.10200927129E+01 0.  0.
     999903    2    3    3    0    0 -0.10787181105E+00 -0.52770690880E-02 -0.75429577034E-01  0.13345821293E+00  0.21384537152E-01 0.  0.
         14    1    1    2    0    0  0.16088670103E-01 -0.77854254873E-02  0.15357650025E-01  0.23565134628E-01  0.00000000000E+00 0.  1.
     999901    1    3    3    0    0  0.91783140951E-01  0.13062494575E-01  0.60071927009E-01  0.88690665244E+00  0.88000000000E+00 0. -1.
        -11    1    4    4    0    0 -0.81014030046E-01 -0.12698820505E-01 -0.59923657060E-01  0.10156593377E+00  0.51100000000E-03 0.  1.
         11    1    4    4    0    0 -0.26857781009E-01  0.74217514170E-02 -0.15505919974E-01  0.31892279161E-01  0.51100000000E-03 0. -1.
</event>
<event>
 8    1  0.1199892E+005  0.1043930E+01  0.7957747E-01            NaN
         13   -1    0    0    0    0  0.00000000000E+00  0.00000000000E+00  0.74505805969E-08  0.10566000000E+00  0.10566000000E+00 0.  1.
     999900   -1    0    0    0    0 -0.00000000000E+00 -0.00000000000E+00 -0.74505805969E-08  0.93827000000E+00  0.93827000000E+00 0. -1.
     999902    2    1    2    0    0  0.21126433104E-01  0.44833329339E-02  0.91485552377E-02  0.10204753094E+01  0.10202057315E+01 0.  0.
     999903    2    3    3    0    0  0.58409540144E-01  0.11676887223E+00 -0.92834791648E-02  0.13236618752E+00  0.19697225997E-01 0.  0.
         14    1    1    2    0    0 -0.21126433104E-01 -0.44833329339E-02 -0.91485552377E-02  0.23454690636E-01  0.00000000000E+00 0.  1.
     999901    1    3    3    0    0 -0.37283107040E-01 -0.11228553930E+00  0.18432034403E-01  0.88810912184E+00  0.88000000000E+00 0.  1.
        -11    1    4    4    0    0  0.15495528264E-01  0.15114646756E-01 -0.23900306092E-03  0.21653687589E-01  0.51100000000E-03 0. -1.
         11    1    4    4    0    0  0.42914011879E-01  0.10165422548E+00 -0.90444761039E-02  0.11071249993E+00  0.51100000000E-03 0.  1.
</event>
<event>
 8    1  0.1199892E+005  0.1043930E+01  0.7957747E-01            NaN
         13   -1    0    0    0    0  0.00000000000E+00  0.00000000000E+00  0.74505805969E-08  0.10566000000E+00  0.10566000000E+00 0.  1.
     999900   -1    0    0    0    0 -0.00000000000E+00 -0.00000000000E+00 -0.74505805969E-08  0.93827000000E+00  0.93827000000E+00 0. -1.
     999902    2    1    2    0    0  0.18193377330E-01 -0.31164496937E-02  0.14907444551E-01  0.10202035772E+01  0.10199276424E+01 0.  0.
     999903    2    3    3    0    0  0.11454800388E+00  0.41323332837E-01  0.49629519537E-01  0.13314961555E+00  0.20901384693E-01 0.  0.
         14    1    1    2    0    0 -0.18193377330E-01  0.31164496937E-02 -0.14907444551E-01  0.23726422832E-01  0.00000000000E+00 0. -1.
     999901    1    3    3    0    0 -0.96354626551E-01 -0.44439782531E-01 -0.34722074987E-01  0.88705396162E+00  0.88000000000E+00 0.  1.
        -11    1    4    4    0    0  0.26918309862E-01  0.11433672879E-01  0.27775370784E-02  0.29381969209E-01  0.51100000000E-03 0. -1.
         11    1    4    4    0    0  0.87629694018E-01  0.29889659958E-01  0.46851982459E-01  0.10376764634E+00  0.51100000000E-03 0.  1.
</event>
<event>
 8    1  0.1199892E+005  0.1043930E+01  0.7957747E-01            NaN
         13   -1    0    0    0    0  0.00000000000E+00  0.00000000000E+00  0.74505805969E-08  0.10566000000E+00  0.10566000000E+00 0. -1.
     999900   -1    0    0    0    0 -0.00000000000E+00 -0.00000000000E+00 -0.74505805969E-08  0.93827000000E+00  0.93827000000E+00 0.  1.
     999902    2    1    2    0    0  0.36859429566E-02  0.22752076489E-01 -0.10459787462E-01  0.10186189290E+01  0.10183044104E+01 0.  0.
     999903    2    3    3    0    0 -0.51937851969E-01 -0.70148920249E-01 -0.92094533435E-01  0.12823202801E+00  0.18537487398E-01 0.  0.
         14    1    1    2    0    0 -0.36859429566E-02 -0.22752076489E-01  0.10459787462E-01  0.25311070973E-01  0.00000000000E+00 0.  1.
     999901    1    3    3    0    0  0.55623794926E-01  0.92900996738E-01  0.81634745973E-01  0.89038690102E+00  0.88000000000E+00 0. -1.
        -11    1    4    4    0    0 -0.22025220188E-01 -0.36445231218E-01 -0.56788073743E-01  0.70982474198E-01  0.51100000000E-03 0.  1.
         11    1    4    4    0    0 -0.29912631781E-01 -0.33703689031E-01 -0.35306459692E-01  0.57249553809E-01  0.51100000000E-03 0. -1.
</event>
<event>
 8    1  0.1199892E+005  0.1043930E+01  0.7957747E-01            NaN
         13   -1    0    0    0    0  0.00000000000E+00  0.00000000000E+00  0.74505805969E-08  0.10566000000E+00  0.10566000000E+00 0.  1.
     999900   -1    0    0    0    0 -0.00000000000E+00 -0.00000000000E+00 -0.74505805969E-08  0.93827000000E+00  0.93827000000E+00 0.  1.
     999902    2    1    2    0    0 -0.10027624500E-01 -0.17065122645E-01 -0.12749096805E-01  0.10203861869E+01  0.10201145325E+01 0.  0.
     999903    2    3    3    0    0 -0.80903635312E-01 -0.34298665950E-01  0.94733555661E-01  0.13085095745E+00  0.20633220906E-01 0.  0.
         14    1    1    2    0    0  0.10027624500E-01  0.17065122645E-01  0.12749096805E-01  0.23543813059E-01  0.00000000000E+00 0.  1.
     999901    1    3    3    0    0  0.70876010811E-01  0.17233543306E-01 -0.10748265247E+00  0.88953522949E+00  0.88000000000E+00 0.  1.
        -11    1    4    4    0    0 -0.53131494286E-01 -0.13384228804E-01  0.65720875438E-01  0.85566277558E-01  0.51100000000E-03 0.  1.
         11    1    4    4    0    0 -0.27772141025E-01 -0.20914437146E-01  0.29012680224E-01  0.45284679893E-01  0.51100000000E-03 0. -1.
</event>
<event>
 8    1  0.1199892E+005  0.1043930E+01  0.7957747E-01            NaN
         13   -1    0    0    0    0  0.00000000000E+00  0.00000000000E+00  0.74505805969E-08  0.10566000000E+00  0.10566000000E+00 0.  1.
     999900   -1    0    0    0    0 -0.00000000000E+00 -0.00000000000E+00 -0.74505805969E-08  0.93827000000E+00  0.93827000000E+00 0.  1.
     999902    2    1    2    0    0  0.81972618362E-02  0.12365073534E-01  0.18691519529E-01  0.10200665751E+01  0.10197874066E+01 0.  0.
     999903    2    3    3    0    0 -0.11572759822E+00  0.26640980088E-01 -0.46771199947E-01  0.12886146960E+00  0.17751461689E-01 0.  0.
         14    1    1    2    0    0 -0.81972618362E-02 -0.12365073534E-01 -0.18691519529E-01  0.23863424889E-01  0.00000000000E+00 0. -1.
     999901    1    3    3    0    0  0.12392486006E+00 -0.14275906554E-01  0.65462719476E-01  0.89120510551E+00  0.88000000000E+00 0. -1.
        -11    1    4    4    0    0 -0.80283795127E-01  0.26696637858E-01 -0.31922354804E-01  0.90429508957E-01  0.51100000000E-03 0. -1.
         11    1    4    4    0    0 -0.35443803097E-01 -0.55657769705E-04 -0.14848845143E-01  0.38431960643E-01  0.51100000000E-03 0.  1.
</event>
<event>
 8    1  0.1199892E+005  0.1043930E+01  0.7957747E-01            NaN
         13   -1    0    0    0    0  0.00000000000E+00  0.00000000000E+00  0.74505805969E-08  0.10566000000E+00  0.10566000000E+00 0. -1.
     999900   -1    0    0    0    0 -0.00000000000E+00 -0.00000000000E+00 -0.74505805969E-08  0.93827000000E+00  0.93827000000E+00 0.  1.
     999902    2    1    2    0    0 -0.15447866372E-01  0.13627663945E-01 -0.11540474625E-01  0.10203178770E+01  0.10200446253E+01 0.  0.
     999903    2    3    3    0    0  0.31253820622E-01  0.26404735270E-01 -0.12382375159E+00  0.13186313112E+00  0.19533369957E-01 0.  0.
         14    1    1    2    0    0  0.15447866372E-01 -0.13627663945E-01  0.11540474625E-01  0.23612123043E-01  0.00000000000E+00 0. -1.
     999901    1    3    3    0    0 -0.46701686994E-01 -0.12777071325E-01  0.11228327696E+00  0.88845474584E+00  0.88000000000E+00 0. -1.
        -11    1    4    4    0    0  0.88689370657E-02  0.59304826619E-02 -0.62922930421E-01  0.63823075475E-01  0.51100000000E-03 0. -1.
         11    1    4    4    0    0  0.22384883556E-01  0.20474252608E-01 -0.60900821169E-01  0.68040055641E-01  0.51100000000E-03 0.  1.
</event>
<event>
 8    1  0.1199892E+005  0.1043930E+01  0.7957747E-01            NaN
         13   -1    0    0    0    0  0.00000000000E+00  0.00000000000E+00  0.74505805969E-08  0.10566000000E+00  0.10566000000E+00 0.  1.
     999900   -1    0    0    0    0 -0.00000000000E+00 -0.00000000000E+00 -0.74505805969E-08  0.93827000000E+00  0.93827000000E+00 0. -1.
     999902    2    1    2    0    0 -0.21306556843E-01  0.70896069606E-02  0.75701964726E-02  0.10202331697E+01  0.10199579309E+01 0.  0.
     999903    2    3    3    0    0  0.28297451557E-01 -0.48712255740E-01  0.11595011975E+00  0.13044633383E+00  0.19954601338E-01 0.  0.
         14    1    1    2    0    0  0.21306556843E-01 -0.70896069606E-02 -0.75701964726E-02  0.23696830294E-01  0.00000000000E+00 0. -1.
     999901    1    3    3    0    0 -0.49604008400E-01  0.55801862701E-01 -0.10837992328E+00  0.88978683588E+00  0.88000000000E+00 0. -1.
        -11    1    4    4    0    0 -0.18185513703E-02  0.59926724006E-03  0.38209264421E-02  0.43042827727E-02  0.51100000000E-03 0. -1.
         11    1    4    4    0    0  0.30116002928E-01 -0.49311522980E-01  0.11212919331E+00  0.12614205106E+00  0.51100000000E-03 0.  1.
</event>
<event>
 8    1  0.1199892E+005  0.1043930E+01  0.7957747E-01            NaN
         13   -1    0    0    0    0  0.00000000000E+00  0.00000000000E+00  0.74505805969E-08  0.10566000000E+00  0.10566000000E+00 0. -1.
     999900   -1    0    0    0    0 -0.00000000000E+00 -0.00000000000E+00 -0.74505805969E-08  0.93827000000E+00  0.93827000000E+00 0. -1.
     999902    2    1    2    0    0 -0.91188073415E-03 -0.24901322085E-01  0.99968754579E-02  0.10170814453E+01  0.10167270143E+01 0.  0.
     999903    2    3    3    0    0 -0.59410593607E-01 -0.77025633196E-01  0.84922099838E-01  0.13042884570E+00  0.18367197586E-01 0.  0.
         14    1    1    2    0    0  0.91188073415E-03  0.24901322085E-01 -0.99968754579E-02  0.26848554653E-01  0.00000000000E+00 0. -1.
     999901    1    3    3    0    0  0.58498712873E-01  0.52124311111E-01 -0.74925224380E-01  0.88665259965E+00  0.88000000000E+00 0. -1.
        -11    1    4    4    0    0 -0.44493054151E-01 -0.60898635980E-01  0.55193685391E-01  0.93460578641E-01  0.51100000000E-03 0.  1.
         11    1    4    4    0    0 -0.14917539457E-01 -0.16126997215E-01  0.29728414447E-01  0.36968267056E-01  0.51100000000E-03 0. -1.
</event>
<event>
 8    1  0.1199892E+005  0.1043930E+01  0.7957747E-01            NaN
         13   -1    0    0    0    0  0.00000000000E+00  0.00000000000E+00  0.74505805969E-08  0.10566000000E+00  0.10566000000E+00 0. -1.
     999900   -1    0    0    0    0 -0.00000000000E+00 -0.00000000000E+00 -0.74505805969E-08  0.93827000000E+00  0.93827000000E+00 0. -1.
     999902    2    1    2    0    0  0.91696026828E-02 -0.64208555054E-02 -0.21297553480E-01  0.10198697676E+01  0.10195859199E+01 0.  0.
     999903    2    3    3    0    0  0.90652472155E-01  0.69889608656E-02 -0.94929092524E-01  0.13294198884E+00  0.19882743984E-01 0.  0.
         14    1    1    2    0    0 -0.91696026828E-02  0.64208555054E-02  0.21297553480E-01  0.24060232397E-01  0.00000000000E+00 0. -1.
     999901    1    3    3    0    0 -0.81482869473E-01 -0.13409816371E-01  0.73631539044E-01  0.88692777876E+00  0.88000000000E+00 0.  1.
        -11    1    4    4    0    0  0.22783294080E-01 -0.27804396729E-03 -0.12760616512E-01  0.26119920604E-01  0.51100000000E-03 0. -1.
         11    1    4    4    0    0  0.67869178076E-01  0.72670048329E-02 -0.82168476012E-01  0.10682206824E+00  0.51100000000E-03 0.  1.
</event>
<event>
 8    1  0.1199892E+005  0.1043930E+01  0.7957747E-01            NaN
         13   -1    0    0    0    0  0.00000000000E+00  0.00000000000E+00  0.74505805969E-08  0.10566000000E+00  0.10566000000E+00 0.  1.
     999900   -1    0    0    0    0 -0.00000000000E+00 -0.00000000000E+00 -0.74505805969E-08  0.93827000000E+00  0.93827000000E+00 0. -1.
     999902    2    1    2    0    0 -0.54528847216E-03  0.94315751593E-02  0.20140732639E-01  0.10216836281E+01  0.10214414006E+01 0.  0.
     999903    2    3    3    0    0 -0.14796655241E-02 -0.81105157501E-01 -0.98506249707E-01  0.12911717155E+00  0.19685699730E-01 0.  0.
         14    1    1    2    0    0  0.54528847216E-03 -0.94315751593E-02 -0.20140732639E-01  0.22246371856E-01  0.00000000000E+00 0. -1.
     999901    1    3    3    0    0  0.93437705196E-03  0.90536732660E-01  0.11864698235E+00  0.89256645660E+00  0.88000000000E+00 0.  1.
        -11    1    4    4    0    0  0.35943742840E-02 -0.26653215145E-01 -0.20366102474E-01  0.33739482139E-01  0.51100000000E-03 0. -1.
         11    1    4    4    0    0 -0.50740398081E-02 -0.54451942357E-01 -0.78140147233E-01  0.95377689409E-01  0.51100000000E-03 0.  1.
</event>
<event>
 7    1  0.1199892E+005  0.1043930E+01  0.7957747E-01            NaN
         13   -1    0    0    0    0  0.00000000000E+00  0.00000000000E+00  0.74505805969E-08  0.10566000000E+00  0.10566000000E+00 0.  1.
     999900   -1    0    0    0    0 -0.00000000000E+00 -0.00000000000E+00 -0.74505805969E-08  0.93827000000E+00  0.93827000000E+00 0.  1.
     999902    2    1    2    0    0  0.56391901088E-02  0.21269990505E-01 -0.10185900655E-02  0.10219015982E+01  0.10216641453E+01 0.  0.
         14    1    1    2    0    0 -0.56391901088E-02 -0.21269990505E-01  0.10185900655E-02  0.22028401823E-01  0.00000000000E+00 0.  1.
     999901    1    3    3    0    0  0.55027582709E-01 -0.33076873916E-01  0.10442868031E+00  0.88849730653E+00  0.88000000000E+00 0. -1.
        -11    1    3    3    0    0 -0.13361754944E-01  0.39587489682E-01 -0.44165124843E-01  0.60799055979E-01  0.51100000000E-03 0. -1.
         11    1    3    3    0    0 -0.36026637656E-01  0.14759374738E-01 -0.61282145535E-01  0.72605235664E-01  0.51100000000E-03 0.  1.
</event>
<event>
 8    1  0.1199892E+005  0.1043930E+01  0.7957747E-01            NaN
         13   -1    0    0    0    0  0.00000000000E+00  0.00000000000E+00  0.74505805969E-08  0.10566000000E+00  0.10566000000E+00 0.  1.
     999900   -1    0    0    0    0 -0.00000000000E+00 -0.00000000000E+00 -0.74505805969E-08  0.93827000000E+00  0.93827000000E+00 0.  1.
     999902    2    1    2    0    0  0.24059088746E-01  0.16250854173E-01 -0.14221629692E-01  0.10116006826E+01  0.10110839511E+01 0.  0.
     999903    2    3    3    0    0  0.42034588262E-01  0.84310515168E-01 -0.81397944837E-01  0.12623754052E+00  0.20859569359E-01 0.  0.
         14    1    1    2    0    0 -0.24059088746E-01 -0.16250854173E-01  0.14221629692E-01  0.32329317403E-01  0.00000000000E+00 0.  1.
     999901    1    3    3    0    0 -0.17975499516E-01 -0.68059660995E-01  0.67176315145E-01  0.88536314208E+00  0.88000000000E+00 0. -1.
        -11    1    4    4    0    0  0.67574555293E-02  0.35476298735E-01 -0.27405574970E-01  0.45338257990E-01  0.51100000000E-03 0.  1.
         11    1    4    4    0    0  0.35277132732E-01  0.48834216433E-01 -0.53992369867E-01  0.80899282527E-01  0.51100000000E-03 0. -1.
</event>
<event>
 8    1  0.1199892E+005  0.1043930E+01  0.7957747E-01            NaN
         13   -1    0    0    0    0  0.00000000000E+00  0.00000000000E+00  0.74505805969E-08  0.10566000000E+00  0.10566000000E+00 0. -1.
     999900   -1    0    0    0    0 -0.00000000000E+00 -0.00000000000E+00 -0.74505805969E-08  0.93827000000E+00  0.93827000000E+00 0. -1.
     999902    2    1    2    0    0 -0.22199748918E-02 -0.21508895277E-01 -0.74549837272E-02  0.10210577975E+01  0.10208015910E+01 0.  0.
     999903    2    3    3    0    0 -0.77463469286E-01 -0.10693929505E+00 -0.86514370215E-02  0.13372394367E+00  0.19252112841E-01 0.  0.
         14    1    1    2    0    0  0.22199748918E-02  0.21508895277E-01  0.74549837272E-02  0.22872202494E-01  0.00000000000E+00 0. -1.
     999901    1    3    3    0    0  0.75243494394E-01  0.85430399778E-01  0.11964532943E-02  0.88733385383E+00  0.88000000000E+00 0. -1.
        -11    1    4    4    0    0 -0.40646883066E-01 -0.39921326465E-01 -0.33027449964E-02  0.57070576090E-01  0.51100000000E-03 0.  1.
         11    1    4    4    0    0 -0.36816586220E-01 -0.67017968589E-01 -0.53486920251E-02  0.76653367585E-01  0.51100000000E-03 0. -1.
</event>
<event>
 8    1  0.1199892E+005  0.1043930E+01  0.7957747E-01            NaN
         13   -1    0    0    0    0  0.00000000000E+00  0.00000000000E+00  0.74505805969E-08  0.10566000000E+00  0.10566000000E+00 0. -1.
     999900   -1    0    0    0    0 -0.00000000000E+00 -0.00000000000E+00 -0.74505805969E-08  0.93827000000E+00  0.93827000000E+00 0. -1.
     999902    2    1    2    0    0  0.40640528142E-02  0.21507283176E-01  0.76147761162E-02  0.10207553464E+01  0.10204922403E+01 0.  0.
     999903    2    3    3    0    0 -0.17820311461E-01 -0.74494448571E-01 -0.10129170194E+00  0.12859175216E+00  0.20219878159E-01 0.  0.
         14    1    1    2    0    0 -0.40640528142E-02 -0.21507283176E-01 -0.76147761162E-02  0.23174653616E-01  0.00000000000E+00 0.  1.
     999901    1    3    3    0    0  0.21884364275E-01  0.96001731747E-01  0.10890647806E+00  0.89216359423E+00  0.88000000000E+00 0.  1.
        -11    1    4    4    0    0 -0.16374942105E-03 -0.43128714792E-01 -0.58262017481E-01  0.72490252141E-01  0.51100000000E-03 0. -1.
         11    1    4    4    0    0 -0.17656562040E-01 -0.31365733779E-01 -0.43029684460E-01  0.56101500018E-01  0.51100000000E-03 0.  1.
</event>
<event>
 8    1  0.1199892E+005  0.1043930E+01  0.7957747E-01            NaN
         13   -1    0    0    0    0  0.00000000000E+00  0.00000000000E+00  0.74505805969E-08  0.10566000000E+00  0.10566000000E+00 0. -1.
     999900   -1    0    0    0    0 -0.00000000000E+00 -0.00000000000E+00 -0.74505805969E-08  0.93827000000E+00  0.93827000000E+00 0.  1.
     999902    2    1    2    0    0  0.13261307849E-01 -0.15213305300E-01 -0.11795087263E-01  0.10205541358E+01  0.10202863878E+01 0.  0.
     999903    2    3    3    0    0 -0.18327664767E-01  0.10367679517E+00 -0.73356343799E-01  0.12986759862E+00  0.19991469269E-01 0.  0.
         14    1    1    2    0    0 -0.13261307849E-01  0.15213305300E-01  0.11795087263E-01  0.23375864210E-01  0.00000000000E+00 0. -1.
     999901    1    3    3    0    0  0.31588972616E-01 -0.11889010047E+00  0.61561256536E-01  0.89068653717E+00  0.88000000000E+00 0.  1.
        -11    1    4    4    0    0 -0.18257319929E-01  0.52157747922E-01 -0.32489468009E-01  0.64106060960E-01  0.51100000000E-03 0.  1.
         11    1    4    4    0    0 -0.70344838104E-04  0.51519047252E-01 -0.40866875790E-01  0.65761537665E-01  0.51100000000E-03 0. -1.
</event>
<event>
 8    1  0.1199892E+005  0.1043930E+01  0.7957747E-01            NaN
         13   -1    0    0    0    0  0.00000000000E+00  0.00000000000E+00  0.74505805969E-08  0.10566000000E+00  0.10566000000E+00 0. -1.
     999900   -1    0    0    0    0 -0.00000000000E+00 -0.00000000000E+00 -0.74505805969E-08  0.93827000000E+00  0.93827000000E+00 0. -1.
     999902    2    1    2    0    0  0.32225014225E-02 -0.22583536852E-01  0.63801377462E-02  0.10202423068E+01  0.10199672827E+01 0.  0.
     999903    2    3    3    0    0  0.55027430298E-02  0.10965548852E+00 -0.62109600363E-01  0.12772720688E+00  0.20050700147E-01 0.  0.
         14    1    1    2    0    0 -0.32225014225E-02  0.22583536852E-01 -0.63801377462E-02  0.23687693215E-01  0.00000000000E+00 0.  1.
     999901    1    3    3    0    0 -0.22802416073E-02 -0.13223902537E+00  0.68489738109E-01  0.89251509991E+00  0.88000000000E+00 0.  1.
        -11    1    4    4    0    0  0.75684860049E-02  0.45404719247E-01 -0.35583702090E-01  0.58183601519E-01  0.51100000000E-03 0.  1.
         11    1    4    4    0    0 -0.20657429751E-02  0.64250769274E-01 -0.26525898273E-01  0.69543605361E-01  0.51100000000E-03 0. -1.
</event>
<event>
 8    1  0.1199892E+005  0.1043930E+01  0.7957747E-01            NaN
         13   -1    0    0    0    0  0.00000000000E+00  0.00000000000E+00  0.74505805969E-08  0.10566000000E+00  0.10566000000E+00 0. -1.
     999900   -1    0    0    0    0 -0.00000000000E+00 -0.00000000000E+00 -0.74505805969E-08  0.93827000000E+00  0.93827000000E+00 0. -1.
     999902    2    1    2    0    0  0.17988820606E-01 -0.10286565464E-01  0.10406817200E-01  0.10207413618E+01  0.10204779345E+01 0.  0.
     999903    2    3    3    0    0 -0.43834683695E-01 -0.93436697251E-01 -0.73663106568E-01  0.13068302544E+00  0.31621258371E-01 0.  0.
         14    1    1    2    0    0 -0.17988820606E-01  0.10286565464E-01 -0.10406817200E-01  0.23188638168E-01  0.00000000000E+00 0.  1.
     999901    1    3    3    0    0  0.61823504301E-01  0.83150131787E-01  0.84069923768E-01  0.89005833639E+00  0.88000000000E+00 0.  1.
        -11    1    4    4    0    0 -0.39638732759E-01 -0.55935211229E-01 -0.36292029348E-01  0.77571576658E-01  0.51100000000E-03 0. -1.
         11    1    4    4    0    0 -0.41959509362E-02 -0.37501486022E-01 -0.37371077220E-01  0.53111448781E-01  0.51100000000E-03 0.  1.
</event>
<event>
 8    1  0.1199892E+005  0.1043930E+01  0.7957747E-01            NaN
         13   -1    0    0    0    0  0.00000000000E+00  0.00000000000E+00  0.74505805969E-08  0.10566000000E+00  0.10566000000E+00 0.  1.
     999900   -1    0    0    0    0 -0.00000000000E+00 -0.00000000000E+00 -0.74505805969E-08  0.93827000000E+00  0.93827000000E+00 0. -1.
     999902    2    1    2    0    0 -0.17382012778E-01  0.19768056706E-02 -0.16135836644E-01  0.10201306859E+01  0.10198530330E+01 0.  0.
     999903    2    3    3    0    0  0.80649720236E-01 -0.93687765040E-01  0.29008931123E-01  0.12839082424E+00  0.18997656995E-01 0.  0.
         14    1    1    2    0    0  0.17382012778E-01 -0.19768056706E-02  0.16135836644E-01  0.23799314130E-01  0.00000000000E+00 0.  1.
     999901    1    3    3    0    0 -0.98031733014E-01  0.95664570710E-01 -0.45144767767E-01  0.89173986163E+00  0.88000000000E+00 0.  1.
        -11    1    4    4    0    0  0.28081427040E-01 -0.25101962452E-01  0.14867247350E-02  0.37698097233E-01  0.51100000000E-03 0. -1.
         11    1    4    4    0    0  0.52568293196E-01 -0.68585802588E-01  0.27522206388E-01  0.90692727005E-01  0.51100000000E-03 0.  1.
</event>
<event>
 8    1  0.1199892E+005  0.1043930E+01  0.7957747E-01            NaN
         13   -1    0    0    0    0  0.00000000000E+00  0.00000000000E+00  0.74505805969E-08  0.10566000000E+00  0.10566000000E+00 0. -1.
     999900   -1    0    0    0    0 -0.00000000000E+00 -0.00000000000E+00 -0.74505805969E-08  0.93827000000E+00  0.93827000000E+00 0.  1.
     999902    2    1    2    0    0 -0.11082110155E-01 -0.37658272956E-02  0.20646633675E-01  0.10201965194E+01  0.10199204185E+01 0.  0.
     999903    2    3    3    0    0  0.12408392838E+00 -0.30224509783E-01 -0.16994738849E-02  0.12920310280E+00  0.19499007376E-01 0.  0.
         14    1    1    2    0    0  0.11082110155E-01  0.37658272956E-02 -0.20646633675E-01  0.23733480630E-01  0.00000000000E+00 0.  1.
     999901    1    3    3    0    0 -0.13516603853E+00  0.26458682487E-01  0.22346107559E-01  0.89099341657E+00  0.88000000000E+00 0.  1.
        -11    1    4    4    0    0  0.43390283558E-01 -0.37690027196E-02 -0.70046246370E-02  0.44116300570E-01  0.51100000000E-03 0.  1.
         11    1    4    4    0    0  0.80693644818E-01 -0.26455507063E-01  0.53051507521E-02  0.85086802228E-01  0.51100000000E-03 0. -1.
</event>
<event>
 8    1  0.1199892E+005  0.1043930E+01  0.7957747E-01            NaN
         13   -1    0    0    0    0  0.00000000000E+00  0.00000000000E+00  0.74505805969E-08  0.10566000000E+00  0.10566000000E+00 0. -1.
     999900   -1    0    0    0    0 -0.00000000000E+00 -0.00000000000E+00 -0.74505805969E-08  0.93827000000E+00  0.93827000000E+00 0.  1.
     999902    2    1    2    0    0  0.68118990382E-02 -0.21801592195E-01 -0.60500353269E-02  0.10203013242E+01  0.10200276849E+01 0.  0.
     999903    2    3    3    0    0  0.14515644092E-01  0.15893379456E-01 -0.12769692571E+00  0.13110043326E+00  0.20433191923E-01 0.  0.
         14    1    1    2    0    0 -0.68118990382E-02  0.21801592195E-01  0.60500353269E-02  0.23628675761E-01  0.00000000000E+00 0. -1.
     999901    1    3    3    0    0 -0.77037450541E-02 -0.37694971652E-01  0.12164689038E+00  0.88920089098E+00  0.88000000000E+00 0. -1.
        -11    1    4    4    0    0  0.18112470957E-01  0.87843671830E-02 -0.10774472988E+00  0.10961028533E+00  0.51100000000E-03 0. -1.
         11    1    4    4    0    0 -0.35968268650E-02  0.71090122734E-02 -0.19952195827E-01  0.21490147936E-01  0.51100000000E-03 0.  1.
</event>
<event>
 8    1  0.1199892E+005  0.1043930E+01  0.7957747E-01            NaN
         13   -1    0    0    0    0  0.00000000000E+00  0.00000000000E+00  0.74505805969E-08  0.10566000000E+00  0.10566000000E+00 0. -1.
     999900   -1    0    0    0    0 -0.00000000000E+00 -0.00000000000E+00 -0.74505805969E-08  0.93827000000E+00  0.93827000000E+00 0.  1.
     999902    2    1    2    0    0  0.87560521243E-02 -0.12032778443E-01 -0.13750441999E-01  0.10236684388E+01  0.10234678997E+01 0.  0.
     999903    2    3    3    0    0 -0.89285392797E-01 -0.77486212620E-01  0.57260409315E-01  0.13297274558E+00  0.20664028635E-01 0.  0.
         14    1    1    2    0    0 -0.87560521243E-02  0.12032778443E-01  0.13750441999E-01  0.20261561170E-01  0.00000000000E+00 0.  1.
     999901    1    3    3    0    0  0.98041444921E-01  0.65453434177E-01 -0.71010851314E-01  0.89069569325E+00  0.88000000000E+00 0. -1.
        -11    1    4    4    0    0 -0.57190008235E-01 -0.50115200110E-01  0.25626589858E-01  0.80244710434E-01  0.51100000000E-03 0. -1.
         11    1    4    4    0    0 -0.32095384562E-01 -0.27371012510E-01  0.31633819457E-01  0.52728035147E-01  0.51100000000E-03 0.  1.
</event>
<event>
 8    1  0.1199892E+005  0.1043930E+01  0.7957747E-01            NaN
         13   -1    0    0    0    0  0.00000000000E+00  0.00000000000E+00  0.74505805969E-08  0.10566000000E+00  0.10566000000E+00 0. -1.
     999900   -1    0    0    0    0 -0.00000000000E+00 -0.00000000000E+00 -0.74505805969E-08  0.93827000000E+00  0.93827000000E+00 0.  1.
     999902    2    1    2    0    0  0.15236904627E-01 -0.13596598398E-01  0.14259480012E-01  0.10190229022E+01  0.10187184654E+01 0.  0.
     999903    2    3    3    0    0 -0.46584471646E-01  0.67673165062E-01 -0.94049521608E-01  0.12652220369E+00  0.20317116990E-01 0.  0.
         14    1    1    2    0    0 -0.15236904627E-01  0.13596598398E-01 -0.14259480012E-01  0.24907097800E-01  0.00000000000E+00 0. -1.
     999901    1    3    3    0    0  0.61821376272E-01 -0.81269763459E-01  0.10830900162E+00  0.89250069851E+00  0.88000000000E+00 0. -1.
        -11    1    4    4    0    0 -0.11116542830E-01  0.14144704226E-01 -0.34660365107E-01  0.39054477496E-01  0.51100000000E-03 0.  1.
         11    1    4    4    0    0 -0.35467928815E-01  0.53528460836E-01 -0.59389156502E-01  0.87467726190E-01  0.51100000000E-03 0. -1.
</event>
<event>
 8    1  0.1199892E+005  0.1043930E+01  0.7957747E-01            NaN
         13   -1    0    0    0    0  0.00000000000E+00  0.00000000000E+00  0.74505805969E-08  0.10566000000E+00  0.10566000000E+00 0.  1.
     999900   -1    0    0    0    0 -0.00000000000E+00 -0.00000000000E+00 -0.74505805969E-08  0.93827000000E+00  0.93827000000E+00 0. -1.
     999902    2    1    2    0    0 -0.16419509009E-01  0.48692182283E-02  0.15685940005E-01  0.10207059117E+01  0.10204416691E+01 0.  0.
     999903    2    3    3    0    0 -0.52466185544E-01 -0.10691501988E+00  0.53556809939E-01  0.13209503988E+00  0.19931020244E-01 0.  0.
         14    1    1    2    0    0  0.16419509009E-01 -0.48692182283E-02 -0.15685940005E-01  0.23224088272E-01  0.00000000000E+00 0. -1.
     999901    1    3    3    0    0  0.36046676535E-01  0.11178423811E+00 -0.37870869935E-01  0.88861087185E+00  0.88000000000E+00 0. -1.
        -11    1    4    4    0    0 -0.29238444917E-01 -0.66554553409E-01  0.22418085620E-01  0.76073825489E-01  0.51100000000E-03 0.  1.
         11    1    4    4    0    0 -0.23227740627E-01 -0.40360466471E-01  0.31138724319E-01  0.56021214389E-01  0.51100000000E-03 0. -1.
</event>
<event>
 8    1  0.1199892E+005  0.1043930E+01  0.7957747E-01            NaN
         13   -1    0    0    0    0  0.00000000000E+00  0.00000000000E+00  0.74505805969E-08  0.10566000000E+00  0.10566000000E+00 0.  1.
     999900   -1    0    0    0    0 -0.00000000000E+00 -0.00000000000E+00 -0.74505805969E-08  0.93827000000E+00  0.93827000000E+00 0.  1.
     999902    2    1    2    0    0 -0.13057702812E-01  0.13673867743E-01 -0.13150540705E-01  0.10208992601E+01  0.10206394487E+01 0.  0.
     999903    2    3    3    0    0  0.13722740386E-01  0.15628925008E-01  0.12621714606E+00  0.12952707824E+00  0.20345002781E-01 0.  0.
         14    1    1    2    0    0  0.13057702812E-01 -0.13673867743E-01  0.13150540705E-01  0.23030739949E-01  0.00000000000E+00 0.  1.
     999901    1    3    3    0    0 -0.26780443198E-01 -0.19550572650E-02 -0.13936768676E+00  0.89137218181E+00  0.88000000000E+00 0.  1.
        -11    1    4    4    0    0  0.12482438219E-01  0.19743373543E-01  0.11743457140E+00  0.11973617559E+00  0.51100000000E-03 0. -1.
         11    1    4    4    0    0  0.12403021671E-02 -0.41144485347E-02  0.87825746568E-02  0.97909026557E-02  0.51100000000E-03 0.  1.
</event>
<event>
 8    1  0.1199892E+005  0.1043930E+01  0.7957747E-01            NaN
         13   -1    0    0    0    0  0.00000000000E+00  0.00000000000E+00  0.74505805969E-08  0.10566000000E+00  0.10566000000E+00 0.  1.
     999900   -1    0    0    0    0 -0.00000000000E+00 -0.00000000000E+00 -0.74505805969E-08  0.93827000000E+00  0.93827000000E+00 0. -1.
     999902    2    1    2    0    0  0.73371561005E-02  0.98141363167E-02  0.19559206078E-01  0.10208494092E+01  0.10205884589E+01 0.  0.
     999903    2    3    3    0    0 -0.34213048970E-01 -0.27020228457E-01  0.12446063781E+00  0.13288122259E+00  0.16320033337E-01 0.  0.
         14    1    1    2    0    0 -0.73371561005E-02 -0.98141363167E-02 -0.19559206078E-01  0.23080590843E-01  0.00000000000E+00 0. -1.
     999901    1    3    3    0    0  0.41550205070E-01  0.36834364774E-01 -0.10490143173E+00  0.88796818656E+00  0.88000000000E+00 0. -1.
        -11    1    4    4    0    0 -0.22774853146E-01 -0.16702008581E-01  0.10047625979E+00  0.10437140858E+00  0.51100000000E-03 0.  1.
         11    1    4    4    0    0 -0.11438195824E-01 -0.10318219876E-01  0.23984378022E-01  0.28509814016E-01  0.51100000000E-03 0. -1.
</event>
<event>
 8    1  0.1199892E+005  0.1043930E+01  0.7957747E-01            NaN
         13   -1    0    0    0    0  0.00000000000E+00  0.00000000000E+00  0.74505805969E-08  0.10566000000E+00  0.10566000000E+00 0. -1.
     999900   -1    0    0    0    0 -0.00000000000E+00 -0.00000000000E+00 -0.74505805969E-08  0.93827000000E+00  0.93827000000E+00 0. -1.
     999902    2    1    2    0    0  0.87244087496E-02 -0.21943630529E-02  0.22118295563E-01  0.10200521957E+01  0.10197726867E+01 0.  0.
     999903    2    3    3    0    0  0.13006207809E+00 -0.10608008162E-02  0.32444070573E-02  0.13152513447E+00  0.19263056987E-01 0.  0.
         14    1    1    2    0    0 -0.87244087496E-02  0.21943630529E-02 -0.22118295563E-01  0.23877804251E-01  0.00000000000E+00 0.  1.
     999901    1    3    3    0    0 -0.12133766934E+00 -0.11335622367E-02  0.18873888506E-01  0.88852706128E+00  0.88000000000E+00 0.  1.
        -11    1    4    4    0    0  0.86313608408E-01 -0.51476978948E-02  0.10082534245E-01  0.87054330208E-01  0.51100000000E-03 0.  1.
         11    1    4    4    0    0  0.43748469679E-01  0.40868970786E-02 -0.68381271879E-02  0.44470804259E-01  0.51100000000E-03 0. -1.
</event>
<event>
 8    1  0.1199892E+005  0.1043930E+01  0.7957747E-01            NaN
         13   -1    0    0    0    0  0.00000000000E+00  0.00000000000E+00  0.74505805969E-08  0.10566000000E+00  0.10566000000E+00 0.  1.
     999900   -1    0    0    0    0 -0.00000000000E+00 -0.00000000000E+00 -0.74505805969E-08  0.93827000000E+00  0.93827000000E+00 0. -1.
     999902    2    1    2    0    0  0.38700176278E-03  0.88235086018E-02  0.20531328550E-01  0.10215796191E+01  0.10213350962E+01 0.  0.
     999903    2    3    3    0    0 -0.84812940565E-01 -0.50363469032E-01  0.86947310101E-01  0.13300029732E+00  0.19988257857E-01 0.  0.
         14    1    1    2    0    0 -0.38700176278E-03 -0.88235086018E-02 -0.20531328550E-01  0.22350380902E-01  0.00000000000E+00 0. -1.
     999901    1    3    3    0    0  0.85199942327E-01  0.59186977633E-01 -0.66415981551E-01  0.88857932178E+00  0.88000000000E+00 0. -1.
        -11    1    4    4    0    0 -0.74738717682E-01 -0.36944218312E-01  0.67214020367E-01  0.10709218852E+00  0.51100000000E-03 0. -1.
         11    1    4    4    0    0 -0.10074222883E-01 -0.13419250720E-01  0.19733289735E-01  0.25908108795E-01  0.51100000000E-03 0.  1.
</event>
<event>
 8    1  0.1199892E+005  0.1043930E+01  0.7957747E-01            NaN
         13   -1    0    0    0    0  0.00000000000E+00  0.00000000000E+00  0.74505805969E-08  0.10566000000E+00  0.10566000000E+00 0.  1.
     999900   -1    0    0    0    0 -0.00000000000E+00 -0.00000000000E+00 -0.74505805969E-08  0.93827000000E+00  0.93827000000E+00 0.  1.
     999902    2    1    2    0    0  0.17181105435E-01  0.82273860081E-02 -0.14146218854E-01  0.10202024681E+01  0.10199265072E+01 0.  0.
     999903    2    3    3    0    0 -0.11475045657E+00 -0.48058945984E-01  0.18899988252E-01  0.12797708171E+00  0.23315109172E-01 0.  0.
         14    1    1    2    0    0 -0.17181105435E-01 -0.82273860081E-02  0.14146218854E-01  0.23727531949E-01  0.00000000000E+00 0.  1.
     999901    1    3    3    0    0  0.13193156201E+00  0.56286331992E-01 -0.33046207106E-01  0.89222538634E+00  0.88000000000E+00 0.  1.
        -11    1    4    4    0    0 -0.94378322313E-01 -0.48654148763E-01  0.15485657061E-01  0.10730592067E+00  0.51100000000E-03 0. -1.
         11    1    4    4    0    0 -0.20372134257E-01  0.59520277879E-03  0.34143311906E-02  0.20671161046E-01  0.51100000000E-03 0.  1.
</event>
<event>
 8    1  0.1199892E+005  0.1043930E+01  0.7957747E-01            NaN
         13   -1    0    0    0    0  0.00000000000E+00  0.00000000000E+00  0.74505805969E-08  0.10566000000E+00  0.10566000000E+00 0.  1.
     999900   -1    0    0    0    0 -0.00000000000E+00 -0.00000000000E+00 -0.74505805969E-08  0.93827000000E+00  0.93827000000E+00 0.  1.
     999902    2    1    2    0    0 -0.12928632098E-01 -0.17071177462E-01  0.10281030472E-01  0.10201755433E+01  0.10198989483E+01 0.  0.
     999903    2    3    3    0    0 -0.63514434414E-01 -0.64053057341E-01 -0.93472001375E-01  0.13139496738E+00  0.19767267831E-01 0.  0.
         14    1    1    2    0    0  0.12928632098E-01  0.17071177462E-01 -0.10281030472E-01  0.23754456749E-01  0.00000000000E+00 0. -1.
     999901    1    3    3    0    0  0.50585802317E-01  0.46981879878E-01  0.10375303185E+00  0.88878057587E+00  0.88000000000E+00 0. -1.
        -11    1    4    4    0    0 -0.49840281683E-01 -0.42250609330E-01 -0.56719450986E-01  0.86524706923E-01  0.51100000000E-03 0. -1.
         11    1    4    4    0    0 -0.13674152732E-01 -0.21802448010E-01 -0.36752550389E-01  0.44870260454E-01  0.51100000000E-03 0.  1.
</event>
<event>
 8    1  0.1199892E+005  0.1043930E+01  0.7957747E-01            NaN
         13   -1    0    0    0    0  0.00000000000E+00  0.00000000000E+00  0.74505805969E-08  0.10566000000E+00  0.10566000000E+00 0.  1.
     999900   -1    0    0    0    0 -0.00000000000E+00 -0.00000000000E+00 -0.74505805969E-08  0.93827000000E+00  0.93827000000E+00 0.  1.
     999902    2    1    2    0    0 -0.62697783209E-02  0.95411589921E-02  0.63919002854E-02  0.10308456496E+01  0.10307626076E+01 0.  0.
     999903    2    3    3    0    0  0.25220343588E-01 -0.31926812151E-01 -0.13099102464E+00  0.13866557338E+00  0.20349585743E-01 0.  0.
         14    1    1    2    0    0  0.62697783209E-02 -0.95411589921E-02 -0.63919002854E-02  0.13084350361E-01  0.00000000000E+00 0. -1.
     999901    1    3    3    0    0 -0.31490121909E-01  0.41467971143E-01  0.13738292493E+00  0.89218007626E+00  0.88000000000E+00 0. -1.
        -11    1    4    4    0    0  0.40332982201E-02 -0.14995090584E-01 -0.73120836654E-01  0.74753181271E-01  0.51100000000E-03 0.  1.
         11    1    4    4    0    0  0.21187045368E-01 -0.16931721567E-01 -0.57870187988E-01  0.63912392111E-01  0.51100000000E-03 0. -1.
</event>
<event>
 8    1  0.1199892E+005  0.1043930E+01  0.7957747E-01            NaN
         13   -1    0    0    0    0  0.00000000000E+00  0.00000000000E+00  0.74505805969E-08  0.10566000000E+00  0.10566000000E+00 0.  1.
     999900   -1    0    0    0    0 -0.00000000000E+00 -0.00000000000E+00 -0.74505805969E-08  0.93827000000E+00  0.93827000000E+00 0.  1.
     999902    2    1    2    0    0  0.96688609405E-03  0.10614629253E-01 -0.19506525876E-01  0.10217014199E+01  0.10214595839E+01 0.  0.
     999903    2    3    3    0    0 -0.64107472370E-01  0.11407912440E+00 -0.13976068681E-01  0.13323636156E+00  0.20803434961E-01 0.  0.
         14    1    1    2    0    0 -0.96688609405E-03 -0.10614629253E-01  0.19506525876E-01  0.22228580132E-01  0.00000000000E+00 0.  1.
     999901    1    3    3    0    0  0.65074358464E-01 -0.10346449515E+00 -0.55304571956E-02  0.88846505831E+00  0.88000000000E+00 0. -1.
        -11    1    4    4    0    0 -0.44008315077E-01  0.65047449037E-01 -0.43071297813E-03  0.78538837888E-01  0.51100000000E-03 0. -1.
         11    1    4    4    0    0 -0.20099157293E-01  0.49031675368E-01 -0.13545355702E-01  0.54697523668E-01  0.51100000000E-03 0.  1.
</event>
<event>
 8    1  0.1199892E+005  0.1043930E+01  0.7957747E-01            NaN
         13   -1    0    0    0    0  0.00000000000E+00  0.00000000000E+00  0.74505805969E-08  0.10566000000E+00  0.10566000000E+00 0. -1.
     999900   -1    0    0    0    0 -0.00000000000E+00 -0.00000000000E+00 -0.74505805969E-08  0.93827000000E+00  0.93827000000E+00 0. -1.
     999902    2    1    2    0    0 -0.17624495372E-01  0.13041449859E-01 -0.11197355609E-02  0.10219765023E+01  0.10217406791E+01 0.  0.
     999903    2    3    3    0    0 -0.11798577564E-01  0.68181030104E-01 -0.11222859538E+00  0.13325860933E+00  0.19358203467E-01 0.  0.
         14    1    1    2    0    0  0.17624495372E-01 -0.13041449859E-01  0.11197355609E-02  0.21953497655E-01  0.00000000000E+00 0.  1.
     999901    1    3    3    0    0 -0.58259178085E-02 -0.55139580245E-01  0.11110885982E+00  0.88871789301E+00  0.88000000000E+00 0.  1.
        -11    1    4    4    0    0 -0.13719843128E-01  0.53848076804E-01 -0.75213724084E-01  0.93515853643E-01  0.51100000000E-03 0.  1.
         11    1    4    4    0    0  0.19212655642E-02  0.14332953299E-01 -0.37014871299E-01  0.39742755691E-01  0.51100000000E-03 0. -1.
</event>
<event>
 8    1  0.1199892E+005  0.1043930E+01  0.7957747E-01            NaN
         13   -1    0    0    0    0  0.00000000000E+00  0.00000000000E+00  0.74505805969E-08  0.10566000000E+00  0.10566000000E+00 0.  1.
     999900   -1    0    0    0    0 -0.00000000000E+00 -0.00000000000E+00 -0.74505805969E-08  0.93827000000E+00  0.93827000000E+00 0.  1.
     999902    2    1    2    0    0  0.14959654980E-01 -0.16171470363E-01 -0.10507970852E-01  0.10195225179E+01  0.10192303171E+01 0.  0.
     999903    2    3    3    0    0 -0.48497019540E-01 -0.11922265817E+00  0.19471521407E-01  0.13073397905E+00  0.12092559896E-01 0.  0.
         14    1    1    2    0    0 -0.14959654980E-01  0.16171470363E-01  0.10507970852E-01  0.24407482095E-01  0.00000000000E+00 0.  1.
     999901    1    3    3    0    0  0.63456674520E-01  0.10305118781E+00 -0.29979492258E-01  0.88878853886E+00  0.88000000000E+00 0.  1.
        -11    1    4    4    0    0 -0.19519201783E-01 -0.60009613251E-01  0.55103855435E-02  0.63346494699E-01  0.51100000000E-03 0.  1.
         11    1    4    4    0    0 -0.28977817757E-01 -0.59213044924E-01  0.13961135863E-01  0.67387484347E-01  0.51100000000E-03 0. -1.
</event>
<event>
 8    1  0.1199892E+005  0.1043930E+01  0.7957747E-01            NaN
         13   -1    0    0    0    0  0.00000000000E+00  0.00000000000E+00  0.74505805969E-08  0.10566000000E+00  0.10566000000E+00 0. -1.
     999900   -1    0    0    0    0 -0.00000000000E+00 -0.00000000000E+00 -0.74505805969E-08  0.93827000000E+00  0.93827000000E+00 0. -1.
     999902    2    1    2    0    0 -0.22186462132E-01  0.55521919482E-02 -0.79765412547E-02  0.10197082918E+01  0.10194205752E+01 0.  0.
     999903    2    3    3    0    0  0.38250729684E-01  0.24112386038E-01 -0.12069161561E+00  0.13026924221E+00  0.18949509407E-01 0.  0.
         14    1    1    2    0    0  0.22186462132E-01 -0.55521919482E-02  0.79765412547E-02  0.24221708192E-01  0.00000000000E+00 0. -1.
     999901    1    3    3    0    0 -0.60437191816E-01 -0.18560194090E-01  0.11271507435E+00  0.88943904960E+00  0.88000000000E+00 0.  1.
        -11    1    4    4    0    0  0.10786098175E-01 -0.14753361665E-02 -0.19506361704E-01  0.22344480271E-01  0.51100000000E-03 0.  1.
         11    1    4    4    0    0  0.27464631509E-01  0.25587722205E-01 -0.10118525390E+00  0.10792476194E+00  0.51100000000E-03 0. -1.
</event>
<event>
 8    1  0.1199892E+005  0.1043930E+01  0.7957747E-01            NaN
         13   -1    0    0    0    0  0.00000000000E+00  0.00000000000E+00  0.74505805969E-08  0.10566000000E+00  0.10566000000E+00 0. -1.
     999900   -1    0    0    0    0 -0.00000000000E+00 -0.00000000000E+00 -0.74505805969E-08  0.93827000000E+00  0.93827000000E+00 0. -1.
     999902    2    1    2    0    0 -0.12385248450E-01 -0.19618759421E-01 -0.72177036522E-02  0.10196321535E+01  0.10193426034E+01 0.  0.
     999903    2    3    3    0    0  0.24942369621E-01 -0.12625260155E+00  0.20964582788E-01  0.13196196210E+00  0.20312668697E-01 0.  0.
         14    1    1    2    0    0  0.12385248450E-01  0.19618759421E-01  0.72177036522E-02  0.24297846538E-01  0.00000000000E+00 0. -1.
     999901    1    3    3    0    0 -0.37327618071E-01  0.10663384213E+00 -0.28182286440E-01  0.88767019136E+00  0.88000000000E+00 0.  1.
        -11    1    4    4    0    0  0.20383171066E-01 -0.86174188980E-01  0.23257412639E-01  0.91556719430E-01  0.51100000000E-03 0.  1.
         11    1    4    4    0    0  0.45591985550E-02 -0.40078412572E-01 -0.22928298508E-02  0.40405242673E-01  0.51100000000E-03 0. -1.
</event>
<event>
 8    1  0.1199892E+005  0.1043930E+01  0.7957747E-01            NaN
         13   -1    0    0    0    0  0.00000000000E+00  0.00000000000E+00  0.74505805969E-08  0.10566000000E+00  0.10566000000E+00 0.  1.
     999900   -1    0    0    0    0 -0.00000000000E+00 -0.00000000000E+00 -0.74505805969E-08  0.93827000000E+00  0.93827000000E+00 0. -1.
     999902    2    1    2    0    0  0.20635023841E-01  0.38276399230E-02  0.12042515899E-01  0.10197333633E+01  0.10194462492E+01 0.  0.
     999903    2    3    3    0    0  0.52218283442E-01  0.11826627175E+00 -0.99258215235E-02  0.13148997857E+00  0.21850225939E-01 0.  0.
         14    1    1    2    0    0 -0.20635023841E-01 -0.38276399230E-02 -0.12042515899E-01  0.24196636656E-01  0.00000000000E+00 0. -1.
     999901    1    3    3    0    0 -0.31583259601E-01 -0.11443863182E+00  0.21968337423E-01  0.88824338477E+00  0.88000000000E+00 0.  1.
        -11    1    4    4    0    0  0.35985142184E-02  0.49425435466E-02 -0.52701145966E-02  0.80878470653E-02  0.51100000000E-03 0.  1.
         11    1    4    4    0    0  0.48619769223E-01  0.11332372820E+00 -0.46557069269E-02  0.12340213151E+00  0.51100000000E-03 0. -1.
</event>
<event>
 8    1  0.1199892E+005  0.1043930E+01  0.7957747E-01            NaN
         13   -1    0    0    0    0  0.00000000000E+00  0.00000000000E+00  0.74505805969E-08  0.10566000000E+00  0.10566000000E+00 0. -1.
     999900   -1    0    0    0    0 -0.00000000000E+00 -0.00000000000E+00 -0.74505805969E-08  0.93827000000E+00  0.93827000000E+00 0.  1.
     999902    2    1    2    0    0 -0.10198463436E-01 -0.14510757137E-01 -0.14999999317E-01  0.10207013386E+01  0.10204369907E+01 0.  0.
     999903    2    3    3    0    0  0.12736647093E+00 -0.13667439258E-01  0.52932341182E-02  0.12978235373E+00  0.20159965268E-01 0.  0.
         14    1    1    2    0    0  0.10198463436E-01  0.14510757137E-01  0.14999999317E-01  0.23228661362E-01  0.00000000000E+00 0. -1.
     999901    1    3    3    0    0 -0.13756493436E+00 -0.84331787889E-03 -0.20293233435E-01  0.89091898491E+00  0.88000000000E+00 0.  1.
        -11    1    4    4    0    0  0.10017143412E+00 -0.18978913225E-01  0.36499185115E-02  0.10202008816E+00  0.51100000000E-03 0.  1.
         11    1    4    4    0    0  0.27195036802E-01  0.53114739668E-02  0.16433156067E-02  0.27762265569E-01  0.51100000000E-03 0. -1.
</event>
<event>
 8    1  0.1199892E+005  0.1043930E+01  0.7957747E-01            NaN
         13   -1    0    0    0    0  0.00000000000E+00  0.00000000000E+00  0.74505805969E-08  0.10566000000E+00  0.10566000000E+00 0.  1.
     999900   -1    0    0    0    0 -0.00000000000E+00 -0.00000000000E+00 -0.74505805969E-08  0.93827000000E+00  0.93827000000E+00 0. -1.
     999902    2    1    2    0    0 -0.56496599816E-02 -0.23249001637E-01 -0.18612770615E-02  0.10199321024E+01  0.10196497411E+01 0.  0.
     999903    2    3    3    0    0  0.10905745294E+00 -0.57284659144E-01 -0.39650676137E-01  0.13103155321E+00  0.20543407761E-01 0.  0.
         14    1    1    2    0    0  0.56496599816E-02  0.23249001637E-01  0.18612770615E-02  0.23997897561E-01  0.00000000000E+00 0. -1.
     999901    1    3    3    0    0 -0.11470711293E+00  0.34035657507E-01  0.37789399075E-01  0.88890054923E+00  0.88000000000E+00 0.  1.
        -11    1    4    4    0    0  0.43960512606E-01 -0.14962338539E-01 -0.77276387081E-02  0.47078400187E-01  0.51100000000E-03 0.  1.
         11    1    4    4    0    0  0.65096940339E-01 -0.42322320604E-01 -0.31923037429E-01  0.83953153023E-01  0.51100000000E-03 0. -1.
</event>
<event>
 8    1  0.1199892E+005  0.1043930E+01  0.7957747E-01            NaN
         13   -1    0    0    0    0  0.00000000000E+00  0.00000000000E+00  0.74505805969E-08  0.10566000000E+00  0.10566000000E+00 0.  1.
     999900   -1    0    0    0    0 -0.00000000000E+00 -0.00000000000E+00 -0.74505805969E-08  0.93827000000E+00  0.93827000000E+00 0. -1.
     999902    2    1    2    0    0  0.23707512041E-01 -0.28734922796E-02  0.31938213980E-02  0.10198363581E+01  0.10195517121E+01 0.  0.
     999903    2    3    3    0    0  0.92098688869E-01 -0.72383765670E-01 -0.58230025479E-01  0.13232189616E+00  0.19919094187E-01 0.  0.
         14    1    1    2    0    0 -0.23707512041E-01  0.28734922796E-02 -0.31938213980E-02  0.24093641903E-01  0.00000000000E+00 0. -1.
     999901    1    3    3    0    0 -0.68391176828E-01  0.69510273391E-01  0.61423846877E-01  0.88751446193E+00  0.88000000000E+00 0.  1.
        -11    1    4    4    0    0  0.10740914122E-01 -0.17883861765E-01 -0.11301120708E-01  0.23731333676E-01  0.51100000000E-03 0. -1.
         11    1    4    4    0    0  0.81357774746E-01 -0.54499903906E-01 -0.46928904771E-01  0.10859056249E+00  0.51100000000E-03 0.  1.
</event>
<event>
 8    1  0.1199892E+005  0.1043930E+01  0.7957747E-01            NaN
         13   -1    0    0    0    0  0.00000000000E+00  0.00000000000E+00  0.74505805969E-08  0.10566000000E+00  0.10566000000E+00 0. -1.
     999900   -1    0    0    0    0 -0.00000000000E+00 -0.00000000000E+00 -0.74505805969E-08  0.93827000000E+00  0.93827000000E+00 0. -1.
     999902    2    1    2    0    0 -0.13101976812E-01 -0.20267642537E-01 -0.27926752222E-02  0.10196351823E+01  0.10193457053E+01 0.  0.
     999903    2    3    3    0    0 -0.55427614058E-01 -0.90091661579E-01 -0.77943601448E-01  0.13266589599E+00  0.18338676802E-01 0.  0.
         14    1    1    2    0    0  0.13101976812E-01  0.20267642537E-01  0.27926752222E-02  0.24294817663E-01  0.00000000000E+00 0.  1.
     999901    1    3    3    0    0  0.42325637246E-01  0.69824019042E-01  0.75150926226E-01  0.88696928634E+00  0.88000000000E+00 0. -1.
        -11    1    4    4    0    0 -0.29389335731E-01 -0.49098457170E-01 -0.30825380810E-01  0.64998898255E-01  0.51100000000E-03 0. -1.
         11    1    4    4    0    0 -0.26038278327E-01 -0.40993204408E-01 -0.47118220638E-01  0.67666997739E-01  0.51100000000E-03 0.  1.
</event>
<event>
 8    1  0.1199892E+005  0.1043930E+01  0.7957747E-01            NaN
         13   -1    0    0    0    0  0.00000000000E+00  0.00000000000E+00  0.74505805969E-08  0.10566000000E+00  0.10566000000E+00 0.  1.
     999900   -1    0    0    0    0 -0.00000000000E+00 -0.00000000000E+00 -0.74505805969E-08  0.93827000000E+00  0.93827000000E+00 0.  1.
     999902    2    1    2    0    0  0.17174572873E-01  0.14773103575E-01 -0.64514315673E-02  0.10203751383E+01  0.10201032258E+01 0.  0.
     999903    2    3    3    0    0 -0.10690283952E+00 -0.64507719036E-01 -0.20446118686E-01  0.12803187226E+00  0.19612588596E-01 0.  0.
         14    1    1    2    0    0 -0.17174572873E-01 -0.14773103575E-01  0.64514315673E-02  0.23554861746E-01  0.00000000000E+00 0.  1.
     999901    1    3    3    0    0  0.12407741240E+00  0.79280822610E-01  0.13994687119E-01  0.89234326600E+00  0.88000000000E+00 0. -1.
        -11    1    4    4    0    0 -0.84465332856E-01 -0.46627720428E-01 -0.23117218764E-01  0.99212920989E-01  0.51100000000E-03 0. -1.
         11    1    4    4    0    0 -0.22437506666E-01 -0.17879998608E-01  0.26711000783E-02  0.28818951269E-01  0.51100000000E-03 0.  1.
</event>
<event>
 8    1  0.1199892E+005  0.1043930E+01  0.7957747E-01            NaN
         13   -1    0    0    0    0  0.00000000000E+00  0.00000000000E+00  0.74505805969E-08  0.10566000000E+00  0.10566000000E+00 0. -1.
     999900   -1    0    0    0    0 -0.00000000000E+00 -0.00000000000E+00 -0.74505805969E-08  0.93827000000E+00  0.93827000000E+00 0. -1.
     999902    2    1    2    0    0 -0.29119328239E-01 -0.13982582526E-02 -0.15450697853E-01  0.10109358419E+01  0.10103972793E+01 0.  0.
     999903    2    3    3    0    0  0.95468485260E-01  0.28251183077E-01  0.60938142996E-01  0.11839090319E+00  0.19763290815E-01 0.  0.
         14    1    1    2    0    0  0.29119328239E-01  0.13982582526E-02  0.15450697853E-01  0.32994158079E-01  0.00000000000E+00 0.  1.
     999901    1    3    3    0    0 -0.12458781350E+00 -0.29649441330E-01 -0.76388840849E-01  0.89254493873E+00  0.88000000000E+00 0. -1.
        -11    1    4    4    0    0  0.49555834139E-01  0.11949610929E-01  0.42233592631E-01  0.66200539016E-01  0.51100000000E-03 0.  1.
         11    1    4    4    0    0  0.45912651121E-01  0.16301572148E-01  0.18704550365E-01  0.52190364176E-01  0.51100000000E-03 0. -1.
</event>
<event>
 8    1  0.1199892E+005  0.1043930E+01  0.7957747E-01            NaN
         13   -1    0    0    0    0  0.00000000000E+00  0.00000000000E+00  0.74505805969E-08  0.10566000000E+00  0.10566000000E+00 0.  1.
     999900   -1    0    0    0    0 -0.00000000000E+00 -0.00000000000E+00 -0.74505805969E-08  0.93827000000E+00  0.93827000000E+00 0.  1.
     999902    2    1    2    0    0  0.11902593967E-01 -0.76478086151E-02 -0.18484802865E-01  0.10206523571E+01  0.10203868803E+01 0.  0.
     999903    2    3    3    0    0  0.69698567109E-01  0.60293926293E-01 -0.93659689798E-01  0.13295436939E+00  0.20284946158E-01 0.  0.
         14    1    1    2    0    0 -0.11902593967E-01  0.76478086151E-02  0.18484802865E-01  0.23277642851E-01  0.00000000000E+00 0.  1.
     999901    1    3    3    0    0 -0.57795973142E-01 -0.67941734908E-01  0.75174886933E-01  0.88769798776E+00  0.88000000000E+00 0. -1.
        -11    1    4    4    0    0  0.51320451792E-01  0.36837300723E-01 -0.73769600490E-01  0.97123584027E-01  0.51100000000E-03 0. -1.
         11    1    4    4    0    0  0.18378115317E-01  0.23456625570E-01 -0.19890089308E-01  0.35830785359E-01  0.51100000000E-03 0.  1.
</event>
<event>
 8    1  0.1199892E+005  0.1043930E+01  0.7957747E-01            NaN
         13   -1    0    0    0    0  0.00000000000E+00  0.00000000000E+00  0.74505805969E-08  0.10566000000E+00  0.10566000000E+00 0.  1.
     999900   -1    0    0    0    0 -0.00000000000E+00 -0.00000000000E+00 -0.74505805969E-08  0.93827000000E+00  0.93827000000E+00 0. -1.
     999902    2    1    2    0    0 -0.64514308104E-02  0.58604612674E-02  0.26987942090E-01  0.10155695525E+01  0.10151734832E+01 0.  0.
     999903    2    3    3    0    0 -0.77426528017E-01 -0.12834621884E-01 -0.94225673216E-01  0.12423363875E+00  0.19897857768E-01 0.  0.
         14    1    1    2    0    0  0.64514308104E-02 -0.58604612674E-02 -0.26987942090E-01  0.28360447529E-01  0.00000000000E+00 0. -1.
     999901    1    3    3    0    0  0.70975097207E-01  0.18695083151E-01  0.12121361531E+00  0.89133591372E+00  0.88000000000E+00 0.  1.
        -11    1    4    4    0    0 -0.48239689947E-01 -0.17509922591E-01 -0.57084861424E-01  0.76763321971E-01  0.51100000000E-03 0. -1.
         11    1    4    4    0    0 -0.29186838071E-01  0.46753007072E-02 -0.37140811793E-01  0.47470316777E-01  0.51100000000E-03 0.  1.
</event>
<event>
 8    1  0.1199892E+005  0.1043930E+01  0.7957747E-01            NaN
         13   -1    0    0    0    0  0.00000000000E+00  0.00000000000E+00  0.74505805969E-08  0.10566000000E+00  0.10566000000E+00 0. -1.
     999900   -1    0    0    0    0 -0.00000000000E+00 -0.00000000000E+00 -0.74505805969E-08  0.93827000000E+00  0.93827000000E+00 0. -1.
     999902    2    1    2    0    0 -0.42717926983E-02  0.75557309290E-02 -0.21481443838E-01  0.10207612773E+01  0.10204983074E+01 0.  0.
     999903    2    3    3    0    0  0.53880009639E-01  0.78148635905E-01 -0.91294147844E-01  0.13327110608E+00  0.20403469140E-01 0.  0.
         14    1    1    2    0    0  0.42717926983E-02 -0.75557309290E-02  0.21481443838E-01  0.23168722712E-01  0.00000000000E+00 0. -1.
     999901    1    3    3    0    0 -0.58151802338E-01 -0.70592904976E-01  0.69812704007E-01  0.88749017121E+00  0.88000000000E+00 0. -1.
        -11    1    4    4    0    0  0.10698322764E-01  0.22411385850E-01 -0.13471403756E-01  0.28257108236E-01  0.51100000000E-03 0.  1.
         11    1    4    4    0    0  0.43181686875E-01  0.55737250056E-01 -0.77822744089E-01  0.10501399785E+00  0.51100000000E-03 0. -1.
</event>
<event>
 8    1  0.1199892E+005  0.1043930E+01  0.7957747E-01            NaN
         13   -1    0    0    0    0  0.00000000000E+00  0.00000000000E+00  0.74505805969E-08  0.10566000000E+00  0.10566000000E+00 0.  1.
     999900   -1    0    0    0    0 -0.00000000000E+00 -0.00000000000E+00 -0.74505805969E-08  0.93827000000E+00  0.93827000000E+00 0.  1.
     999902    2    1    2    0    0  0.71426036144E-03 -0.11987955839E-01 -0.20221303860E-01  0.10204114460E+01  0.10201403809E+01 0.  0.
     999903    2    3    3    0    0  0.57617534106E-01  0.74643383312E-01  0.84553764725E-01  0.12815543649E+00  0.19571966281E-01 0.  0.
         14    1    1    2    0    0 -0.71426036144E-03  0.11987955839E-01  0.20221303860E-01  0.23518554013E-01  0.00000000000E+00 0.  1.
     999901    1    3    3    0    0 -0.56903273745E-01 -0.86631339151E-01 -0.10477506859E+00  0.89225600950E+00  0.88000000000E+00 0.  1.
        -11    1    4    4    0    0  0.17865197066E-01  0.38963397647E-01  0.36402535695E-01  0.56238041826E-01  0.51100000000E-03 0. -1.
         11    1    4    4    0    0  0.39752337040E-01  0.35679985665E-01  0.48151229030E-01  0.71917394664E-01  0.51100000000E-03 0.  1.
</event>
<event>
 8    1  0.1199892E+005  0.1043930E+01  0.7957747E-01            NaN
         13   -1    0    0    0    0  0.00000000000E+00  0.00000000000E+00  0.74505805969E-08  0.10566000000E+00  0.10566000000E+00 0.  1.
     999900   -1    0    0    0    0 -0.00000000000E+00 -0.00000000000E+00 -0.74505805969E-08  0.93827000000E+00  0.93827000000E+00 0. -1.
     999902    2    1    2    0    0 -0.24603274663E-01 -0.18630322171E-02  0.18170233675E-02  0.10191894748E+01  0.10188891461E+01 0.  0.
     999903    2    3    3    0    0  0.11826534801E+00 -0.38740491529E-01 -0.10988058669E-01  0.12681323101E+00  0.21756376167E-01 0.  0.
         14    1    1    2    0    0  0.24603274663E-01  0.18630322171E-02 -0.18170233675E-02  0.24740525198E-01  0.00000000000E+00 0. -1.
     999901    1    3    3    0    0 -0.14286862267E+00  0.36877459312E-01  0.12805082036E-01  0.89237624379E+00  0.88000000000E+00 0.  1.
        -11    1    4    4    0    0  0.48424361307E-01 -0.22122855371E-01  0.42882830538E-02  0.53413387744E-01  0.51100000000E-03 0. -1.
         11    1    4    4    0    0  0.69840986700E-01 -0.16617636158E-01 -0.15276341723E-01  0.73399843271E-01  0.51100000000E-03 0.  1.
</event>
<event>
 8    1  0.1199892E+005  0.1043930E+01  0.7957747E-01            NaN
         13   -1    0    0    0    0  0.00000000000E+00  0.00000000000E+00  0.74505805969E-08  0.10566000000E+00  0.10566000000E+00 0.  1.
     999900   -1    0    0    0    0 -0.00000000000E+00 -0.00000000000E+00 -0.74505805969E-08  0.93827000000E+00  0.93827000000E+00 0.  1.
     999902    2    1    2    0    0  0.22614673891E-01 -0.65307559663E-02  0.45921285779E-02  0.10199474669E+01  0.10196654713E+01 0.  0.
     999903    2    3    3    0    0  0.88970976985E-01 -0.38848583897E-01  0.88271919227E-01  0.13290186023E+00  0.21116948453E-01 0.  0.
         14    1    1    2    0    0 -0.22614673891E-01  0.65307559663E-02 -0.45921285779E-02  0.23982533093E-01  0.00000000000E+00 0.  1.
     999901    1    3    3    0    0 -0.66356303094E-01  0.32317827931E-01 -0.83679790649E-01  0.88704560668E+00  0.88000000000E+00 0.  1.
        -11    1    4    4    0    0  0.26460264419E-01 -0.13852826184E-01  0.40612675105E-01  0.50415244586E-01  0.51100000000E-03 0.  1.
         11    1    4    4    0    0  0.62510712566E-01 -0.24995757714E-01  0.47659244122E-01  0.82486615644E-01  0.51100000000E-03 0. -1.
</event>
<event>
 7    1  0.1199892E+005  0.1043930E+01  0.7957747E-01            NaN
         13   -1    0    0    0    0  0.00000000000E+00  0.00000000000E+00  0.74505805969E-08  0.10566000000E+00  0.10566000000E+00 0. -1.
     999900   -1    0    0    0    0 -0.00000000000E+00 -0.00000000000E+00 -0.74505805969E-08  0.93827000000E+00  0.93827000000E+00 0.  1.
     999902    2    1    2    0    0 -0.21083990342E-01 -0.99332002147E-02  0.35039809027E-05  0.10206232815E+01  0.10203571334E+01 0.  0.
         14    1    1    2    0    0  0.21083990342E-01  0.99332002147E-02 -0.35039809027E-05  0.23306718506E-01  0.00000000000E+00 0.  1.
     999901    1    3    3    0    0  0.89298362967E-01 -0.81822074050E-01  0.11469045046E-01  0.88836962376E+00  0.88000000000E+00 0. -1.
        -11    1    3    3    0    0 -0.11728354332E-01  0.82720812709E-02 -0.84206688993E-03  0.14385820155E-01  0.51100000000E-03 0.  1.
         11    1    3    3    0    0 -0.98653998977E-01  0.63616792564E-01 -0.10623474175E-01  0.11786783758E+00  0.51100000000E-03 0. -1.
</event>
<event>
 8    1  0.1199892E+005  0.1043930E+01  0.7957747E-01            NaN
         13   -1    0    0    0    0  0.00000000000E+00  0.00000000000E+00  0.74505805969E-08  0.10566000000E+00  0.10566000000E+00 0. -1.
     999900   -1    0    0    0    0 -0.00000000000E+00 -0.00000000000E+00 -0.74505805969E-08  0.93827000000E+00  0.93827000000E+00 0. -1.
     999902    2    1    2    0    0  0.70011414228E-02 -0.28462504544E-02 -0.22409789796E-01  0.10202801416E+01  0.10200060057E+01 0.  0.
     999903    2    3    3    0    0 -0.85752600902E-01 -0.73144192422E-01  0.58991135296E-01  0.12889292611E+00  0.20732846198E-01 0.  0.
         14    1    1    2    0    0 -0.70011414228E-02  0.28462504544E-02  0.22409789796E-01  0.23649858384E-01  0.00000000000E+00 0. -1.
     999901    1    3    3    0    0  0.92753742325E-01  0.70297941968E-01 -0.81400925092E-01  0.89138721551E+00  0.88000000000E+00 0. -1.
        -11    1    4    4    0    0 -0.53108617428E-01 -0.35980117060E-01  0.24891350003E-01  0.68810860297E-01  0.51100000000E-03 0. -1.
         11    1    4    4    0    0 -0.32643983474E-01 -0.37164075362E-01  0.34099785292E-01  0.60082065814E-01  0.51100000000E-03 0.  1.
</event>
<event>
 8    1  0.1199892E+005  0.1043930E+01  0.7957747E-01            NaN
         13   -1    0    0    0    0  0.00000000000E+00  0.00000000000E+00  0.74505805969E-08  0.10566000000E+00  0.10566000000E+00 0. -1.
     999900   -1    0    0    0    0 -0.00000000000E+00 -0.00000000000E+00 -0.74505805969E-08  0.93827000000E+00  0.93827000000E+00 0.  1.
     999902    2    1    2    0    0  0.14199353740E-03  0.19318457277E-01 -0.14686815245E-01  0.10196622128E+01  0.10193733873E+01 0.  0.
     999903    2    3    3    0    0  0.14574617293E-01 -0.99396875649E-01 -0.78488489350E-01  0.12928460497E+00  0.21492039542E-01 0.  0.
         14    1    1    2    0    0 -0.14199353740E-03 -0.19318457277E-01  0.14686815245E-01  0.24267787204E-01  0.00000000000E+00 0.  1.
     999901    1    3    3    0    0 -0.14432623756E-01  0.11871533293E+00  0.63801674104E-01  0.89037760783E+00  0.88000000000E+00 0. -1.
        -11    1    4    4    0    0  0.16827740048E-01 -0.46563021428E-01 -0.32743302343E-01  0.59360532081E-01  0.51100000000E-03 0.  1.
         11    1    4    4    0    0 -0.22531227554E-02 -0.52833854221E-01 -0.45745187007E-01  0.69924072888E-01  0.51100000000E-03 0. -1.
</event>
<event>
 8    1  0.1199892E+005  0.1043930E+01  0.7957747E-01            NaN
         13   -1    0    0    0    0  0.00000000000E+00  0.00000000000E+00  0.74505805969E-08  0.10566000000E+00  0.10566000000E+00 0. -1.
     999900   -1    0    0    0    0 -0.00000000000E+00 -0.00000000000E+00 -0.74505805969E-08  0.93827000000E+00  0.93827000000E+00 0. -1.
     999902    2    1    2    0    0  0.41634103703E-02  0.17019360389E-01  0.60126929934E-03  0.10263984816E+01  0.10262487461E+01 0.  0.
     999903    2    3    3    0    0 -0.29177173582E-01  0.13351008920E+00 -0.52357209769E-02  0.13807660584E+00  0.19012757009E-01 0.  0.
         14    1    1    2    0    0 -0.41634103703E-02 -0.17019360389E-01 -0.60126929934E-03  0.17531518438E-01  0.00000000000E+00 0. -1.
     999901    1    3    3    0    0  0.33340583952E-01 -0.11649072881E+00  0.58369902762E-02  0.88832187573E+00  0.88000000000E+00 0. -1.
        -11    1    4    4    0    0 -0.20897188151E-01  0.60958452038E-01  0.34634895324E-02  0.64535898756E-01  0.51100000000E-03 0. -1.
         11    1    4    4    0    0 -0.82799854311E-02  0.72551637161E-01 -0.86992105093E-02  0.73540707081E-01  0.51100000000E-03 0.  1.
</event>
<event>
 8    1  0.1199892E+005  0.1043930E+01  0.7957747E-01            NaN
         13   -1    0    0    0    0  0.00000000000E+00  0.00000000000E+00  0.74505805969E-08  0.10566000000E+00  0.10566000000E+00 0.  1.
     999900   -1    0    0    0    0 -0.00000000000E+00 -0.00000000000E+00 -0.74505805969E-08  0.93827000000E+00  0.93827000000E+00 0.  1.
     999902    2    1    2    0    0  0.11494878948E-01 -0.65774691982E-02  0.24110294712E-01  0.10164217893E+01  0.10160494831E+01 0.  0.
     999903    2    3    3    0    0  0.95170711266E-01 -0.39347097389E-01  0.77141392234E-01  0.13025713716E+00  0.20260035306E-01 0.  0.
         14    1    1    2    0    0 -0.11494878948E-01  0.65774691982E-02 -0.24110294712E-01  0.27508210669E-01  0.00000000000E+00 0. -1.
     999901    1    3    3    0    0 -0.83675832318E-01  0.32769628191E-01 -0.53031097522E-01  0.88616465217E+00  0.88000000000E+00 0.  1.
        -11    1    4    4    0    0  0.53320265407E-01 -0.28380388562E-01  0.54820417834E-01  0.81572277708E-01  0.51100000000E-03 0.  1.
         11    1    4    4    0    0  0.41850445859E-01 -0.10966708828E-01  0.22320974400E-01  0.48684859456E-01  0.51100000000E-03 0. -1.
</event>
<event>
 8    1  0.1199892E+005  0.1043930E+01  0.7957747E-01            NaN
         13   -1    0    0    0    0  0.00000000000E+00  0.00000000000E+00  0.74505805969E-08  0.10566000000E+00  0.10566000000E+00 0. -1.
     999900   -1    0    0    0    0 -0.00000000000E+00 -0.00000000000E+00 -0.74505805969E-08  0.93827000000E+00  0.93827000000E+00 0.  1.
     999902    2    1    2    0    0  0.23272416560E-01 -0.39274588735E-02 -0.40223057301E-02  0.10199882112E+01  0.10197071843E+01 0.  0.
     999903    2    3    3    0    0  0.42081754736E-01  0.10684681366E-01 -0.12279608648E+00  0.13168954703E+00  0.19447916172E-01 0.  0.
         14    1    1    2    0    0 -0.23272416560E-01  0.39274588735E-02  0.40223057301E-02  0.23941788762E-01  0.00000000000E+00 0. -1.
     999901    1    3    3    0    0 -0.18809338176E-01 -0.14612140239E-01  0.11877378075E+00  0.88829866421E+00  0.88000000000E+00 0. -1.
        -11    1    4    4    0    0  0.38791520830E-03 -0.34396541630E-02 -0.10740710196E-01  0.11296268211E-01  0.51100000000E-03 0. -1.
         11    1    4    4    0    0  0.41693839528E-01  0.14124335529E-01 -0.11205537628E+00  0.12039327882E+00  0.51100000000E-03 0.  1.
</event>
<event>
 8    1  0.1199892E+005  0.1043930E+01  0.7957747E-01            NaN
         13   -1    0    0    0    0  0.00000000000E+00  0.00000000000E+00  0.74505805969E-08  0.10566000000E+00  0.10566000000E+00 0.  1.
     999900   -1    0    0    0    0 -0.00000000000E+00 -0.00000000000E+00 -0.74505805969E-08  0.93827000000E+00  0.93827000000E+00 0.  1.
     999902    2    1    2    0    0 -0.18530892623E-01  0.28918367737E-02  0.20651133713E-01  0.10160332972E+01  0.10156502523E+01 0.  0.
     999903    2    3    3    0    0  0.94899482087E-01  0.38245066213E-01 -0.66537732074E-01  0.12377873768E+00  0.20623028921E-01 0.  0.
         14    1    1    2    0    0  0.18530892623E-01 -0.28918367737E-02 -0.20651133713E-01  0.27896702761E-01  0.00000000000E+00 0. -1.
     999901    1    3    3    0    0 -0.11343037471E+00 -0.35353229439E-01  0.87188865787E-01  0.89225455956E+00  0.88000000000E+00 0. -1.
        -11    1    4    4    0    0  0.31474134934E-01  0.18551850485E-01 -0.33628182360E-01  0.49657910710E-01  0.51100000000E-03 0.  1.
         11    1    4    4    0    0  0.63425347153E-01  0.19693215729E-01 -0.32909549714E-01  0.74120826969E-01  0.51100000000E-03 0. -1.
</event>
<event>
 8    1  0.1199892E+005  0.1043930E+01  0.7957747E-01            NaN
         13   -1    0    0    0    0  0.00000000000E+00  0.00000000000E+00  0.74505805969E-08  0.10566000000E+00  0.10566000000E+00 0.  1.
     999900   -1    0    0    0    0 -0.00000000000E+00 -0.00000000000E+00 -0.74505805969E-08  0.93827000000E+00  0.93827000000E+00 0. -1.
     999902    2    1    2    0    0 -0.15829701701E-01 -0.17009722625E-01  0.47603086452E-02  0.10202114280E+01  0.10199356779E+01 0.  0.
     999903    2    3    3    0    0 -0.12947115073E+00 -0.18250828869E-01  0.11321820191E-01  0.13287892396E+00  0.20802720809E-01 0.  0.
         14    1    1    2    0    0  0.15829701701E-01  0.17009722625E-01 -0.47603086452E-02  0.23718572008E-01  0.00000000000E+00 0. -1.
     999901    1    3    3    0    0  0.11364144903E+00  0.12411062448E-02 -0.65615115459E-02  0.88733250403E+00  0.88000000000E+00 0. -1.
        -11    1    4    4    0    0 -0.21544137786E-01  0.41486273514E-02 -0.97171270087E-03  0.21967392390E-01  0.51100000000E-03 0. -1.
         11    1    4    4    0    0 -0.10792701295E+00 -0.22399456221E-01  0.12293532892E-01  0.11091153157E+00  0.51100000000E-03 0.  1.
</event>
<event>
 8    1  0.1199892E+005  0.1043930E+01  0.7957747E-01            NaN
         13   -1    0    0    0    0  0.00000000000E+00  0.00000000000E+00  0.74505805969E-08  0.10566000000E+00  0.10566000000E+00 0. -1.
     999900   -1    0    0    0    0 -0.00000000000E+00 -0.00000000000E+00 -0.74505805969E-08  0.93827000000E+00  0.93827000000E+00 0.  1.
     999902    2    1    2    0    0 -0.21062421145E-01  0.15202892844E-02 -0.52126216087E-02  0.10221789474E+01  0.10219474998E+01 0.  0.
     999903    2    3    3    0    0  0.44581053918E-01  0.56777055960E-01 -0.10865000264E+00  0.13197578641E+00  0.20041972798E-01 0.  0.
         14    1    1    2    0    0  0.21062421145E-01 -0.15202892844E-02  0.52126216087E-02  0.21751052573E-01  0.00000000000E+00 0. -1.
     999901    1    3    3    0    0 -0.65643475064E-01 -0.55256766675E-01  0.10343738103E+00  0.89020316101E+00  0.88000000000E+00 0. -1.
        -11    1    4    4    0    0  0.11869536269E-01  0.29189021636E-01 -0.54515335789E-01  0.62968784588E-01  0.51100000000E-03 0.  1.
         11    1    4    4    0    0  0.32711517649E-01  0.27588034324E-01 -0.54134666853E-01  0.69007001826E-01  0.51100000000E-03 0. -1.
</event>
<event>
 8    1  0.1199892E+005  0.1043930E+01  0.7957747E-01            NaN
         13   -1    0    0    0    0  0.00000000000E+00  0.00000000000E+00  0.74505805969E-08  0.10566000000E+00  0.10566000000E+00 0. -1.
     999900   -1    0    0    0    0 -0.00000000000E+00 -0.00000000000E+00 -0.74505805969E-08  0.93827000000E+00  0.93827000000E+00 0. -1.
     999902    2    1    2    0    0  0.20717378118E-01 -0.12730342009E-02 -0.12184749449E-01  0.10198613795E+01  0.10195773315E+01 0.  0.
     999903    2    3    3    0    0  0.11451952605E+00 -0.32618950353E-01  0.51370314203E-01  0.13204346153E+00  0.24856564143E-01 0.  0.
         14    1    1    2    0    0 -0.20717378118E-01  0.12730342009E-02  0.12184749449E-01  0.24068620469E-01  0.00000000000E+00 0.  1.
     999901    1    3    3    0    0 -0.93802147934E-01  0.31345916152E-01 -0.63555063652E-01  0.88781791801E+00  0.88000000000E+00 0. -1.
        -11    1    4    4    0    0  0.41451817662E-01 -0.24420335030E-01  0.20383718540E-01  0.52252876025E-01  0.51100000000E-03 0. -1.
         11    1    4    4    0    0  0.73067708390E-01 -0.81986153236E-02  0.30986595664E-01  0.79790585500E-01  0.51100000000E-03 0.  1.
</event>
<event>
 8    1  0.1199892E+005  0.1043930E+01  0.7957747E-01            NaN
         13   -1    0    0    0    0  0.00000000000E+00  0.00000000000E+00  0.74505805969E-08  0.10566000000E+00  0.10566000000E+00 0.  1.
     999900   -1    0    0    0    0 -0.00000000000E+00 -0.00000000000E+00 -0.74505805969E-08  0.93827000000E+00  0.93827000000E+00 0.  1.
     999902    2    1    2    0    0 -0.11699965283E-01  0.84690941738E-02 -0.19173280259E-01  0.10199252209E+01  0.10196426957E+01 0.  0.
     999903    2    3    3    0    0 -0.64967364395E-01 -0.10932572146E+00 -0.14549997240E-01  0.13046785309E+00  0.25244533317E-01 0.  0.
         14    1    1    2    0    0  0.11699965283E-01 -0.84690941738E-02  0.19173280259E-01  0.24004779100E-01  0.00000000000E+00 0. -1.
     999901    1    3    3    0    0  0.53267399112E-01  0.11779481563E+00 -0.46232830187E-02  0.88945736781E+00  0.88000000000E+00 0.  1.
        -11    1    4    4    0    0 -0.54442549221E-01 -0.70351910178E-01 -0.57332962252E-02  0.89143223175E-01  0.51100000000E-03 0.  1.
         11    1    4    4    0    0 -0.10524815174E-01 -0.38973811281E-01 -0.88167010149E-02  0.41324629920E-01  0.51100000000E-03 0. -1.
</event>
<event>
 8    1  0.1199892E+005  0.1043930E+01  0.7957747E-01            NaN
         13   -1    0    0    0    0  0.00000000000E+00  0.00000000000E+00  0.74505805969E-08  0.10566000000E+00  0.10566000000E+00 0. -1.
     999900   -1    0    0    0    0 -0.00000000000E+00 -0.00000000000E+00 -0.74505805969E-08  0.93827000000E+00  0.93827000000E+00 0. -1.
     999902    2    1    2    0    0  0.49533642242E-02 -0.52835701789E-03  0.23509757273E-01  0.10198982779E+01  0.10196151106E+01 0.  0.
     999903    2    3    3    0    0 -0.78620329789E-01 -0.24969314934E-01  0.10128571928E+00  0.13218716332E+00  0.20249105451E-01 0.  0.
         14    1    1    2    0    0 -0.49533642242E-02  0.52835701789E-03 -0.23509757273E-01  0.24031722063E-01  0.00000000000E+00 0.  1.
     999901    1    3    3    0    0  0.83573694013E-01  0.24440957916E-01 -0.77775962004E-01  0.88771111462E+00  0.88000000000E+00 0. -1.
        -11    1    4    4    0    0 -0.23380151680E-01 -0.10646522612E-01  0.46225593696E-01  0.52887111566E-01  0.51100000000E-03 0. -1.
         11    1    4    4    0    0 -0.55240178110E-01 -0.14322792322E-01  0.55060125582E-01  0.79300051750E-01  0.51100000000E-03 0.  1.
</event>
<event>
 8    1  0.1199892E+005  0.1043930E+01  0.7957747E-01            NaN
         13   -1    0    0    0    0  0.00000000000E+00  0.00000000000E+00  0.74505805969E-08  0.10566000000E+00  0.10566000000E+00 0.  1.
     999900   -1    0    0    0    0 -0.00000000000E+00 -0.00000000000E+00 -0.74505805969E-08  0.93827000000E+00  0.93827000000E+00 0.  1.
     999902    2    1    2    0    0  0.19392696050E-01 -0.12162565553E-02 -0.15025690152E-01  0.10193672782E+01  0.10190713029E+01 0.  0.
     999903    2    3    3    0    0 -0.27130908972E-02 -0.70816300091E-01 -0.10875323421E+00  0.13138209562E+00  0.20289895937E-01 0.  0.
         14    1    1    2    0    0 -0.19392696050E-01  0.12162565553E-02  0.15025690152E-01  0.24562721849E-01  0.00000000000E+00 0.  1.
     999901    1    3    3    0    0  0.22105786947E-01  0.69600043536E-01  0.93727544061E-01  0.88798518253E+00  0.88000000000E+00 0. -1.
        -11    1    4    4    0    0  0.61013416778E-02 -0.20859362349E-01 -0.22298276060E-01  0.31141830455E-01  0.51100000000E-03 0.  1.
         11    1    4    4    0    0 -0.88144325750E-02 -0.49956937742E-01 -0.86454958153E-01  0.10024026517E+00  0.51100000000E-03 0. -1.
</event>
<event>
 8    1  0.1199892E+005  0.1043930E+01  0.7957747E-01            NaN
         13   -1    0    0    0    0  0.00000000000E+00  0.00000000000E+00  0.74505805969E-08  0.10566000000E+00  0.10566000000E+00 0. -1.
     999900   -1    0    0    0    0 -0.00000000000E+00 -0.00000000000E+00 -0.74505805969E-08  0.93827000000E+00  0.93827000000E+00 0.  1.
     999902    2    1    2    0    0  0.67986031376E-02 -0.15310153090E-01 -0.18086352872E-01  0.10192776583E+01  0.10189794928E+01 0.  0.
     999903    2    3    3    0    0  0.34505696942E-01 -0.93804984414E-01  0.80411515401E-01  0.12987845002E+00  0.20307184647E-01 0.  0.
         14    1    1    2    0    0 -0.67986031376E-02  0.15310153090E-01  0.18086352872E-01  0.24652341724E-01  0.00000000000E+00 0. -1.
     999901    1    3    3    0    0 -0.27707093805E-01  0.78494831324E-01 -0.98497868273E-01  0.88939920826E+00  0.88000000000E+00 0.  1.
        -11    1    4    4    0    0  0.37986565787E-02 -0.20755301383E-01  0.27195732937E-01  0.34425010360E-01  0.51100000000E-03 0. -1.
         11    1    4    4    0    0  0.30707040364E-01 -0.73049683031E-01  0.53215782464E-01  0.95453439661E-01  0.51100000000E-03 0.  1.
</event>
<event>
 8    1  0.1199892E+005  0.1043930E+01  0.7957747E-01            NaN
         13   -1    0    0    0    0  0.00000000000E+00  0.00000000000E+00  0.74505805969E-08  0.10566000000E+00  0.10566000000E+00 0. -1.
     999900   -1    0    0    0    0 -0.00000000000E+00 -0.00000000000E+00 -0.74505805969E-08  0.93827000000E+00  0.93827000000E+00 0. -1.
     999902    2    1    2    0    0  0.59005094086E-02 -0.92939985999E-02 -0.15895079347E-01  0.10245948515E+01  0.10244123983E+01 0.  0.
     999903    2    3    3    0    0  0.11927945522E+00 -0.19968420112E-02 -0.61014818224E-01  0.13614461387E+00  0.24103361341E-01 0.  0.
         14    1    1    2    0    0 -0.59005094086E-02  0.92939985999E-02  0.15895079347E-01  0.19335148531E-01  0.00000000000E+00 0. -1.
     999901    1    3    3    0    0 -0.11337894581E+00 -0.72971565887E-02  0.45119738877E-01  0.88845023760E+00  0.88000000000E+00 0.  1.
        -11    1    4    4    0    0  0.21228679584E-01  0.54948102544E-02 -0.34696438815E-02  0.22206965715E-01  0.51100000000E-03 0. -1.
         11    1    4    4    0    0  0.98050775637E-01 -0.74916522656E-02 -0.57545174342E-01  0.11393764816E+00  0.51100000000E-03 0.  1.
</event>
<event>
 8    1  0.1199892E+005  0.1043930E+01  0.7957747E-01            NaN
         13   -1    0    0    0    0  0.00000000000E+00  0.00000000000E+00  0.74505805969E-08  0.10566000000E+00  0.10566000000E+00 0. -1.
     999900   -1    0    0    0    0 -0.00000000000E+00 -0.00000000000E+00 -0.74505805969E-08  0.93827000000E+00  0.93827000000E+00 0.  1.
     999902    2    1    2    0    0  0.59860325239E-02 -0.20834858302E-01 -0.22267218996E-02  0.10221382081E+01  0.10219058832E+01 0.  0.
     999903    2    3    3    0    0 -0.70213802276E-02 -0.12928850878E+00  0.31494629216E-01  0.13474397965E+00  0.19980242692E-01 0.  0.
         14    1    1    2    0    0 -0.59860325239E-02  0.20834858302E-01  0.22267218996E-02  0.21791791947E-01  0.00000000000E+00 0. -1.
     999901    1    3    3    0    0  0.13007412751E-01  0.10845365048E+00 -0.33721351115E-01  0.88739422841E+00  0.88000000000E+00 0.  1.
        -11    1    4    4    0    0 -0.58562515000E-02 -0.27543073626E-01  0.14166579184E-01  0.31525698615E-01  0.51100000000E-03 0. -1.
         11    1    4    4    0    0 -0.11651287276E-02 -0.10174543516E+00  0.17328050031E-01  0.10321828103E+00  0.51100000000E-03 0.  1.
</event>
<event>
 8    1  0.1199892E+005  0.1043930E+01  0.7957747E-01            NaN
         13   -1    0    0    0    0  0.00000000000E+00  0.00000000000E+00  0.74505805969E-08  0.10566000000E+00  0.10566000000E+00 0.  1.
     999900   -1    0    0    0    0 -0.00000000000E+00 -0.00000000000E+00 -0.74505805969E-08  0.93827000000E+00  0.93827000000E+00 0.  1.
     999902    2    1    2    0    0  0.19280366196E-01  0.16899609783E-01 -0.41438136799E-02  0.10179588521E+01  0.10176274977E+01 0.  0.
     999903    2    3    3    0    0  0.39015234553E-01  0.72677995152E-01 -0.98934783579E-01  0.13089288991E+00  0.23250327317E-01 0.  0.
         14    1    1    2    0    0 -0.19280366196E-01 -0.16899609783E-01  0.41438136799E-02  0.25971147901E-01  0.00000000000E+00 0.  1.
     999901    1    3    3    0    0 -0.19734868357E-01 -0.55778385369E-01  0.94790969899E-01  0.88706596219E+00  0.88000000000E+00 0. -1.
        -11    1    4    4    0    0  0.13749010544E-01  0.41770448103E-01 -0.65086906688E-01  0.78551716524E-01  0.51100000000E-03 0. -1.
         11    1    4    4    0    0  0.25266224009E-01  0.30907547049E-01 -0.33847876890E-01  0.52341173384E-01  0.51100000000E-03 0.  1.
</event>
<event>
 8    1  0.1199892E+005  0.1043930E+01  0.7957747E-01            NaN
         13   -1    0    0    0    0  0.00000000000E+00  0.00000000000E+00  0.74505805969E-08  0.10566000000E+00  0.10566000000E+00 0.  1.
     999900   -1    0    0    0    0 -0.00000000000E+00 -0.00000000000E+00 -0.74505805969E-08  0.93827000000E+00  0.93827000000E+00 0. -1.
     999902    2    1    2    0    0  0.94863858461E-02 -0.71391302249E-02 -0.20179578225E-01  0.10205168824E+01  0.10202482704E+01 0.  0.
     999903    2    3    3    0    0 -0.12709397900E+00  0.16545597897E-01  0.70099228626E-02  0.12925124786E+00  0.15169368717E-01 0.  0.
         14    1    1    2    0    0 -0.94863858461E-02  0.71391302249E-02  0.20179578225E-01  0.23413117566E-01  0.00000000000E+00 0.  1.
     999901    1    3    3    0    0  0.13658036484E+00 -0.23684728122E-01 -0.27189501088E-01  0.89126563458E+00  0.88000000000E+00 0. -1.
        -11    1    4    4    0    0 -0.57636808167E-01  0.42818413961E-02 -0.36680367976E-02  0.57914173018E-01  0.51100000000E-03 0. -1.
         11    1    4    4    0    0 -0.69457170830E-01  0.12263756501E-01  0.10677959660E-01  0.71337074840E-01  0.51100000000E-03 0.  1.
</event>
<event>
 8    1  0.1199892E+005  0.1043930E+01  0.7957747E-01            NaN
         13   -1    0    0    0    0  0.00000000000E+00  0.00000000000E+00  0.74505805969E-08  0.10566000000E+00  0.10566000000E+00 0. -1.
     999900   -1    0    0    0    0 -0.00000000000E+00 -0.00000000000E+00 -0.74505805969E-08  0.93827000000E+00  0.93827000000E+00 0.  1.
     999902    2    1    2    0    0  0.75144820708E-03 -0.13136327772E-01 -0.19419358398E-01  0.10204728207E+01  0.10202031849E+01 0.  0.
     999903    2    3    3    0    0  0.99627197723E-01  0.56268516882E-01  0.56136572693E-01  0.12901214008E+00  0.20027305771E-01 0.  0.
         14    1    1    2    0    0 -0.75144820708E-03  0.13136327772E-01  0.19419358398E-01  0.23457179335E-01  0.00000000000E+00 0. -1.
     999901    1    3    3    0    0 -0.98875749516E-01 -0.69404844654E-01 -0.75555931091E-01  0.89146068058E+00  0.88000000000E+00 0.  1.
        -11    1    4    4    0    0  0.31418332933E-01  0.77969956902E-02  0.13233388340E-01  0.34975541083E-01  0.51100000000E-03 0.  1.
         11    1    4    4    0    0  0.68208864790E-01  0.48471521192E-01  0.42903184353E-01  0.94036598999E-01  0.51100000000E-03 0. -1.
</event>
<event>
 8    1  0.1199892E+005  0.1043930E+01  0.7957747E-01            NaN
         13   -1    0    0    0    0  0.00000000000E+00  0.00000000000E+00  0.74505805969E-08  0.10566000000E+00  0.10566000000E+00 0. -1.
     999900   -1    0    0    0    0 -0.00000000000E+00 -0.00000000000E+00 -0.74505805969E-08  0.93827000000E+00  0.93827000000E+00 0. -1.
     999902    2    1    2    0    0  0.89675953214E-02  0.21366604797E-01 -0.50870241466E-02  0.10202060168E+01  0.10199301394E+01 0.  0.
     999903    2    3    3    0    0  0.82637577639E-02  0.31449526299E-01  0.12487870232E+00  0.13060315550E+00  0.20127879572E-01 0.  0.
         14    1    1    2    0    0 -0.89675953214E-02 -0.21366604797E-01  0.50870241466E-02  0.23723983247E-01  0.00000000000E+00 0.  1.
     999901    1    3    3    0    0  0.70383755748E-03 -0.10082921501E-01 -0.12996572647E+00  0.88960286125E+00  0.88000000000E+00 0. -1.
        -11    1    4    4    0    0 -0.72712133387E-03  0.20807065590E-01  0.45903623394E-01  0.50407007901E-01  0.51100000000E-03 0.  1.
         11    1    4    4    0    0  0.89908790978E-02  0.10642460709E-01  0.78975078929E-01  0.80196147599E-01  0.51100000000E-03 0. -1.
</event>
<event>
 8    1  0.1199892E+005  0.1043930E+01  0.7957747E-01            NaN
         13   -1    0    0    0    0  0.00000000000E+00  0.00000000000E+00  0.74505805969E-08  0.10566000000E+00  0.10566000000E+00 0. -1.
     999900   -1    0    0    0    0 -0.00000000000E+00 -0.00000000000E+00 -0.74505805969E-08  0.93827000000E+00  0.93827000000E+00 0. -1.
     999902    2    1    2    0    0 -0.12643222015E-01  0.18408580218E-01 -0.80103068482E-02  0.10202046569E+01  0.10199287476E+01 0.  0.
     999903    2    3    3    0    0 -0.39064163939E-01  0.12434968812E+00  0.18141650009E-01  0.13307134711E+00  0.19748673850E-01 0.  0.
         14    1    1    2    0    0  0.12643222015E-01 -0.18408580218E-01  0.80103068482E-02  0.23725343082E-01  0.00000000000E+00 0. -1.
     999901    1    3    3    0    0  0.26420941924E-01 -0.10594110790E+00 -0.26151956858E-01  0.88713330980E+00  0.88000000000E+00 0.  1.
        -11    1    4    4    0    0 -0.76122104571E-02  0.85794118397E-02  0.44966992106E-02  0.12330185739E-01  0.51100000000E-03 0.  1.
         11    1    4    4    0    0 -0.31451953482E-01  0.11577027628E+00  0.13644950799E-01  0.12074116138E+00  0.51100000000E-03 0. -1.
</event>
<event>
 8    1  0.1199892E+005  0.1043930E+01  0.7957747E-01            NaN
         13   -1    0    0    0    0  0.00000000000E+00  0.00000000000E+00  0.74505805969E-08  0.10566000000E+00  0.10566000000E+00 0.  1.
     999900   -1    0    0    0    0 -0.00000000000E+00 -0.00000000000E+00 -0.74505805969E-08  0.93827000000E+00  0.93827000000E+00 0.  1.
     999902    2    1    2    0    0  0.88605679143E-02  0.96700604018E-02 -0.19533774802E-01  0.10204015472E+01  0.10201302512E+01 0.  0.
     999903    2    3    3    0    0  0.11712271187E+00 -0.51021322808E-01 -0.22566027554E-01  0.13168712157E+00  0.22613433419E-01 0.  0.
         14    1    1    2    0    0 -0.88605679143E-02 -0.96700604018E-02  0.19533774802E-01  0.23528452774E-01  0.00000000000E+00 0.  1.
     999901    1    3    3    0    0 -0.10826214396E+00  0.60691383210E-01  0.30322527515E-02  0.88871442565E+00  0.88000000000E+00 0. -1.
        -11    1    4    4    0    0  0.10711049429E+00 -0.42473925736E-01 -0.25893123915E-01  0.11809914200E+00  0.51100000000E-03 0.  1.
         11    1    4    4    0    0  0.10012217585E-01 -0.85473970721E-02  0.33270963611E-02  0.13587979573E-01  0.51100000000E-03 0. -1.
</event>
<event>
 8    1  0.1199892E+005  0.1043930E+01  0.7957747E-01            NaN
         13   -1    0    0    0    0  0.00000000000E+00  0.00000000000E+00  0.74505805969E-08  0.10566000000E+00  0.10566000000E+00 0. -1.
     999900   -1    0    0    0    0 -0.00000000000E+00 -0.00000000000E+00 -0.74505805969E-08  0.93827000000E+00  0.93827000000E+00 0.  1.
     999902    2    1    2    0    0 -0.13669883663E-01 -0.13462796448E-01  0.14924462321E-01  0.10196225488E+01  0.10193327670E+01 0.  0.
     999903    2    3    3    0    0 -0.67129663568E-01  0.73753638598E-01 -0.80063997456E-01  0.12861892250E+00  0.13659890191E-01 0.  0.
         14    1    1    2    0    0  0.13669883663E-01  0.13462796448E-01 -0.14924462321E-01  0.24307451185E-01  0.00000000000E+00 0.  1.
     999901    1    3    3    0    0  0.53459779905E-01 -0.87216435046E-01  0.94988459777E-01  0.89100362631E+00  0.88000000000E+00 0. -1.
        -11    1    4    4    0    0 -0.40072741068E-01  0.35337238716E-01 -0.38164068432E-01  0.65660507591E-01  0.51100000000E-03 0.  1.
         11    1    4    4    0    0 -0.27056922500E-01  0.38416399882E-01 -0.41899929025E-01  0.62958414913E-01  0.51100000000E-03 0. -1.
</event>
<event>
 8    1  0.1199892E+005  0.1043930E+01  0.7957747E-01            NaN
         13   -1    0    0    0    0  0.00000000000E+00  0.00000000000E+00  0.74505805969E-08  0.10566000000E+00  0.10566000000E+00 0. -1.
     999900   -1    0    0    0    0 -0.00000000000E+00 -0.00000000000E+00 -0.74505805969E-08  0.93827000000E+00  0.93827000000E+00 0. -1.
     999902    2    1    2    0    0  0.16940409069E-01 -0.15280189807E-01 -0.10829880739E-01  0.10186763275E+01  0.10183632516E+01 0.  0.
     999903    2    3    3    0    0  0.18564399525E-01  0.82912596168E-01 -0.95017008137E-01  0.12922035161E+00  0.21225736756E-01 0.  0.
         14    1    1    2    0    0 -0.16940409069E-01  0.15280189807E-01  0.10829880739E-01  0.25253672540E-01  0.00000000000E+00 0. -1.
     999901    1    3    3    0    0 -0.16239904563E-02 -0.98192785975E-01  0.84187127397E-01  0.88945597585E+00  0.88000000000E+00 0.  1.
        -11    1    4    4    0    0  0.92622671178E-02  0.70531394757E-01 -0.70066638831E-01  0.99850198981E-01  0.51100000000E-03 0. -1.
         11    1    4    4    0    0  0.93021324071E-02  0.12381201411E-01 -0.24950369306E-01  0.29370152625E-01  0.51100000000E-03 0.  1.
</event>
<event>
 8    1  0.1199892E+005  0.1043930E+01  0.7957747E-01            NaN
         13   -1    0    0    0    0  0.00000000000E+00  0.00000000000E+00  0.74505805969E-08  0.10566000000E+00  0.10566000000E+00 0.  1.
     999900   -1    0    0    0    0 -0.00000000000E+00 -0.00000000000E+00 -0.74505805969E-08  0.93827000000E+00  0.93827000000E+00 0.  1.
     999902    2    1    2    0    0  0.15703873505E-01  0.16611028569E-01 -0.35535462293E-02  0.10207963534E+01  0.10205341883E+01 0.  0.
     999903    2    3    3    0    0  0.11785929766E+00  0.58640574317E-01 -0.15365832181E-01  0.13381171799E+00  0.18437355325E-01 0.  0.
         14    1    1    2    0    0 -0.15703873505E-01 -0.16611028569E-01  0.35535462293E-02  0.23133646577E-01  0.00000000000E+00 0.  1.
     999901    1    3    3    0    0 -0.10215542415E+00 -0.42029545749E-01  0.11812285951E-01  0.88698463544E+00  0.88000000000E+00 0.  1.
        -11    1    4    4    0    0  0.88654073230E-01  0.46547544565E-01 -0.19230905533E-01  0.10196228447E+00  0.51100000000E-03 0. -1.
         11    1    4    4    0    0  0.29205224427E-01  0.12093029752E-01  0.38650733522E-02  0.31849433519E-01  0.51100000000E-03 0.  1.
</event>
<event>
 8    1  0.1199892E+005  0.1043930E+01  0.7957747E-01            NaN
         13   -1    0    0    0    0  0.00000000000E+00  0.00000000000E+00  0.74505805969E-08  0.10566000000E+00  0.10566000000E+00 0. -1.
     999900   -1    0    0    0    0 -0.00000000000E+00 -0.00000000000E+00 -0.74505805969E-08  0.93827000000E+00  0.93827000000E+00 0. -1.
     999902    2    1    2    0    0 -0.84099104940E-02  0.67682765899E-03 -0.22255434150E-01  0.10201289698E+01  0.10198512764E+01 0.  0.
     999903    2    3    3    0    0  0.76038459349E-01  0.10345526316E+00 -0.42679960285E-02  0.12995006535E+00  0.19595022753E-01 0.  0.
         14    1    1    2    0    0  0.84099104940E-02 -0.67682765899E-03  0.22255434150E-01  0.23801030218E-01  0.00000000000E+00 0. -1.
     999901    1    3    3    0    0 -0.84448369843E-01 -0.10277843550E+00 -0.17987438122E-01  0.89017890444E+00  0.88000000000E+00 0.  1.
        -11    1    4    4    0    0  0.15910541589E-01  0.10881459257E-01 -0.32680212106E-02  0.19557417336E-01  0.51100000000E-03 0. -1.
         11    1    4    4    0    0  0.60127917761E-01  0.92573803907E-01 -0.99997481795E-03  0.11039264801E+00  0.51100000000E-03 0.  1.
</event>
<event>
 8    1  0.1199892E+005  0.1043930E+01  0.7957747E-01            NaN
         13   -1    0    0    0    0  0.00000000000E+00  0.00000000000E+00  0.74505805969E-08  0.10566000000E+00  0.10566000000E+00 0. -1.
     999900   -1    0    0    0    0 -0.00000000000E+00 -0.00000000000E+00 -0.74505805969E-08  0.93827000000E+00  0.93827000000E+00 0. -1.
     999902    2    1    2    0    0 -0.54882953540E-02 -0.17659716352E-01  0.14171575114E-01  0.10206314913E+01  0.10203655328E+01 0.  0.
     999903    2    3    3    0    0 -0.11582751031E+00  0.55551491068E-01 -0.11346015543E-01  0.13035862823E+00  0.19043623088E-01 0.  0.
         14    1    1    2    0    0  0.54882953540E-02  0.17659716352E-01 -0.14171575114E-01  0.23298508724E-01  0.00000000000E+00 0. -1.
     999901    1    3    3    0    0  0.11033921495E+00 -0.73211207421E-01  0.25517590656E-01  0.89027286305E+00  0.88000000000E+00 0.  1.
        -11    1    4    4    0    0 -0.94614722184E-01  0.51236153308E-01 -0.14150005560E-01  0.10852452644E+00  0.51100000000E-03 0.  1.
         11    1    4    4    0    0 -0.21212788125E-01  0.43153377600E-02  0.28039900176E-02  0.21834101792E-01  0.51100000000E-03 0. -1.
</event>
<event>
 8    1  0.1199892E+005  0.1043930E+01  0.7957747E-01            NaN
         13   -1    0    0    0    0  0.00000000000E+00  0.00000000000E+00  0.74505805969E-08  0.10566000000E+00  0.10566000000E+00 0.  1.
     999900   -1    0    0    0    0 -0.00000000000E+00 -0.00000000000E+00 -0.74505805969E-08  0.93827000000E+00  0.93827000000E+00 0.  1.
     999902    2    1    2    0    0 -0.23105321339E-03  0.21298305648E-01  0.10659504072E-01  0.10201120186E+01  0.10198339249E+01 0.  0.
     999903    2    3    3    0    0 -0.87850470739E-02 -0.12483947592E+00  0.17638133641E-01  0.12799200245E+00  0.20218237663E-01 0.  0.
         14    1    1    2    0    0  0.23105321339E-03 -0.21298305648E-01 -0.10659504072E-01  0.23817981361E-01  0.00000000000E+00 0. -1.
     999901    1    3    3    0    0  0.85539938605E-02  0.14613778156E+00 -0.69786295693E-02  0.89212001619E+00  0.88000000000E+00 0. -1.
        -11    1    4    4    0    0 -0.14078270985E-01 -0.75281640631E-01  0.60955347631E-02  0.76830591531E-01  0.51100000000E-03 0. -1.
         11    1    4    4    0    0  0.52932239108E-02 -0.49557835285E-01  0.11542598878E-01  0.51161410920E-01  0.51100000000E-03 0.  1.
</event>
<event>
 8    1  0.1199892E+005  0.1043930E+01  0.7957747E-01            NaN
         13   -1    0    0    0    0  0.00000000000E+00  0.00000000000E+00  0.74505805969E-08  0.10566000000E+00  0.10566000000E+00 0.  1.
     999900   -1    0    0    0    0 -0.00000000000E+00 -0.00000000000E+00 -0.74505805969E-08  0.93827000000E+00  0.93827000000E+00 0.  1.
     999902    2    1    2    0    0  0.18414486498E-01 -0.36860434456E-02  0.15787814228E-01  0.10193956301E+01  0.10191003461E+01 0.  0.
     999903    2    3    3    0    0 -0.12096661347E+00  0.29725259511E-01 -0.15639650876E-01  0.12724592753E+00  0.20746439872E-01 0.  0.
         14    1    1    2    0    0 -0.18414486498E-01  0.36860434456E-02 -0.15787814228E-01  0.24534369919E-01  0.00000000000E+00 0. -1.
     999901    1    3    3    0    0  0.13938109997E+00 -0.33411302956E-01  0.31427465104E-01  0.89214970255E+00  0.88000000000E+00 0.  1.
        -11    1    4    4    0    0 -0.87699828514E-01  0.18890899866E-01 -0.21298385505E-02  0.89738081952E-01  0.51100000000E-03 0.  1.
         11    1    4    4    0    0 -0.33266784954E-01  0.10834359645E-01 -0.13509812326E-01  0.37507845581E-01  0.51100000000E-03 0. -1.
</event>
<event>
 8    1  0.1199892E+005  0.1043930E+01  0.7957747E-01            NaN
         13   -1    0    0    0    0  0.00000000000E+00  0.00000000000E+00  0.74505805969E-08  0.10566000000E+00  0.10566000000E+00 0. -1.
     999900   -1    0    0    0    0 -0.00000000000E+00 -0.00000000000E+00 -0.74505805969E-08  0.93827000000E+00  0.93827000000E+00 0.  1.
     999902    2    1    2    0    0  0.85248456846E-02  0.18184421724E-01 -0.12082105469E-01  0.10204923495E+01  0.10202231677E+01 0.  0.
     999903    2    3    3    0    0 -0.10236000952E+00 -0.54464894820E-01 -0.54164272042E-01  0.12956907390E+00  0.20257843594E-01 0.  0.
         14    1    1    2    0    0 -0.85248456846E-02 -0.18184421724E-01  0.12082105469E-01  0.23437650478E-01  0.00000000000E+00 0.  1.
     999901    1    3    3    0    0  0.11088485521E+00  0.72649316544E-01  0.42082166573E-01  0.89092327563E+00  0.88000000000E+00 0. -1.
        -11    1    4    4    0    0 -0.40487569073E-01 -0.25350340905E-01 -0.12083083566E-01  0.49276211937E-01  0.51100000000E-03 0. -1.
         11    1    4    4    0    0 -0.61872440449E-01 -0.29114553916E-01 -0.42081188476E-01  0.80292861958E-01  0.51100000000E-03 0.  1.
</event>
<event>
 8    1  0.1199892E+005  0.1043930E+01  0.7957747E-01            NaN
         13   -1    0    0    0    0  0.00000000000E+00  0.00000000000E+00  0.74505805969E-08  0.10566000000E+00  0.10566000000E+00 0.  1.
     999900   -1    0    0    0    0 -0.00000000000E+00 -0.00000000000E+00 -0.74505805969E-08  0.93827000000E+00  0.93827000000E+00 0.  1.
     999902    2    1    2    0    0 -0.14617575050E-01  0.18520913502E-01 -0.43001214446E-02  0.10199469063E+01  0.10196648974E+01 0.  0.
     999903    2    3    3    0    0  0.55874216289E-01  0.11615505161E+00 -0.18179119325E-01  0.13163719449E+00  0.19594553693E-01 0.  0.
         14    1    1    2    0    0  0.14617575050E-01 -0.18520913502E-01  0.43001214446E-02  0.23983093665E-01  0.00000000000E+00 0. -1.
     999901    1    3    3    0    0 -0.70491791339E-01 -0.97634138107E-01  0.13878997881E-01  0.88830971184E+00  0.88000000000E+00 0. -1.
        -11    1    4    4    0    0  0.27642590336E-01  0.37161570937E-01 -0.32604747897E-02  0.46432606774E-01  0.51100000000E-03 0. -1.
         11    1    4    4    0    0  0.28231625953E-01  0.78993480672E-01 -0.14918644536E-01  0.85204587719E-01  0.51100000000E-03 0.  1.
</event>
<event>
 8    1  0.1199892E+005  0.1043930E+01  0.7957747E-01            NaN
         13   -1    0    0    0    0  0.00000000000E+00  0.00000000000E+00  0.74505805969E-08  0.10566000000E+00  0.10566000000E+00 0.  1.
     999900   -1    0    0    0    0 -0.00000000000E+00 -0.00000000000E+00 -0.74505805969E-08  0.93827000000E+00  0.93827000000E+00 0.  1.
     999902    2    1    2    0    0 -0.12167062927E-01  0.51814861315E-02 -0.19455479598E-01  0.10204055254E+01  0.10201343222E+01 0.  0.
     999903    2    3    3    0    0  0.64744315293E-01  0.99234616527E-01  0.45776086580E-01  0.12966622085E+00  0.26048862699E-01 0.  0.
         14    1    1    2    0    0  0.12167062927E-01 -0.51814861315E-02  0.19455479598E-01  0.23524474600E-01  0.00000000000E+00 0.  1.
     999901    1    3    3    0    0 -0.76911378220E-01 -0.94053130396E-01 -0.65231566178E-01  0.89073930455E+00  0.88000000000E+00 0.  1.
        -11    1    4    4    0    0  0.21079283502E-01  0.20772238718E-01  0.21693663741E-01  0.36697387670E-01  0.51100000000E-03 0.  1.
         11    1    4    4    0    0  0.43665031792E-01  0.78462377809E-01  0.24082422839E-01  0.92968833184E-01  0.51100000000E-03 0. -1.
</event>
<event>
 8    1  0.1199892E+005  0.1043930E+01  0.7957747E-01            NaN
         13   -1    0    0    0    0  0.00000000000E+00  0.00000000000E+00  0.74505805969E-08  0.10566000000E+00  0.10566000000E+00 0. -1.
     999900   -1    0    0    0    0 -0.00000000000E+00 -0.00000000000E+00 -0.74505805969E-08  0.93827000000E+00  0.93827000000E+00 0. -1.
     999902    2    1    2    0    0 -0.73266826440E-02 -0.22487475988E-01  0.51397148197E-02  0.10197270348E+01  0.10194397687E+01 0.  0.
     999903    2    3    3    0    0 -0.11263461685E+00  0.42825170648E-01 -0.43446604600E-01  0.12971797125E+00  0.20459532252E-01 0.  0.
         14    1    1    2    0    0  0.73266826440E-02  0.22487475988E-01 -0.51397148197E-02  0.24202965176E-01  0.00000000000E+00 0. -1.
     999901    1    3    3    0    0  0.10530793420E+00 -0.65312646637E-01  0.48586319419E-01  0.89000906358E+00  0.88000000000E+00 0.  1.
        -11    1    4    4    0    0 -0.35020056207E-01  0.21089339549E-01 -0.79652569142E-02  0.41651782892E-01  0.51100000000E-03 0. -1.
         11    1    4    4    0    0 -0.77614560638E-01  0.21735831099E-01 -0.35481347685E-01  0.88066188354E-01  0.51100000000E-03 0.  1.
</event>
<event>
 8    1  0.1199892E+005  0.1043930E+01  0.7957747E-01            NaN
         13   -1    0    0    0    0  0.00000000000E+00  0.00000000000E+00  0.74505805969E-08  0.10566000000E+00  0.10566000000E+00 0. -1.
     999900   -1    0    0    0    0 -0.00000000000E+00 -0.00000000000E+00 -0.74505805969E-08  0.93827000000E+00  0.93827000000E+00 0. -1.
     999902    2    1    2    0    0 -0.24327175287E-01 -0.55835472935E-02  0.10435089370E-01  0.10168767461E+01  0.10165168165E+01 0.  0.
     999903    2    3    3    0    0 -0.12536511660E+00  0.25084494202E-01 -0.13585828518E-01  0.13023916575E+00  0.20785120847E-01 0.  0.
         14    1    1    2    0    0  0.24327175287E-01  0.55835472935E-02 -0.10435089370E-01  0.27053253926E-01  0.00000000000E+00 0.  1.
     999901    1    3    3    0    0  0.10103794131E+00 -0.30668041495E-01  0.24020917888E-01  0.88663758033E+00  0.88000000000E+00 0. -1.
        -11    1    4    4    0    0 -0.51656510425E-01  0.18665606214E-01  0.45343840385E-03  0.54929651847E-01  0.51100000000E-03 0. -1.
         11    1    4    4    0    0 -0.73708606173E-01  0.64188879875E-02 -0.14039266922E-01  0.75309513898E-01  0.51100000000E-03 0.  1.
</event>
<event>
 8    1  0.1199892E+005  0.1043930E+01  0.7957747E-01            NaN
         13   -1    0    0    0    0  0.00000000000E+00  0.00000000000E+00  0.74505805969E-08  0.10566000000E+00  0.10566000000E+00 0.  1.
     999900   -1    0    0    0    0 -0.00000000000E+00 -0.00000000000E+00 -0.74505805969E-08  0.93827000000E+00  0.93827000000E+00 0. -1.
     999902    2    1    2    0    0  0.14971290205E-01  0.18871589721E-01  0.15985673717E-02  0.10197880894E+01  0.10195022881E+01 0.  0.
     999903    2    3    3    0    0 -0.53297365090E-01  0.59601148301E-01  0.10103314857E+00  0.13062739405E+00  0.21515412222E-01 0.  0.
         14    1    1    2    0    0 -0.14971290205E-01 -0.18871589721E-01 -0.15985673717E-02  0.24141910583E-01  0.00000000000E+00 0.  1.
     999901    1    3    3    0    0  0.68268655295E-01 -0.40729558580E-01 -0.99434581199E-01  0.88916069536E+00  0.88000000000E+00 0. -1.
        -11    1    4    4    0    0 -0.41377098855E-02  0.10124220054E-01  0.25848943563E-01  0.28072218991E-01  0.51100000000E-03 0.  1.
         11    1    4    4    0    0 -0.49159655204E-01  0.49476928247E-01  0.75184205009E-01  0.10255517506E+00  0.51100000000E-03 0. -1.
</event>
<event>
 8    1  0.1199892E+005  0.1043930E+01  0.7957747E-01            NaN
         13   -1    0    0    0    0  0.00000000000E+00  0.00000000000E+00  0.74505805969E-08  0.10566000000E+00  0.10566000000E+00 0.  1.
     999900   -1    0    0    0    0 -0.00000000000E+00 -0.00000000000E+00 -0.74505805969E-08  0.93827000000E+00  0.93827000000E+00 0. -1.
     999902    2    1    2    0    0 -0.22997465947E-01  0.36754117369E-02  0.11654809481E-02  0.10206115430E+01  0.10203451236E+01 0.  0.
     999903    2    3    3    0    0  0.46938805287E-01 -0.26296407208E-02 -0.11916075991E+00  0.12965181328E+00  0.20003488013E-01 0.  0.
         14    1    1    2    0    0  0.22997465947E-01 -0.36754117369E-02 -0.11654809481E-02  0.23318457008E-01  0.00000000000E+00 0.  1.
     999901    1    3    3    0    0 -0.69936271234E-01  0.63050524577E-02  0.12032624086E+00  0.89095972971E+00  0.88000000000E+00 0.  1.
        -11    1    4    4    0    0  0.16797655530E-01  0.61889292289E-02 -0.28053667518E-01  0.33282629982E-01  0.51100000000E-03 0.  1.
         11    1    4    4    0    0  0.30141149756E-01 -0.88185699497E-02 -0.91107092395E-01  0.96369183302E-01  0.51100000000E-03 0. -1.
</event>
<event>
 8    1  0.1199892E+005  0.1043930E+01  0.7957747E-01            NaN
         13   -1    0    0    0    0  0.00000000000E+00  0.00000000000E+00  0.74505805969E-08  0.10566000000E+00  0.10566000000E+00 0.  1.
     999900   -1    0    0    0    0 -0.00000000000E+00 -0.00000000000E+00 -0.74505805969E-08  0.93827000000E+00  0.93827000000E+00 0.  1.
     999902    2    1    2    0    0  0.22196549200E-01  0.57599700467E-02 -0.57651443459E-02  0.10202846846E+01  0.10200106552E+01 0.  0.
     999903    2    3    3    0    0 -0.72279764192E-02 -0.41782172102E-01  0.12067182607E+00  0.12949157423E+00  0.20208528880E-01 0.  0.
         14    1    1    2    0    0 -0.22196549200E-01 -0.57599700467E-02  0.57651443459E-02  0.23645315406E-01  0.00000000000E+00 0. -1.
     999901    1    3    3    0    0  0.29424525619E-01  0.47542142149E-01 -0.12643697042E+00  0.89079311037E+00  0.88000000000E+00 0.  1.
        -11    1    4    4    0    0 -0.62660191801E-02 -0.13030244526E-01  0.67510999147E-01  0.69043800559E-01  0.51100000000E-03 0.  1.
         11    1    4    4    0    0 -0.96195723917E-03 -0.28751927576E-01  0.53160826925E-01  0.60447773668E-01  0.51100000000E-03 0. -1.
</event>
<event>
 8    1  0.1199892E+005  0.1043930E+01  0.7957747E-01            NaN
         13   -1    0    0    0    0  0.00000000000E+00  0.00000000000E+00  0.74505805969E-08  0.10566000000E+00  0.10566000000E+00 0. -1.
     999900   -1    0    0    0    0 -0.00000000000E+00 -0.00000000000E+00 -0.74505805969E-08  0.93827000000E+00  0.93827000000E+00 0. -1.
     999902    2    1    2    0    0  0.15442113621E-01 -0.75176842874E-02 -0.16687189258E-01  0.10199834609E+01  0.10197023211E+01 0.  0.
     999903    2    3    3    0    0 -0.76130689791E-01 -0.31266573363E-02  0.10028836972E+00  0.12752161810E+00  0.19958658947E-01 0.  0.
         14    1    1    2    0    0 -0.15442113621E-01  0.75176842874E-02  0.16687189258E-01  0.23946539112E-01  0.00000000000E+00 0. -1.
     999901    1    3    3    0    0  0.91572803411E-01 -0.43910269512E-02 -0.11697555898E+00  0.89246184279E+00  0.88000000000E+00 0. -1.
        -11    1    4    4    0    0 -0.31062021552E-01  0.44229161055E-02  0.54128085133E-01  0.62566141729E-01  0.51100000000E-03 0.  1.
         11    1    4    4    0    0 -0.45068668239E-01 -0.75495734417E-02  0.46160284585E-01  0.64955476366E-01  0.51100000000E-03 0. -1.
</event>
<event>
 8    1  0.1199892E+005  0.1043930E+01  0.7957747E-01            NaN
         13   -1    0    0    0    0  0.00000000000E+00  0.00000000000E+00  0.74505805969E-08  0.10566000000E+00  0.10566000000E+00 0.  1.
     999900   -1    0    0    0    0 -0.00000000000E+00 -0.00000000000E+00 -0.74505805969E-08  0.93827000000E+00  0.93827000000E+00 0. -1.
     999902    2    1    2    0    0  0.95593071286E-02 -0.43906780137E-02  0.21209036252E-01  0.10202555069E+01  0.10199807928E+01 0.  0.
     999903    2    3    3    0    0  0.10698688088E+00  0.59846245738E-01 -0.40415065656E-01  0.13041504677E+00  0.18626354496E-01 0.  0.
         14    1    1    2    0    0 -0.95593071286E-02  0.43906780137E-02 -0.21209036252E-01  0.23674493130E-01  0.00000000000E+00 0. -1.
     999901    1    3    3    0    0 -0.97427573752E-01 -0.64236923751E-01  0.61624101909E-01  0.88984046010E+00  0.88000000000E+00 0.  1.
        -11    1    4    4    0    0  0.65868797316E-01  0.43495062212E-01 -0.18693774315E-01  0.81118661329E-01  0.51100000000E-03 0. -1.
         11    1    4    4    0    0  0.41118083565E-01  0.16351183526E-01 -0.21721291342E-01  0.49296385438E-01  0.51100000000E-03 0.  1.
</event>
<event>
 8    1  0.1199892E+005  0.1043930E+01  0.7957747E-01            NaN
         13   -1    0    0    0    0  0.00000000000E+00  0.00000000000E+00  0.74505805969E-08  0.10566000000E+00  0.10566000000E+00 0. -1.
     999900   -1    0    0    0    0 -0.00000000000E+00 -0.00000000000E+00 -0.74505805969E-08  0.93827000000E+00  0.93827000000E+00 0. -1.
     999902    2    1    2    0    0 -0.20521597802E-01 -0.14458555166E-02  0.13581128270E-01  0.10192789651E+01  0.10189808316E+01 0.  0.
     999903    2    3    3    0    0  0.53246105360E-01 -0.87588076857E-01 -0.73806619006E-01  0.12770800627E+00  0.18844068377E-01 0.  0.
         14    1    1    2    0    0  0.20521597802E-01  0.14458555166E-02 -0.13581128270E-01  0.24651034859E-01  0.00000000000E+00 0.  1.
     999901    1    3    3    0    0 -0.73767703162E-01  0.86142221340E-01  0.87387747276E-01  0.89157095887E+00  0.88000000000E+00 0.  1.
        -11    1    4    4    0    0  0.22361723759E-01 -0.27248632318E-01 -0.16407313685E-01  0.38884389105E-01  0.51100000000E-03 0.  1.
         11    1    4    4    0    0  0.30884381601E-01 -0.60339444539E-01 -0.57399305321E-01  0.88823617166E-01  0.51100000000E-03 0. -1.
</event>
<event>
 8    1  0.1199892E+005  0.1043930E+01  0.7957747E-01            NaN
         13   -1    0    0    0    0  0.00000000000E+00  0.00000000000E+00  0.74505805969E-08  0.10566000000E+00  0.10566000000E+00 0. -1.
     999900   -1    0    0    0    0 -0.00000000000E+00 -0.00000000000E+00 -0.74505805969E-08  0.93827000000E+00  0.93827000000E+00 0.  1.
     999902    2    1    2    0    0  0.90943130004E-02 -0.20100830176E-01 -0.85721691082E-02  0.10202607798E+01  0.10199861895E+01 0.  0.
     999903    2    3    3    0    0  0.50061085555E-01  0.10224381351E+00  0.56109785224E-01  0.12850394997E+00  0.20125791193E-01 0.  0.
         14    1    1    2    0    0 -0.90943130004E-02  0.20100830176E-01  0.85721691082E-02  0.23669220223E-01  0.00000000000E+00 0. -1.
     999901    1    3    3    0    0 -0.40966772554E-01 -0.12234464369E+00 -0.64681954332E-01  0.89175682981E+00  0.88000000000E+00 0.  1.
        -11    1    4    4    0    0  0.24500339315E-01  0.48200518134E-01  0.37810597188E-01  0.65980746856E-01  0.51100000000E-03 0.  1.
         11    1    4    4    0    0  0.25560746240E-01  0.54043295379E-01  0.18299188036E-01  0.62523203114E-01  0.51100000000E-03 0. -1.
</event>
<event>
 8    1  0.1199892E+005  0.1043930E+01  0.7957747E-01            NaN
         13   -1    0    0    0    0  0.00000000000E+00  0.00000000000E+00  0.74505805969E-08  0.10566000000E+00  0.10566000000E+00 0. -1.
     999900   -1    0    0    0    0 -0.00000000000E+00 -0.00000000000E+00 -0.74505805969E-08  0.93827000000E+00  0.93827000000E+00 0.  1.
     999902    2    1    2    0    0  0.24102129785E-01  0.13000193602E-02 -0.35029621527E-03  0.10197902937E+01  0.10195045453E+01 0.  0.
     999903    2    3    3    0    0 -0.46552607370E-01 -0.70229870658E-01 -0.96488799265E-01  0.12886312006E+00  0.14008402550E-01 0.  0.
         14    1    1    2    0    0 -0.24102129785E-01 -0.13000193602E-02  0.35029621527E-03  0.24139706253E-01  0.00000000000E+00 0.  1.
     999901    1    3    3    0    0  0.70654737155E-01  0.71529890018E-01  0.96138503050E-01  0.89092717369E+00  0.88000000000E+00 0. -1.
        -11    1    4    4    0    0 -0.24787057857E-01 -0.37812462349E-01 -0.62185615663E-01  0.76886230643E-01  0.51100000000E-03 0. -1.
         11    1    4    4    0    0 -0.21765549512E-01 -0.32417408309E-01 -0.34303183602E-01  0.51976889415E-01  0.51100000000E-03 0.  1.
</event>
<event>
 8    1  0.1199892E+005  0.1043930E+01  0.7957747E-01            NaN
         13   -1    0    0    0    0  0.00000000000E+00  0.00000000000E+00  0.74505805969E-08  0.10566000000E+00  0.10566000000E+00 0.  1.
     999900   -1    0    0    0    0 -0.00000000000E+00 -0.00000000000E+00 -0.74505805969E-08  0.93827000000E+00  0.93827000000E+00 0. -1.
     999902    2    1    2    0    0 -0.23602182602E-01 -0.34986836953E-04 -0.96981966944E-03  0.10203078748E+01  0.10200343889E+01 0.  0.
     999903    2    3    3    0    0  0.37788917768E-01  0.82710052255E-02  0.12199354643E+00  0.12960150002E+00  0.20437994141E-01 0.  0.
         14    1    1    2    0    0  0.23602182602E-01  0.34986836953E-04  0.96981966944E-03  0.23622125177E-01  0.00000000000E+00 0.  1.
     999901    1    3    3    0    0 -0.61391100370E-01 -0.83059920625E-02 -0.12296336610E+00  0.89070637480E+00  0.88000000000E+00 0. -1.
        -11    1    4    4    0    0  0.15671898535E-01  0.13698208908E-01  0.63648122451E-01  0.66967110909E-01  0.51100000000E-03 0.  1.
         11    1    4    4    0    0  0.22117019233E-01 -0.54272036822E-02  0.58345423977E-01  0.62634389114E-01  0.51100000000E-03 0. -1.
</event>
<event>
 8    1  0.1199892E+005  0.1043930E+01  0.7957747E-01            NaN
         13   -1    0    0    0    0  0.00000000000E+00  0.00000000000E+00  0.74505805969E-08  0.10566000000E+00  0.10566000000E+00 0.  1.
     999900   -1    0    0    0    0 -0.00000000000E+00 -0.00000000000E+00 -0.74505805969E-08  0.93827000000E+00  0.93827000000E+00 0. -1.
     999902    2    1    2    0    0 -0.34905953208E-02 -0.15600202095E-01 -0.17223043311E-01  0.10204314089E+01  0.10201608092E+01 0.  0.
     999903    2    3    3    0    0  0.94639402357E-01  0.59572671731E-02 -0.88909063035E-01  0.13181838498E+00  0.21889714878E-01 0.  0.
         14    1    1    2    0    0  0.34905953208E-02  0.15600202095E-01  0.17223043311E-01  0.23498591064E-01  0.00000000000E+00 0.  1.
     999901    1    3    3    0    0 -0.98129997678E-01 -0.21557469268E-01  0.71686019724E-01  0.88861302396E+00  0.88000000000E+00 0. -1.
        -11    1    4    4    0    0  0.71567382097E-02  0.29382135882E-03 -0.32521694145E-03  0.71883322024E-02  0.51100000000E-03 0. -1.
         11    1    4    4    0    0  0.87482664147E-01  0.56634458142E-02 -0.88583846094E-01  0.12463005277E+00  0.51100000000E-03 0.  1.
</event>
<event>
 8    1  0.1199892E+005  0.1043930E+01  0.7957747E-01            NaN
         13   -1    0    0    0    0  0.00000000000E+00  0.00000000000E+00  0.74505805969E-08  0.10566000000E+00  0.10566000000E+00 0.  1.
     999900   -1    0    0    0    0 -0.00000000000E+00 -0.00000000000E+00 -0.74505805969E-08  0.93827000000E+00  0.93827000000E+00 0.  1.
     999902    2    1    2    0    0 -0.17203805507E-01  0.15951531605E-01  0.11544962305E-01  0.10177821810E+01  0.10174462440E+01 0.  0.
     999903    2    3    3    0    0  0.57845912639E-01  0.11294855753E+00 -0.12812784834E-01  0.12894350998E+00  0.18940302382E-01 0.  0.
         14    1    1    2    0    0  0.17203805507E-01 -0.15951531605E-01 -0.11544962305E-01  0.26147819012E-01  0.00000000000E+00 0.  1.
     999901    1    3    3    0    0 -0.75049718146E-01 -0.96997025923E-01  0.24357747139E-01  0.88883867101E+00  0.88000000000E+00 0. -1.
        -11    1    4    4    0    0  0.24477300956E-01  0.64190241021E-01 -0.11071251128E-02  0.68709621971E-01  0.51100000000E-03 0. -1.
         11    1    4    4    0    0  0.33368611684E-01  0.48758316507E-01 -0.11705659721E-01  0.60233888010E-01  0.51100000000E-03 0.  1.
</event>
<event>
 8    1  0.1199892E+005  0.1043930E+01  0.7957747E-01            NaN
         13   -1    0    0    0    0  0.00000000000E+00  0.00000000000E+00  0.74505805969E-08  0.10566000000E+00  0.10566000000E+00 0. -1.
     999900   -1    0    0    0    0 -0.00000000000E+00 -0.00000000000E+00 -0.74505805969E-08  0.93827000000E+00  0.93827000000E+00 0. -1.
     999902    2    1    2    0    0  0.18176098942E-01 -0.28557672832E-02 -0.22289142719E-01  0.10150278917E+01  0.10146163261E+01 0.  0.
     999903    2    3    3    0    0 -0.57082913648E-01 -0.58132441940E-01 -0.94617409154E-01  0.12713667775E+00  0.23946625584E-01 0.  0.
         14    1    1    2    0    0 -0.18176098942E-01  0.28557672832E-02  0.22289142719E-01  0.28902108274E-01  0.00000000000E+00 0. -1.
     999901    1    3    3    0    0  0.75259012590E-01  0.55276674657E-01  0.72328266435E-01  0.88789121398E+00  0.88000000000E+00 0.  1.
        -11    1    4    4    0    0 -0.48579096934E-01 -0.43168003280E-01 -0.59900870719E-01  0.88384278014E-01  0.51100000000E-03 0.  1.
         11    1    4    4    0    0 -0.85038167137E-02 -0.14964438660E-01 -0.34716538435E-01  0.38752399732E-01  0.51100000000E-03 0. -1.
</event>
<event>
 8    1  0.1199892E+005  0.1043930E+01  0.7957747E-01            NaN
         13   -1    0    0    0    0  0.00000000000E+00  0.00000000000E+00  0.74505805969E-08  0.10566000000E+00  0.10566000000E+00 0. -1.
     999900   -1    0    0    0    0 -0.00000000000E+00 -0.00000000000E+00 -0.74505805969E-08  0.93827000000E+00  0.93827000000E+00 0.  1.
     999902    2    1    2    0    0  0.47872219900E-02 -0.38532674818E-02 -0.20375259964E-01  0.10226481678E+01  0.10224267009E+01 0.  0.
     999903    2    3    3    0    0  0.10825375646E-01  0.79844224671E-01  0.10085122219E+00  0.13038274231E+00  0.18341251383E-01 0.  0.
         14    1    1    2    0    0 -0.47872219900E-02  0.38532674818E-02  0.20375259964E-01  0.21281832234E-01  0.00000000000E+00 0. -1.
     999901    1    3    3    0    0 -0.60381536564E-02 -0.83697492152E-01 -0.12122648216E+00  0.89226542546E+00  0.88000000000E+00 0.  1.
        -11    1    4    4    0    0  0.14699149149E-01  0.72028852842E-01  0.85877886323E-01  0.11304642015E+00  0.51100000000E-03 0. -1.
         11    1    4    4    0    0 -0.38737735026E-02  0.78153718284E-02  0.14973335872E-01  0.17336322162E-01  0.51100000000E-03 0.  1.
</event>
<event>
 8    1  0.1199892E+005  0.1043930E+01  0.7957747E-01            NaN
         13   -1    0    0    0    0  0.00000000000E+00  0.00000000000E+00  0.74505805969E-08  0.10566000000E+00  0.10566000000E+00 0. -1.
     999900   -1    0    0    0    0 -0.00000000000E+00 -0.00000000000E+00 -0.74505805969E-08  0.93827000000E+00  0.93827000000E+00 0.  1.
     999902    2    1    2    0    0  0.22203522269E-02 -0.21002433297E-01 -0.95629991262E-02  0.10207463178E+01  0.10204830043E+01 0.  0.
     999903    2    3    3    0    0 -0.10559300409E-01 -0.12120338537E+00  0.49652092272E-01  0.13299073354E+00  0.20480368416E-01 0.  0.
         14    1    1    2    0    0 -0.22203522269E-02  0.21002433297E-01  0.95629991262E-02  0.23183682208E-01  0.00000000000E+00 0. -1.
     999901    1    3    3    0    0  0.12779652635E-01  0.10020095207E+00 -0.59215091398E-01  0.88775558425E+00  0.88000000000E+00 0. -1.
        -11    1    4    4    0    0 -0.12773367551E-01 -0.11684691489E+00  0.44019628241E-01  0.12551633052E+00  0.51100000000E-03 0. -1.
         11    1    4    4    0    0  0.22140671429E-02 -0.43564704863E-02  0.56324640312E-02  0.74744030179E-02  0.51100000000E-03 0.  1.
</event>
<event>
 8    1  0.1199892E+005  0.1043930E+01  0.7957747E-01            NaN
         13   -1    0    0    0    0  0.00000000000E+00  0.00000000000E+00  0.74505805969E-08  0.10566000000E+00  0.10566000000E+00 0.  1.
     999900   -1    0    0    0    0 -0.00000000000E+00 -0.00000000000E+00 -0.74505805969E-08  0.93827000000E+00  0.93827000000E+00 0. -1.
     999902    2    1    2    0    0 -0.32465583541E-02 -0.13371566947E-02 -0.23690857179E-01  0.10199803686E+01  0.10196991554E+01 0.  0.
     999903    2    3    3    0    0 -0.91551257056E-01  0.38525956514E-01 -0.85412823168E-01  0.13251409395E+00  0.19968794125E-01 0.  0.
         14    1    1    2    0    0  0.32465583541E-02  0.13371566947E-02  0.23690857179E-01  0.23949631376E-01  0.00000000000E+00 0.  1.
     999901    1    3    3    0    0  0.88304698701E-01 -0.39863113209E-01  0.61721965989E-01  0.88746627468E+00  0.88000000000E+00 0.  1.
        -11    1    4    4    0    0 -0.83763881286E-01  0.40350519786E-01 -0.75528846458E-01  0.11978906471E+00  0.51100000000E-03 0.  1.
         11    1    4    4    0    0 -0.77873757695E-02 -0.18245632719E-02 -0.98839767100E-02  0.12725029238E-01  0.51100000000E-03 0. -1.
</event>
<event>
 8    1  0.1199892E+005  0.1043930E+01  0.7957747E-01            NaN
         13   -1    0    0    0    0  0.00000000000E+00  0.00000000000E+00  0.74505805969E-08  0.10566000000E+00  0.10566000000E+00 0. -1.
     999900   -1    0    0    0    0 -0.00000000000E+00 -0.00000000000E+00 -0.74505805969E-08  0.93827000000E+00  0.93827000000E+00 0. -1.
     999902    2    1    2    0    0  0.83523394413E-02 -0.85041654404E-03  0.22477407590E-01  0.10199358625E+01  0.10196535907E+01 0.  0.
     999903    2    3    3    0    0 -0.11585911671E+00 -0.73950800210E-02  0.56408774805E-01  0.13054131780E+00  0.19520851549E-01 0.  0.
         14    1    1    2    0    0 -0.83523394413E-02  0.85041654404E-03 -0.22477407590E-01  0.23994137501E-01  0.00000000000E+00 0.  1.
     999901    1    3    3    0    0  0.12421145615E+00  0.65446634770E-02 -0.33931367214E-01  0.88939454470E+00  0.88000000000E+00 0. -1.
        -11    1    4    4    0    0 -0.97233733978E-01 -0.87849607910E-02  0.39422412096E-01  0.10528989627E+00  0.51100000000E-03 0. -1.
         11    1    4    4    0    0 -0.18625382730E-01  0.13898807700E-02  0.16986362709E-01  0.25251421534E-01  0.51100000000E-03 0.  1.
</event>
<event>
 8    1  0.1199892E+005  0.1043930E+01  0.7957747E-01            NaN
         13   -1    0    0    0    0  0.00000000000E+00  0.00000000000E+00  0.74505805969E-08  0.10566000000E+00  0.10566000000E+00 0.  1.
     999900   -1    0    0    0    0 -0.00000000000E+00 -0.00000000000E+00 -0.74505805969E-08  0.93827000000E+00  0.93827000000E+00 0.  1.
     999902    2    1    2    0    0 -0.25972234117E-02  0.60223823848E-02  0.23825428224E-01  0.10192183491E+01  0.10189187296E+01 0.  0.
     999903    2    3    3    0    0 -0.12088117035E+00 -0.42085071697E-01 -0.22880098979E-02  0.12961881512E+00  0.20307428222E-01 0.  0.
         14    1    1    2    0    0  0.25972234117E-02 -0.60223823848E-02 -0.23825428224E-01  0.24711650877E-01  0.00000000000E+00 0. -1.
     999901    1    3    3    0    0  0.11828394693E+00  0.48107454082E-01  0.26113438122E-01  0.88959953400E+00  0.88000000000E+00 0.  1.
        -11    1    4    4    0    0 -0.77528627143E-01 -0.29371280466E-01 -0.10910612474E-01  0.83622142573E-01  0.51100000000E-03 0.  1.
         11    1    4    4    0    0 -0.43352543202E-01 -0.12713791231E-01  0.86226025764E-02  0.45996672551E-01  0.51100000000E-03 0. -1.
</event>
<event>
 8    1  0.1199892E+005  0.1043930E+01  0.7957747E-01            NaN
         13   -1    0    0    0    0  0.00000000000E+00  0.00000000000E+00  0.74505805969E-08  0.10566000000E+00  0.10566000000E+00 0. -1.
     999900   -1    0    0    0    0 -0.00000000000E+00 -0.00000000000E+00 -0.74505805969E-08  0.93827000000E+00  0.93827000000E+00 0. -1.
     999902    2    1    2    0    0  0.81172162090E-03  0.42996158860E-02 -0.23007522855E-01  0.10205101004E+01  0.10202413309E+01 0.  0.
     999903    2    3    3    0    0  0.74900164100E-02 -0.12845887161E+00  0.78442391506E-02  0.12999269640E+00  0.16696915531E-01 0.  0.
         14    1    1    2    0    0 -0.81172162090E-03 -0.42996158860E-02  0.23007522855E-01  0.23419899588E-01  0.00000000000E+00 0. -1.
     999901    1    3    3    0    0 -0.66782947891E-02  0.13275848750E+00 -0.30851762006E-01  0.89051740401E+00  0.88000000000E+00 0. -1.
        -11    1    4    4    0    0  0.53716293483E-02 -0.10856864670E+00  0.12587238780E-01  0.10942899592E+00  0.51100000000E-03 0. -1.
         11    1    4    4    0    0  0.21183870617E-02 -0.19890224914E-01 -0.47429996292E-02  0.20563700478E-01  0.51100000000E-03 0.  1.
</event>
<event>
 8    1  0.1199892E+005  0.1043930E+01  0.7957747E-01            NaN
         13   -1    0    0    0    0  0.00000000000E+00  0.00000000000E+00  0.74505805969E-08  0.10566000000E+00  0.10566000000E+00 0.  1.
     999900   -1    0    0    0    0 -0.00000000000E+00 -0.00000000000E+00 -0.74505805969E-08  0.93827000000E+00  0.93827000000E+00 0. -1.
     999902    2    1    2    0    0  0.91251433894E-02 -0.16748634263E-01  0.13606571249E-01  0.10205008777E+01  0.10202318940E+01 0.  0.
     999903    2    3    3    0    0  0.11036010578E+00 -0.41450326735E-01 -0.55120058964E-01  0.13169153878E+00  0.20173198847E-01 0.  0.
         14    1    1    2    0    0 -0.91251433894E-02  0.16748634263E-01 -0.13606571249E-01  0.23429122320E-01  0.00000000000E+00 0. -1.
     999901    1    3    3    0    0 -0.10123496239E+00  0.24701692472E-01  0.68726630212E-01  0.88880933890E+00  0.88000000000E+00 0.  1.
        -11    1    4    4    0    0  0.12954831633E-01 -0.89818956596E-02 -0.13995726408E-01  0.21086573713E-01  0.51100000000E-03 0.  1.
         11    1    4    4    0    0  0.97405274144E-01 -0.32468431075E-01 -0.41124332556E-01  0.11060496506E+00  0.51100000000E-03 0. -1.
</event>
<event>
 8    1  0.1199892E+005  0.1043930E+01  0.7957747E-01            NaN
         13   -1    0    0    0    0  0.00000000000E+00  0.00000000000E+00  0.74505805969E-08  0.10566000000E+00  0.10566000000E+00 0.  1.
     999900   -1    0    0    0    0 -0.00000000000E+00 -0.00000000000E+00 -0.74505805969E-08  0.93827000000E+00  0.93827000000E+00 0. -1.
     999902    2    1    2    0    0  0.10951274476E-01  0.12112328529E-01  0.15752965159E-01  0.10212409095E+01  0.10209888346E+01 0.  0.
     999903    2    3    3    0    0  0.54050200879E-01 -0.79769712159E-01  0.88520180411E-01  0.13242433989E+00  0.20390003959E-01 0.  0.
         14    1    1    2    0    0 -0.10951274476E-01 -0.12112328529E-01 -0.15752965159E-01  0.22689090469E-01  0.00000000000E+00 0.  1.
     999901    1    3    3    0    0 -0.43098926403E-01  0.91882040688E-01 -0.72767215253E-01  0.88881656964E+00  0.88000000000E+00 0. -1.
        -11    1    4    4    0    0  0.18891892293E-01 -0.12970490544E-01  0.22920361169E-01  0.32415139927E-01  0.51100000000E-03 0.  1.
         11    1    4    4    0    0  0.35158308586E-01 -0.66799221615E-01  0.65599819242E-01  0.10000919996E+00  0.51100000000E-03 0. -1.
</event>
<event>
 8    1  0.1199892E+005  0.1043930E+01  0.7957747E-01            NaN
         13   -1    0    0    0    0  0.00000000000E+00  0.00000000000E+00  0.74505805969E-08  0.10566000000E+00  0.10566000000E+00 0. -1.
     999900   -1    0    0    0    0 -0.00000000000E+00 -0.00000000000E+00 -0.74505805969E-08  0.93827000000E+00  0.93827000000E+00 0.  1.
     999902    2    1    2    0    0 -0.17998023756E-01 -0.13226653074E-01 -0.61953619959E-02  0.10207512226E+01  0.10204880219E+01 0.  0.
     999903    2    3    3    0    0  0.30580823726E-01  0.87558132283E-01  0.87029759946E-01  0.12878238866E+00  0.20226497604E-01 0.  0.
         14    1    1    2    0    0  0.17998023756E-01  0.13226653074E-01  0.61953619959E-02  0.23178777382E-01  0.00000000000E+00 0.  1.
     999901    1    3    3    0    0 -0.48578847482E-01 -0.10078478536E+00 -0.93225121942E-01  0.89196883395E+00  0.88000000000E+00 0.  1.
        -11    1    4    4    0    0  0.89989884990E-02  0.55716674895E-01  0.52842982667E-01  0.77317343420E-01  0.51100000000E-03 0. -1.
         11    1    4    4    0    0  0.21581835227E-01  0.31841457388E-01  0.34186777279E-01  0.51465045245E-01  0.51100000000E-03 0.  1.
</event>
<event>
 8    1  0.1199892E+005  0.1043930E+01  0.7957747E-01            NaN
         13   -1    0    0    0    0  0.00000000000E+00  0.00000000000E+00  0.74505805969E-08  0.10566000000E+00  0.10566000000E+00 0. -1.
     999900   -1    0    0    0    0 -0.00000000000E+00 -0.00000000000E+00 -0.74505805969E-08  0.93827000000E+00  0.93827000000E+00 0. -1.
     999902    2    1    2    0    0  0.17744766921E-01  0.13368828857E-01 -0.39981216081E-02  0.10213559593E+01  0.10211064627E+01 0.  0.
     999903    2    3    3    0    0  0.70064801672E-01  0.98367906893E-01  0.54675411671E-01  0.13377226587E+00  0.17896841447E-01 0.  0.
         14    1    1    2    0    0 -0.17744766921E-01 -0.13368828857E-01  0.39981216081E-02  0.22574040721E-01  0.00000000000E+00 0. -1.
     999901    1    3    3    0    0 -0.52320034751E-01 -0.84999078036E-01 -0.58673533280E-01  0.88758369341E+00  0.88000000000E+00 0.  1.
        -11    1    4    4    0    0  0.30962676490E-01  0.40979155907E-01  0.13781279000E-01  0.53180478807E-01  0.51100000000E-03 0. -1.
         11    1    4    4    0    0  0.39102125182E-01  0.57388750986E-01  0.40894132672E-01  0.80591787060E-01  0.51100000000E-03 0.  1.
</event>
<event>
 8    1  0.1199892E+005  0.1043930E+01  0.7957747E-01            NaN
         13   -1    0    0    0    0  0.00000000000E+00  0.00000000000E+00  0.74505805969E-08  0.10566000000E+00  0.10566000000E+00 0. -1.
     999900   -1    0    0    0    0 -0.00000000000E+00 -0.00000000000E+00 -0.74505805969E-08  0.93827000000E+00  0.93827000000E+00 0.  1.
     999902    2    1    2    0    0 -0.15953992684E-01 -0.74727863194E-02 -0.56621604898E-02  0.10254250688E+01  0.10252580842E+01 0.  0.
     999903    2    3    3    0    0 -0.18849246130E-01 -0.63030872095E-01 -0.11796214591E+00  0.13654579120E+00  0.20037472637E-01 0.  0.
         14    1    1    2    0    0  0.15953992684E-01  0.74727863194E-02  0.56621604898E-02  0.18504931217E-01  0.00000000000E+00 0. -1.
     999901    1    3    3    0    0  0.28952534465E-02  0.55558085775E-01  0.11229998542E+00  0.88887927758E+00  0.88000000000E+00 0. -1.
        -11    1    4    4    0    0 -0.20091166991E-01 -0.32502688418E-01 -0.65265831149E-01  0.75630480510E-01  0.51100000000E-03 0.  1.
         11    1    4    4    0    0  0.12419208610E-02 -0.30528183676E-01 -0.52696314764E-01  0.60915310692E-01  0.51100000000E-03 0. -1.
</event>
<event>
 8    1  0.1199892E+005  0.1043930E+01  0.7957747E-01            NaN
         13   -1    0    0    0    0  0.00000000000E+00  0.00000000000E+00  0.74505805969E-08  0.10566000000E+00  0.10566000000E+00 0. -1.
     999900   -1    0    0    0    0 -0.00000000000E+00 -0.00000000000E+00 -0.74505805969E-08  0.93827000000E+00  0.93827000000E+00 0. -1.
     999902    2    1    2    0    0 -0.15751475439E-02 -0.22842462574E-01 -0.61233779224E-02  0.10202286299E+01  0.10199532844E+01 0.  0.
     999903    2    3    3    0    0 -0.47765160613E-01 -0.77737160017E-01  0.92949145269E-01  0.13176798929E+00  0.19967042299E-01 0.  0.
         14    1    1    2    0    0  0.15751475439E-02  0.22842462574E-01  0.61233779224E-02  0.23701370075E-01  0.00000000000E+00 0. -1.
     999901    1    3    3    0    0  0.46190013069E-01  0.54894697442E-01 -0.99072523192E-01  0.88846064064E+00  0.88000000000E+00 0. -1.
        -11    1    4    4    0    0 -0.37208133036E-01 -0.71204552686E-01  0.74791045152E-01  0.10976563690E+00  0.51100000000E-03 0. -1.
         11    1    4    4    0    0 -0.10557027577E-01 -0.65326073308E-02  0.18158100118E-01  0.22002352390E-01  0.51100000000E-03 0.  1.
</event>
<event>
 8    1  0.1199892E+005  0.1043930E+01  0.7957747E-01            NaN
         13   -1    0    0    0    0  0.00000000000E+00  0.00000000000E+00  0.74505805969E-08  0.10566000000E+00  0.10566000000E+00 0. -1.
     999900   -1    0    0    0    0 -0.00000000000E+00 -0.00000000000E+00 -0.74505805969E-08  0.93827000000E+00  0.93827000000E+00 0.  1.
     999902    2    1    2    0    0  0.21317518678E-01  0.64018846536E-02 -0.99896135115E-02  0.10195330103E+01  0.10192410637E+01 0.  0.
     999903    2    3    3    0    0  0.15589374282E-01  0.11920499465E+00 -0.46973571097E-01  0.13154361485E+00  0.25383988755E-01 0.  0.
         14    1    1    2    0    0 -0.21317518678E-01 -0.64018846536E-02  0.99896135115E-02  0.24396989729E-01  0.00000000000E+00 0. -1.
     999901    1    3    3    0    0  0.57281443965E-02 -0.11280311000E+00  0.36983957586E-01  0.88798939542E+00  0.88000000000E+00 0.  1.
        -11    1    4    4    0    0  0.59932936245E-02  0.29684881752E-01 -0.23946964697E-01  0.38611267945E-01  0.51100000000E-03 0. -1.
         11    1    4    4    0    0  0.95960806571E-02  0.89520112901E-01 -0.23026606401E-01  0.92932346904E-01  0.51100000000E-03 0.  1.
</event>
<event>
 8    1  0.1199892E+005  0.1043930E+01  0.7957747E-01            NaN
         13   -1    0    0    0    0  0.00000000000E+00  0.00000000000E+00  0.74505805969E-08  0.10566000000E+00  0.10566000000E+00 0.  1.
     999900   -1    0    0    0    0 -0.00000000000E+00 -0.00000000000E+00 -0.74505805969E-08  0.93827000000E+00  0.93827000000E+00 0.  1.
     999902    2    1    2    0    0 -0.44498715969E-03 -0.61089529590E-02  0.15344934171E-01  0.10274077627E+01  0.10272749031E+01 0.  0.
     999903    2    3    3    0    0  0.40050547253E-02 -0.98825795078E-01 -0.91872152504E-01  0.13605389396E+00  0.16958520581E-01 0.  0.
         14    1    1    2    0    0  0.44498715969E-03  0.61089529590E-02 -0.15344934171E-01  0.16522237274E-01  0.00000000000E+00 0. -1.
     999901    1    3    3    0    0 -0.44500418850E-02  0.92716842119E-01  0.10721708668E+00  0.89135386876E+00  0.88000000000E+00 0. -1.
        -11    1    4    4    0    0  0.60204173183E-03 -0.73595063341E-01 -0.58160045039E-01  0.93805371714E-01  0.51100000000E-03 0.  1.
         11    1    4    4    0    0  0.34030129934E-02 -0.25230731737E-01 -0.33712107465E-01  0.42248522248E-01  0.51100000000E-03 0. -1.
</event>
<event>
 8    1  0.1199892E+005  0.1043930E+01  0.7957747E-01            NaN
         13   -1    0    0    0    0  0.00000000000E+00  0.00000000000E+00  0.74505805969E-08  0.10566000000E+00  0.10566000000E+00 0.  1.
     999900   -1    0    0    0    0 -0.00000000000E+00 -0.00000000000E+00 -0.74505805969E-08  0.93827000000E+00  0.93827000000E+00 0. -1.
     999902    2    1    2    0    0  0.19303326856E-01 -0.14069276098E-01  0.11716169469E-02  0.10200148240E+01  0.10197344289E+01 0.  0.
     999903    2    3    3    0    0 -0.10312533070E+00  0.37901702101E-01 -0.62102116249E-01  0.12777420393E+00  0.19954986653E-01 0.  0.
         14    1    1    2    0    0 -0.19303326856E-01  0.14069276098E-01 -0.11716169469E-02  0.23915176016E-01  0.00000000000E+00 0. -1.
     999901    1    3    3    0    0  0.12242865756E+00 -0.51970978198E-01  0.63273733196E-01  0.89224062006E+00  0.88000000000E+00 0. -1.
        -11    1    4    4    0    0 -0.13630682786E-01  0.39118808635E-02 -0.16414218473E-01  0.21697603881E-01  0.51100000000E-03 0. -1.
         11    1    4    4    0    0 -0.89494647915E-01  0.33989821237E-01 -0.45687897776E-01  0.10607660005E+00  0.51100000000E-03 0.  1.
</event>
<event>
 8    1  0.1199892E+005  0.1043930E+01  0.7957747E-01            NaN
         13   -1    0    0    0    0  0.00000000000E+00  0.00000000000E+00  0.74505805969E-08  0.10566000000E+00  0.10566000000E+00 0.  1.
     999900   -1    0    0    0    0 -0.00000000000E+00 -0.00000000000E+00 -0.74505805969E-08  0.93827000000E+00  0.93827000000E+00 0.  1.
     999902    2    1    2    0    0  0.57223147634E-02 -0.10872146002E-02 -0.23223142746E-01  0.10199875423E+01  0.10197064995E+01 0.  0.
     999903    2    3    3    0    0  0.52441457371E-02  0.54444152002E-01  0.11371521055E+00  0.12766693068E+00  0.19391475634E-01 0.  0.
         14    1    1    2    0    0 -0.57223147634E-02  0.10872146002E-02  0.23223142746E-01  0.23942457702E-01  0.00000000000E+00 0.  1.
     999901    1    3    3    0    0  0.47816902627E-03 -0.55531366602E-01 -0.13693835329E+00  0.89232061162E+00  0.88000000000E+00 0.  1.
        -11    1    4    4    0    0  0.71533349987E-02  0.66721255322E-02  0.25697960012E-01  0.27501522331E-01  0.51100000000E-03 0. -1.
         11    1    4    4    0    0 -0.19091892616E-02  0.47772026469E-01  0.88017250533E-01  0.10016540835E+00  0.51100000000E-03 0.  1.
</event>
<event>
 8    1  0.1199892E+005  0.1043930E+01  0.7957747E-01            NaN
         13   -1    0    0    0    0  0.00000000000E+00  0.00000000000E+00  0.74505805969E-08  0.10566000000E+00  0.10566000000E+00 0.  1.
     999900   -1    0    0    0    0 -0.00000000000E+00 -0.00000000000E+00 -0.74505805969E-08  0.93827000000E+00  0.93827000000E+00 0.  1.
     999902    2    1    2    0    0 -0.18028045323E-01 -0.56931847330E-03  0.21827294779E-01  0.10156145389E+01  0.10152197428E+01 0.  0.
     999903    2    3    3    0    0 -0.25785601864E-01 -0.12146998680E+00 -0.12661434913E-01  0.12664512221E+00  0.21420086106E-01 0.  0.
         14    1    1    2    0    0  0.18028045323E-01  0.56931847330E-03 -0.21827294779E-01  0.28315461131E-01  0.00000000000E+00 0. -1.
     999901    1    3    3    0    0  0.77575565405E-02  0.12090066832E+00  0.34488729691E-01  0.88896941666E+00  0.88000000000E+00 0. -1.
        -11    1    4    4    0    0 -0.10614215740E-01 -0.58956921784E-01 -0.16692906349E-01  0.62189182704E-01  0.51100000000E-03 0.  1.
         11    1    4    4    0    0 -0.15171386124E-01 -0.62513065013E-01  0.40314714367E-02  0.64455939503E-01  0.51100000000E-03 0. -1.
</event>
<event>
 8    1  0.1199892E+005  0.1043930E+01  0.7957747E-01            NaN
         13   -1    0    0    0    0  0.00000000000E+00  0.00000000000E+00  0.74505805969E-08  0.10566000000E+00  0.10566000000E+00 0.  1.
     999900   -1    0    0    0    0 -0.00000000000E+00 -0.00000000000E+00 -0.74505805969E-08  0.93827000000E+00  0.93827000000E+00 0. -1.
     999902    2    1    2    0    0 -0.16851120660E-01 -0.42968353463E-02  0.17129421431E-01  0.10195201630E+01  0.10192279052E+01 0.  0.
     999903    2    3    3    0    0  0.72368397702E-01  0.95866915759E-01  0.42400538731E-01  0.12899698600E+00  0.20365809310E-01 0.  0.
         14    1    1    2    0    0  0.16851120660E-01  0.42968353463E-02 -0.17129421431E-01  0.24409836952E-01  0.00000000000E+00 0. -1.
     999901    1    3    3    0    0 -0.89219518362E-01 -0.10016375111E+00 -0.25271117301E-01  0.89052317705E+00  0.88000000000E+00 0. -1.
        -11    1    4    4    0    0  0.31888011203E-01  0.56510838976E-01  0.16957108713E-01  0.67068061230E-01  0.51100000000E-03 0.  1.
         11    1    4    4    0    0  0.40480386499E-01  0.39356076783E-01  0.25443430018E-01  0.61928924768E-01  0.51100000000E-03 0. -1.
</event>
<event>
 8    1  0.1199892E+005  0.1043930E+01  0.7957747E-01            NaN
         13   -1    0    0    0    0  0.00000000000E+00  0.00000000000E+00  0.74505805969E-08  0.10566000000E+00  0.10566000000E+00 0. -1.
     999900   -1    0    0    0    0 -0.00000000000E+00 -0.00000000000E+00 -0.74505805969E-08  0.93827000000E+00  0.93827000000E+00 0. -1.
     999902    2    1    2    0    0  0.15149697940E-01  0.51047980954E-02 -0.17761561447E-01  0.10200334443E+01  0.10197534908E+01 0.  0.
     999903    2    3    3    0    0  0.10613753985E+00 -0.27433088830E-01  0.68171134402E-01  0.13058309169E+00  0.19669482513E-01 0.  0.
         14    1    1    2    0    0 -0.15149697940E-01 -0.51047980954E-02  0.17761561447E-01  0.23896555742E-01  0.00000000000E+00 0. -1.
     999901    1    3    3    0    0 -0.90987841910E-01  0.32537886926E-01 -0.85932695849E-01  0.88945035256E+00  0.88000000000E+00 0.  1.
        -11    1    4    4    0    0  0.78736613529E-01 -0.13859023713E-01  0.56271971286E-01  0.97766674904E-01  0.51100000000E-03 0. -1.
         11    1    4    4    0    0  0.27400926321E-01 -0.13574065117E-01  0.11899163116E-01  0.32816416790E-01  0.51100000000E-03 0.  1.
</event>
<event>
 8    1  0.1199892E+005  0.1043930E+01  0.7957747E-01            NaN
         13   -1    0    0    0    0  0.00000000000E+00  0.00000000000E+00  0.74505805969E-08  0.10566000000E+00  0.10566000000E+00 0.  1.
     999900   -1    0    0    0    0 -0.00000000000E+00 -0.00000000000E+00 -0.74505805969E-08  0.93827000000E+00  0.93827000000E+00 0. -1.
     999902    2    1    2    0    0  0.21069317219E-01 -0.92078648459E-02 -0.49590742862E-02  0.10204078122E+01  0.10201366623E+01 0.  0.
     999903    2    3    3    0    0 -0.60653735991E-02  0.10653183557E+00 -0.70993709254E-01  0.12996267476E+00  0.21549230373E-01 0.  0.
         14    1    1    2    0    0 -0.21069317219E-01  0.92078648459E-02  0.49590742862E-02  0.23522187842E-01  0.00000000000E+00 0.  1.
     999901    1    3    3    0    0  0.27134690818E-01 -0.11573970042E+00  0.66034634967E-01  0.89044513740E+00  0.88000000000E+00 0.  1.
        -11    1    4    4    0    0  0.51234032454E-02  0.51204958136E-01 -0.25345062378E-01  0.57365759007E-01  0.51100000000E-03 0.  1.
         11    1    4    4    0    0 -0.11188776845E-01  0.55326877439E-01 -0.45648646876E-01  0.72596915754E-01  0.51100000000E-03 0. -1.
</event>
<event>
 8    1  0.1199892E+005  0.1043930E+01  0.7957747E-01            NaN
         13   -1    0    0    0    0  0.00000000000E+00  0.00000000000E+00  0.74505805969E-08  0.10566000000E+00  0.10566000000E+00 0. -1.
     999900   -1    0    0    0    0 -0.00000000000E+00 -0.00000000000E+00 -0.74505805969E-08  0.93827000000E+00  0.93827000000E+00 0. -1.
     999902    2    1    2    0    0  0.23838162150E-01  0.79014821231E-02  0.49761195195E-02  0.10183281805E+01  0.10180063016E+01 0.  0.
     999903    2    3    3    0    0  0.47829667712E-01  0.12621947576E-01  0.11907090140E+00  0.13062581240E+00  0.20934006578E-01 0.  0.
         14    1    1    2    0    0 -0.23838162150E-01 -0.79014821231E-02 -0.49761195195E-02  0.25601819465E-01  0.00000000000E+00 0. -1.
     999901    1    3    3    0    0 -0.23991505562E-01 -0.47204654526E-02 -0.11409478188E+00  0.88770236813E+00  0.88000000000E+00 0. -1.
        -11    1    4    4    0    0  0.27870042360E-01  0.81273239024E-02  0.43257481094E-01  0.52098593518E-01  0.51100000000E-03 0. -1.
         11    1    4    4    0    0  0.19959625353E-01  0.44946236733E-02  0.75813420308E-01  0.78527218886E-01  0.51100000000E-03 0.  1.
</event>
<event>
 8    1  0.1199892E+005  0.1043930E+01  0.7957747E-01            NaN
         13   -1    0    0    0    0  0.00000000000E+00  0.00000000000E+00  0.74505805969E-08  0.10566000000E+00  0.10566000000E+00 0. -1.
     999900   -1    0    0    0    0 -0.00000000000E+00 -0.00000000000E+00 -0.74505805969E-08  0.93827000000E+00  0.93827000000E+00 0. -1.
     999902    2    1    2    0    0 -0.10214191032E-01 -0.10214278997E-01  0.17643867894E-01  0.10211272092E+01  0.10208725729E+01 0.  0.
     999903    2    3    3    0    0  0.30747692914E-01  0.84219963808E-01 -0.90101511240E-01  0.12860002817E+00  0.19525931359E-01 0.  0.
         14    1    1    2    0    0  0.10214191032E-01  0.10214278997E-01 -0.17643867894E-01  0.22802790797E-01  0.00000000000E+00 0.  1.
     999901    1    3    3    0    0 -0.40961883946E-01 -0.94434242805E-01  0.10774537913E+00  0.89252718103E+00  0.88000000000E+00 0.  1.
        -11    1    4    4    0    0  0.11552290605E-01  0.36986286412E-01 -0.25879879800E-01  0.46599035400E-01  0.51100000000E-03 0.  1.
         11    1    4    4    0    0  0.19195402309E-01  0.47233677396E-01 -0.64221631440E-01  0.82000992774E-01  0.51100000000E-03 0. -1.
</event>
<event>
 8    1  0.1199892E+005  0.1043930E+01  0.7957747E-01            NaN
         13   -1    0    0    0    0  0.00000000000E+00  0.00000000000E+00  0.74505805969E-08  0.10566000000E+00  0.10566000000E+00 0. -1.
     999900   -1    0    0    0    0 -0.00000000000E+00 -0.00000000000E+00 -0.74505805969E-08  0.93827000000E+00  0.93827000000E+00 0. -1.
     999902    2    1    2    0    0 -0.19484352501E-01  0.40418616340E-02 -0.12351961314E-01  0.10205089072E+01  0.10202401101E+01 0.  0.
     999903    2    3    3    0    0 -0.32862523100E-01  0.12331847168E+00  0.24524850932E-01  0.13159620937E+00  0.20705147336E-01 0.  0.
         14    1    1    2    0    0  0.19484352501E-01 -0.40418616340E-02  0.12351961314E-01  0.23421092761E-01  0.00000000000E+00 0.  1.
     999901    1    3    3    0    0  0.13378170599E-01 -0.11927661004E+00 -0.36876812246E-01  0.88891269787E+00  0.88000000000E+00 0. -1.
        -11    1    4    4    0    0 -0.18390494331E-01  0.43991339371E-01  0.13842055453E-02  0.47703515252E-01  0.51100000000E-03 0.  1.
         11    1    4    4    0    0 -0.14472028769E-01  0.79327132305E-01  0.23140645387E-01  0.83892694118E-01  0.51100000000E-03 0. -1.
</event>
<event>
 8    1  0.1199892E+005  0.1043930E+01  0.7957747E-01            NaN
         13   -1    0    0    0    0  0.00000000000E+00  0.00000000000E+00  0.74505805969E-08  0.10566000000E+00  0.10566000000E+00 0.  1.
     999900   -1    0    0    0    0 -0.00000000000E+00 -0.00000000000E+00 -0.74505805969E-08  0.93827000000E+00  0.93827000000E+00 0.  1.
     999902    2    1    2    0    0 -0.60262466980E-02  0.14093656413E-01  0.21916140449E-01  0.10171855798E+01  0.10168339293E+01 0.  0.
     999903    2    3    3    0    0 -0.19145818245E-01 -0.60616028294E-01 -0.10553624974E+00  0.12477436745E+00  0.19745316381E-01 0.  0.
         14    1    1    2    0    0  0.60262466980E-02 -0.14093656413E-01 -0.21916140449E-01  0.26744420213E-01  0.00000000000E+00 0. -1.
     999901    1    3    3    0    0  0.13119571547E-01  0.74709684707E-01  0.12745239019E+00  0.89241121234E+00  0.88000000000E+00 0. -1.
        -11    1    4    4    0    0 -0.11439040542E-01 -0.47934352944E-01 -0.64767599812E-01  0.81385852254E-01  0.51100000000E-03 0.  1.
         11    1    4    4    0    0 -0.77067777035E-02 -0.12681675350E-01 -0.40768649932E-01  0.43388515192E-01  0.51100000000E-03 0. -1.
</event>
<event>
 8    1  0.1199892E+005  0.1043930E+01  0.7957747E-01            NaN
         13   -1    0    0    0    0  0.00000000000E+00  0.00000000000E+00  0.74505805969E-08  0.10566000000E+00  0.10566000000E+00 0.  1.
     999900   -1    0    0    0    0 -0.00000000000E+00 -0.00000000000E+00 -0.74505805969E-08  0.93827000000E+00  0.93827000000E+00 0.  1.
     999902    2    1    2    0    0  0.22939616241E-01 -0.75505912565E-02  0.83714828570E-03  0.10197651859E+01  0.10194788356E+01 0.  0.
     999903    2    3    3    0    0  0.53437767775E-01 -0.10807213691E+00 -0.50013328388E-01  0.13206000438E+00  0.20083075925E-01 0.  0.
         14    1    1    2    0    0 -0.22939616241E-01  0.75505912565E-02 -0.83714828570E-03  0.24164814066E-01  0.00000000000E+00 0.  1.
     999901    1    3    3    0    0 -0.30498151534E-01  0.10052154565E+00  0.50850476674E-01  0.88770518156E+00  0.88000000000E+00 0. -1.
        -11    1    4    4    0    0  0.24941701282E-01 -0.29468034360E-01 -0.16139782797E-01  0.41847427898E-01  0.51100000000E-03 0. -1.
         11    1    4    4    0    0  0.28496066493E-01 -0.78604102548E-01 -0.33873545591E-01  0.90212576478E-01  0.51100000000E-03 0.  1.
</event>
<event>
 8    1  0.1199892E+005  0.1043930E+01  0.7957747E-01            NaN
         13   -1    0    0    0    0  0.00000000000E+00  0.00000000000E+00  0.74505805969E-08  0.10566000000E+00  0.10566000000E+00 0.  1.
     999900   -1    0    0    0    0 -0.00000000000E+00 -0.00000000000E+00 -0.74505805969E-08  0.93827000000E+00  0.93827000000E+00 0.  1.
     999902    2    1    2    0    0 -0.25169644383E-02 -0.87123482430E-02  0.22029603532E-01  0.10201068274E+01  0.10198286110E+01 0.  0.
     999903    2    3    3    0    0 -0.17196694003E-01 -0.11657377948E+00 -0.52152313523E-01  0.13030205125E+00  0.19328435161E-01 0.  0.
         14    1    1    2    0    0  0.25169644383E-02  0.87123482430E-02 -0.22029603532E-01  0.23823172620E-01  0.00000000000E+00 0. -1.
     999901    1    3    3    0    0  0.14679729565E-01  0.10786143124E+00  0.74181917055E-01  0.88980477613E+00  0.88000000000E+00 0. -1.
        -11    1    4    4    0    0 -0.39425904371E-02 -0.36404628268E-01 -0.68109840536E-02  0.37249048357E-01  0.51100000000E-03 0. -1.
         11    1    4    4    0    0 -0.13254103566E-01 -0.80169151216E-01 -0.45341329469E-01  0.93053002891E-01  0.51100000000E-03 0.  1.
</event>
<event>
 8    1  0.1199892E+005  0.1043930E+01  0.7957747E-01            NaN
         13   -1    0    0    0    0  0.00000000000E+00  0.00000000000E+00  0.74505805969E-08  0.10566000000E+00  0.10566000000E+00 0. -1.
     999900   -1    0    0    0    0 -0.00000000000E+00 -0.00000000000E+00 -0.74505805969E-08  0.93827000000E+00  0.93827000000E+00 0.  1.
     999902    2    1    2    0    0  0.12538539180E-01  0.17160012346E-01  0.10041015059E-01  0.10204246182E+01  0.10201538602E+01 0.  0.
     999903    2    3    3    0    0  0.36782705239E-01 -0.11788933108E+00 -0.30709666661E-01  0.12886041819E+00  0.20274663058E-01 0.  0.
         14    1    1    2    0    0 -0.12538539180E-01 -0.17160012346E-01 -0.10041015059E-01  0.23505381765E-01  0.00000000000E+00 0.  1.
     999901    1    3    3    0    0 -0.24244166058E-01  0.13504934342E+00  0.40750681720E-01  0.89156420005E+00  0.88000000000E+00 0. -1.
        -11    1    4    4    0    0  0.19062608238E-01 -0.32962341566E-01 -0.13567065440E-01  0.40425553552E-01  0.51100000000E-03 0.  1.
         11    1    4    4    0    0  0.17720097001E-01 -0.84926989512E-01 -0.17142601221E-01  0.88434864635E-01  0.51100000000E-03 0. -1.
</event>
<event>
 8    1  0.1199892E+005  0.1043930E+01  0.7957747E-01            NaN
         13   -1    0    0    0    0  0.00000000000E+00  0.00000000000E+00  0.74505805969E-08  0.10566000000E+00  0.10566000000E+00 0. -1.
     999900   -1    0    0    0    0 -0.00000000000E+00 -0.00000000000E+00 -0.74505805969E-08  0.93827000000E+00  0.93827000000E+00 0. -1.
     999902    2    1    2    0    0  0.16104493486E-01 -0.75831498663E-02 -0.13034085435E-01  0.10218676734E+01  0.10216294806E+01 0.  0.
     999903    2    3    3    0    0  0.61283405682E-01  0.97708082726E-01  0.60102511067E-01  0.13143163441E+00  0.18958835535E-01 0.  0.
         14    1    1    2    0    0 -0.16104493486E-01  0.75831498663E-02  0.13034085435E-01  0.22062326611E-01  0.00000000000E+00 0. -1.
     999901    1    3    3    0    0 -0.45178912195E-01 -0.10529123259E+00 -0.73136596502E-01  0.89043603898E+00  0.88000000000E+00 0.  1.
        -11    1    4    4    0    0  0.49181107585E-01  0.62012119254E-01  0.42319014336E-01  0.89752127401E-01  0.51100000000E-03 0.  1.
         11    1    4    4    0    0  0.12102298097E-01  0.35695963472E-01  0.17783496731E-01  0.41679507007E-01  0.51100000000E-03 0. -1.
</event>
<event>
 8    1  0.1199892E+005  0.1043930E+01  0.7957747E-01            NaN
         13   -1    0    0    0    0  0.00000000000E+00  0.00000000000E+00  0.74505805969E-08  0.10566000000E+00  0.10566000000E+00 0.  1.
     999900   -1    0    0    0    0 -0.00000000000E+00 -0.00000000000E+00 -0.74505805969E-08  0.93827000000E+00  0.93827000000E+00 0.  1.
     999902    2    1    2    0    0 -0.21997481970E-01  0.35162162847E-02 -0.82749191113E-02  0.10201660088E+01  0.10198891892E+01 0.  0.
     999903    2    3    3    0    0 -0.13052645613E+00 -0.13916057216E-01 -0.54950657099E-02  0.13332320992E+00  0.22673115338E-01 0.  0.
         14    1    1    2    0    0  0.21997481970E-01 -0.35162162847E-02  0.82749191113E-02  0.23763991169E-01  0.00000000000E+00 0. -1.
     999901    1    3    3    0    0  0.10852897416E+00  0.17432273500E-01 -0.27798534013E-02  0.88684279891E+00  0.88000000000E+00 0. -1.
        -11    1    4    4    0    0 -0.27160340196E-01 -0.75669588021E-02 -0.92937602584E-02  0.29691379992E-01  0.51100000000E-03 0.  1.
         11    1    4    4    0    0 -0.10336611593E+00 -0.63490984134E-02  0.37986945485E-02  0.10363182993E+00  0.51100000000E-03 0. -1.
</event>
<event>
 8    1  0.1199892E+005  0.1043930E+01  0.7957747E-01            NaN
         13   -1    0    0    0    0  0.00000000000E+00  0.00000000000E+00  0.74505805969E-08  0.10566000000E+00  0.10566000000E+00 0. -1.
     999900   -1    0    0    0    0 -0.00000000000E+00 -0.00000000000E+00 -0.74505805969E-08  0.93827000000E+00  0.93827000000E+00 0. -1.
     999902    2    1    2    0    0  0.18123070090E-02  0.22448949744E-01 -0.79844119645E-02  0.10200345897E+01  0.10197546634E+01 0.  0.
     999903    2    3    3    0    0 -0.70221137385E-03  0.84328936024E-01  0.98889495242E-01  0.13140784712E+00  0.19417195035E-01 0.  0.
         14    1    1    2    0    0 -0.18123070090E-02 -0.22448949744E-01  0.79844119645E-02  0.23895410349E-01  0.00000000000E+00 0.  1.
     999901    1    3    3    0    0  0.25145183828E-02 -0.61879986280E-01 -0.10687390721E+00  0.88862674253E+00  0.88000000000E+00 0. -1.
        -11    1    4    4    0    0  0.17176141302E-02  0.30255228302E-01  0.49994522805E-01  0.58464027140E-01  0.51100000000E-03 0. -1.
         11    1    4    4    0    0 -0.24198255041E-02  0.54073707722E-01  0.48894972437E-01  0.72943819978E-01  0.51100000000E-03 0.  1.
</event>
<event>
 8    1  0.1199892E+005  0.1043930E+01  0.7957747E-01            NaN
         13   -1    0    0    0    0  0.00000000000E+00  0.00000000000E+00  0.74505805969E-08  0.10566000000E+00  0.10566000000E+00 0.  1.
     999900   -1    0    0    0    0 -0.00000000000E+00 -0.00000000000E+00 -0.74505805969E-08  0.93827000000E+00  0.93827000000E+00 0. -1.
     999902    2    1    2    0    0  0.21132573238E-01 -0.35513382210E-02 -0.94972003279E-02  0.10204908347E+01  0.10202216177E+01 0.  0.
     999903    2    3    3    0    0 -0.85884712422E-01 -0.75474645404E-01  0.55861842698E-01  0.12869631464E+00  0.19224723809E-01 0.  0.
         14    1    1    2    0    0 -0.21132573238E-01  0.35513382210E-02  0.94972003279E-02  0.23439165277E-01  0.00000000000E+00 0. -1.
     999901    1    3    3    0    0  0.10701728566E+00  0.71923307183E-01 -0.65359043026E-01  0.89179452008E+00  0.88000000000E+00 0.  1.
        -11    1    4    4    0    0 -0.38313806911E-01 -0.44169823236E-01  0.22225632762E-01  0.62555263227E-01  0.51100000000E-03 0.  1.
         11    1    4    4    0    0 -0.47570905511E-01 -0.31304822167E-01  0.33636209936E-01  0.66141051412E-01  0.51100000000E-03 0. -1.
</event>
<event>
 8    1  0.1199892E+005  0.1043930E+01  0.7957747E-01            NaN
         13   -1    0    0    0    0  0.00000000000E+00  0.00000000000E+00  0.74505805969E-08  0.10566000000E+00  0.10566000000E+00 0.  1.
     999900   -1    0    0    0    0 -0.00000000000E+00 -0.00000000000E+00 -0.74505805969E-08  0.93827000000E+00  0.93827000000E+00 0.  1.
     999902    2    1    2    0    0  0.46429972758E-02 -0.21453972025E-01 -0.81100439606E-02  0.10205290780E+01  0.10202607489E+01 0.  0.
     999903    2    3    3    0    0 -0.71055928097E-01  0.89623707356E-01 -0.54684948741E-01  0.12910448781E+00  0.24416619685E-01 0.  0.
         14    1    1    2    0    0 -0.46429972758E-02  0.21453972025E-01  0.81100439606E-02  0.23400922042E-01  0.00000000000E+00 0. -1.
     999901    1    3    3    0    0  0.75698925373E-01 -0.11107767938E+00  0.46574904780E-01  0.89142459014E+00  0.88000000000E+00 0.  1.
        -11    1    4    4    0    0 -0.58176461546E-02  0.15532692073E-01 -0.75020486691E-03  0.16611244931E-01  0.51100000000E-03 0.  1.
         11    1    4    4    0    0 -0.65238281943E-01  0.74091015282E-01 -0.53934743874E-01  0.11249324288E+00  0.51100000000E-03 0. -1.
</event>
<event>
 8    1  0.1199892E+005  0.1043930E+01  0.7957747E-01            NaN
         13   -1    0    0    0    0  0.00000000000E+00  0.00000000000E+00  0.74505805969E-08  0.10566000000E+00  0.10566000000E+00 0.  1.
     999900   -1    0    0    0    0 -0.00000000000E+00 -0.00000000000E+00 -0.74505805969E-08  0.93827000000E+00  0.93827000000E+00 0. -1.
     999902    2    1    2    0    0 -0.19748280809E-01 -0.48247337551E-02 -0.33170091418E-02  0.10233320583E+01  0.10231247365E+01 0.  0.
     999903    2    3    3    0    0  0.54775786571E-01 -0.77233301210E-01  0.90271135362E-01  0.13229020857E+00  0.19658377191E-01 0.  0.
         14    1    1    2    0    0  0.19748280809E-01  0.48247337551E-02  0.33170091418E-02  0.20597941654E-01  0.00000000000E+00 0.  1.
     999901    1    3    3    0    0 -0.74524067381E-01  0.72408567455E-01 -0.93588144504E-01  0.89104184978E+00  0.88000000000E+00 0. -1.
        -11    1    4    4    0    0  0.19139940684E-01 -0.38748112695E-01  0.31280907653E-01  0.53352693197E-01  0.51100000000E-03 0.  1.
         11    1    4    4    0    0  0.35635845887E-01 -0.38485188516E-01  0.58990227709E-01  0.78937515374E-01  0.51100000000E-03 0. -1.
</event>
<event>
 8    1  0.1199892E+005  0.1043930E+01  0.7957747E-01            NaN
         13   -1    0    0    0    0  0.00000000000E+00  0.00000000000E+00  0.74505805969E-08  0.10566000000E+00  0.10566000000E+00 0. -1.
     999900   -1    0    0    0    0 -0.00000000000E+00 -0.00000000000E+00 -0.74505805969E-08  0.93827000000E+00  0.93827000000E+00 0.  1.
     999902    2    1    2    0    0 -0.11926689377E-01  0.10468343604E-01 -0.16559276239E-01  0.10209943996E+01  0.10207367546E+01 0.  0.
     999903    2    3    3    0    0  0.99464165496E-01  0.72492769054E-01  0.37603566954E-01  0.13015851936E+00  0.19465100316E-01 0.  0.
         14    1    1    2    0    0  0.11926689377E-01 -0.10468343604E-01  0.16559276239E-01  0.22935600426E-01  0.00000000000E+00 0. -1.
     999901    1    3    3    0    0 -0.11139085487E+00 -0.62024425450E-01 -0.54162843193E-01  0.89083588022E+00  0.88000000000E+00 0.  1.
        -11    1    4    4    0    0  0.50281520725E-01  0.24993659097E-01  0.19257018415E-01  0.59363357391E-01  0.51100000000E-03 0. -1.
         11    1    4    4    0    0  0.49182644771E-01  0.47499109957E-01  0.18346548539E-01  0.70795161965E-01  0.51100000000E-03 0.  1.
</event>
<event>
 8    1  0.1199892E+005  0.1043930E+01  0.7957747E-01            NaN
         13   -1    0    0    0    0  0.00000000000E+00  0.00000000000E+00  0.74505805969E-08  0.10566000000E+00  0.10566000000E+00 0.  1.
     999900   -1    0    0    0    0 -0.00000000000E+00 -0.00000000000E+00 -0.74505805969E-08  0.93827000000E+00  0.93827000000E+00 0. -1.
     999902    2    1    2    0    0  0.87844350962E-02 -0.29780434517E-02 -0.21637122761E-01  0.10203885446E+01  0.10201169451E+01 0.  0.
     999903    2    3    3    0    0  0.78916768513E-02  0.44555680490E-01  0.11756489734E+00  0.12817923373E+00  0.23683826685E-01 0.  0.
         14    1    1    2    0    0 -0.87844350962E-02  0.29780434517E-02  0.21637122761E-01  0.23541455438E-01  0.00000000000E+00 0.  1.
     999901    1    3    3    0    0  0.89275824487E-03 -0.47533723942E-01 -0.13920202010E+00  0.89220931083E+00  0.88000000000E+00 0. -1.
        -11    1    4    4    0    0 -0.57211274466E-02  0.31727295813E-01  0.70128664113E-01  0.77185771034E-01  0.51100000000E-03 0. -1.
         11    1    4    4    0    0  0.13612804298E-01  0.12828384677E-01  0.47436233227E-01  0.50993462699E-01  0.51100000000E-03 0.  1.
</event>
<event>
 8    1  0.1199892E+005  0.1043930E+01  0.7957747E-01            NaN
         13   -1    0    0    0    0  0.00000000000E+00  0.00000000000E+00  0.74505805969E-08  0.10566000000E+00  0.10566000000E+00 0. -1.
     999900   -1    0    0    0    0 -0.00000000000E+00 -0.00000000000E+00 -0.74505805969E-08  0.93827000000E+00  0.93827000000E+00 0.  1.
     999902    2    1    2    0    0 -0.52281445930E-02  0.22995100755E-01 -0.21185571753E-02  0.10202530821E+01  0.10199783111E+01 0.  0.
     999903    2    3    3    0    0 -0.96875426119E-01  0.35723130229E-02 -0.86183341794E-01  0.13129675200E+00  0.20338610481E-01 0.  0.
         14    1    1    2    0    0  0.52281445930E-02 -0.22995100755E-01  0.21185571753E-02  0.23676917856E-01  0.00000000000E+00 0. -1.
     999901    1    3    3    0    0  0.91647281526E-01  0.19422787733E-01  0.84064784619E-01  0.88895633015E+00  0.88000000000E+00 0. -1.
        -11    1    4    4    0    0 -0.42148472293E-01  0.11525296538E-01 -0.40092875136E-01  0.59304518670E-01  0.51100000000E-03 0. -1.
         11    1    4    4    0    0 -0.54726953826E-01 -0.79529835154E-02 -0.46090466658E-01  0.71992233328E-01  0.51100000000E-03 0.  1.
</event>
<event>
 8    1  0.1199892E+005  0.1043930E+01  0.7957747E-01            NaN
         13   -1    0    0    0    0  0.00000000000E+00  0.00000000000E+00  0.74505805969E-08  0.10566000000E+00  0.10566000000E+00 0. -1.
     999900   -1    0    0    0    0 -0.00000000000E+00 -0.00000000000E+00 -0.74505805969E-08  0.93827000000E+00  0.93827000000E+00 0.  1.
     999902    2    1    2    0    0 -0.17575247993E-01 -0.15103693619E-01 -0.52168825970E-02  0.10201765420E+01  0.10198999706E+01 0.  0.
     999903    2    3    3    0    0 -0.11709724890E+00  0.48368047777E-01 -0.30768935301E-01  0.13192759153E+00  0.20172463453E-01 0.  0.
         14    1    1    2    0    0  0.17575247993E-01  0.15103693619E-01  0.52168825970E-02  0.23753458000E-01  0.00000000000E+00 0. -1.
     999901    1    3    3    0    0  0.99522000903E-01 -0.63471741395E-01  0.25552052704E-01  0.88824895047E+00  0.88000000000E+00 0. -1.
        -11    1    4    4    0    0 -0.61456884945E-01  0.18861008992E-01 -0.72426558327E-02  0.64694694928E-01  0.51100000000E-03 0.  1.
         11    1    4    4    0    0 -0.55640363951E-01  0.29507038784E-01 -0.23526279468E-01  0.67232896598E-01  0.51100000000E-03 0. -1.
</event>
<event>
 8    1  0.1199892E+005  0.1043930E+01  0.7957747E-01            NaN
         13   -1    0    0    0    0  0.00000000000E+00  0.00000000000E+00  0.74505805969E-08  0.10566000000E+00  0.10566000000E+00 0.  1.
     999900   -1    0    0    0    0 -0.00000000000E+00 -0.00000000000E+00 -0.74505805969E-08  0.93827000000E+00  0.93827000000E+00 0.  1.
     999902    2    1    2    0    0 -0.38131111603E-02 -0.11376294202E-01  0.25921889282E-01  0.10153659626E+01  0.10149641047E+01 0.  0.
     999903    2    3    3    0    0 -0.10682219861E+00  0.38488516216E-01  0.53581682314E-01  0.12752451533E+00  0.22341829238E-01 0.  0.
         14    1    1    2    0    0  0.38131111603E-02  0.11376294202E-01 -0.25921889282E-01  0.28564037362E-01  0.00000000000E+00 0. -1.
     999901    1    3    3    0    0  0.10300908745E+00 -0.49864810418E-01 -0.27659793032E-01  0.88784144731E+00  0.88000000000E+00 0.  1.
        -11    1    4    4    0    0 -0.46534630162E-01  0.15026630690E-01  0.35249937909E-01  0.60283419593E-01  0.51100000000E-03 0. -1.
         11    1    4    4    0    0 -0.60287568445E-01  0.23461885525E-01  0.18331744405E-01  0.67241095733E-01  0.51100000000E-03 0.  1.
</event>
<event>
 8    1  0.1199892E+005  0.1043930E+01  0.7957747E-01            NaN
         13   -1    0    0    0    0  0.00000000000E+00  0.00000000000E+00  0.74505805969E-08  0.10566000000E+00  0.10566000000E+00 0.  1.
     999900   -1    0    0    0    0 -0.00000000000E+00 -0.00000000000E+00 -0.74505805969E-08  0.93827000000E+00  0.93827000000E+00 0.  1.
     999902    2    1    2    0    0 -0.14283361922E-02  0.20508718327E-01  0.11994044932E-01  0.10201286390E+01  0.10198509378E+01 0.  0.
     999903    2    3    3    0    0 -0.24678415373E-01  0.93915688091E-01  0.89315866974E-01  0.13338864692E+00  0.19647554003E-01 0.  0.
         14    1    1    2    0    0  0.14283361922E-02 -0.20508718327E-01 -0.11994044932E-01  0.23801361002E-01  0.00000000000E+00 0. -1.
     999901    1    3    3    0    0  0.23250079180E-01 -0.73406969764E-01 -0.77321822042E-01  0.88673999208E+00  0.88000000000E+00 0.  1.
        -11    1    4    4    0    0 -0.10943416675E-01  0.41545846073E-01  0.26595285941E-01  0.50531040457E-01  0.51100000000E-03 0. -1.
         11    1    4    4    0    0 -0.13734998697E-01  0.52369842019E-01  0.62720581032E-01  0.82857606460E-01  0.51100000000E-03 0.  1.
</event>
<event>
 8    1  0.1199892E+005  0.1043930E+01  0.7957747E-01            NaN
         13   -1    0    0    0    0  0.00000000000E+00  0.00000000000E+00  0.74505805969E-08  0.10566000000E+00  0.10566000000E+00 0. -1.
     999900   -1    0    0    0    0 -0.00000000000E+00 -0.00000000000E+00 -0.74505805969E-08  0.93827000000E+00  0.93827000000E+00 0. -1.
     999902    2    1    2    0    0 -0.16089422968E-01 -0.86490092999E-02  0.14826828345E-01  0.10204032125E+01  0.10201319553E+01 0.  0.
     999903    2    3    3    0    0  0.23429457870E-01 -0.12428882318E+00 -0.28126641410E-01  0.13092060495E+00  0.18773539314E-01 0.  0.
         14    1    1    2    0    0  0.16089422968E-01  0.86490092999E-02 -0.14826828345E-01  0.23526787543E-01  0.00000000000E+00 0.  1.
     999901    1    3    3    0    0 -0.39518880838E-01  0.11563981388E+00  0.42953469756E-01  0.88948260751E+00  0.88000000000E+00 0.  1.
        -11    1    4    4    0    0  0.13661476254E-01 -0.76108386809E-01 -0.26462665603E-01  0.81729164121E-01  0.51100000000E-03 0.  1.
         11    1    4    4    0    0  0.97679816159E-02 -0.48180436375E-01 -0.16639758071E-02  0.49191440826E-01  0.51100000000E-03 0. -1.
</event>
<event>
 8    1  0.1199892E+005  0.1043930E+01  0.7957747E-01            NaN
         13   -1    0    0    0    0  0.00000000000E+00  0.00000000000E+00  0.74505805969E-08  0.10566000000E+00  0.10566000000E+00 0. -1.
     999900   -1    0    0    0    0 -0.00000000000E+00 -0.00000000000E+00 -0.74505805969E-08  0.93827000000E+00  0.93827000000E+00 0. -1.
     999902    2    1    2    0    0  0.14528859562E-01 -0.74560960960E-02 -0.16657725036E-01  0.10206027427E+01  0.10203361199E+01 0.  0.
     999903    2    3    3    0    0 -0.17258383913E-01 -0.88665078704E-01  0.90370902726E-01  0.12983877012E+00  0.23062050440E-01 0.  0.
         14    1    1    2    0    0 -0.14528859562E-01  0.74560960960E-02  0.16657725036E-01  0.23327257288E-01  0.00000000000E+00 0. -1.
     999901    1    3    3    0    0  0.31787243476E-01  0.81208982608E-01 -0.10702862776E+00  0.89076397259E+00  0.88000000000E+00 0. -1.
        -11    1    4    4    0    0 -0.13742188686E-01 -0.34639514736E-01  0.49703874717E-01  0.62124713391E-01  0.51100000000E-03 0. -1.
         11    1    4    4    0    0 -0.35161952276E-02 -0.54025563968E-01  0.40667028009E-01  0.67714056732E-01  0.51100000000E-03 0.  1.
</event>
<event>
 8    1  0.1199892E+005  0.1043930E+01  0.7957747E-01            NaN
         13   -1    0    0    0    0  0.00000000000E+00  0.00000000000E+00  0.74505805969E-08  0.10566000000E+00  0.10566000000E+00 0.  1.
     999900   -1    0    0    0    0 -0.00000000000E+00 -0.00000000000E+00 -0.74505805969E-08  0.93827000000E+00  0.93827000000E+00 0.  1.
     999902    2    1    2    0    0 -0.24101974719E-01  0.24753652800E-04  0.28094133987E-02  0.10196648274E+01  0.10193760649E+01 0.  0.
     999903    2    3    3    0    0  0.68974273679E-01  0.33134097667E-01  0.10127502183E+00  0.12867947806E+00  0.21129580449E-01 0.  0.
         14    1    1    2    0    0  0.24101974719E-01 -0.24753652800E-04 -0.28094133987E-02  0.24265172609E-01  0.00000000000E+00 0. -1.
     999901    1    3    3    0    0 -0.93076248398E-01 -0.33109344014E-01 -0.98465608430E-01  0.89098534933E+00  0.88000000000E+00 0. -1.
        -11    1    4    4    0    0  0.51807084535E-01  0.23688628122E-01  0.58646587903E-01  0.81760678226E-01  0.51100000000E-03 0.  1.
         11    1    4    4    0    0  0.17167189145E-01  0.94454695445E-02  0.42628433926E-01  0.46918799836E-01  0.51100000000E-03 0. -1.
</event>
<event>
 8    1  0.1199892E+005  0.1043930E+01  0.7957747E-01            NaN
         13   -1    0    0    0    0  0.00000000000E+00  0.00000000000E+00  0.74505805969E-08  0.10566000000E+00  0.10566000000E+00 0.  1.
     999900   -1    0    0    0    0 -0.00000000000E+00 -0.00000000000E+00 -0.74505805969E-08  0.93827000000E+00  0.93827000000E+00 0. -1.
     999902    2    1    2    0    0 -0.12636472996E-01 -0.60855980393E-02 -0.18915039708E-01  0.10203823105E+01  0.10201105655E+01 0.  0.
     999903    2    3    3    0    0 -0.50464589909E-01 -0.12001436271E+00 -0.94942101082E-02  0.13218217435E+00  0.20781364178E-01 0.  0.
         14    1    1    2    0    0  0.12636472996E-01  0.60855980393E-02  0.18915039708E-01  0.23547689492E-01  0.00000000000E+00 0.  1.
     999901    1    3    3    0    0  0.37828116913E-01  0.11392876467E+00 -0.94208295996E-02  0.88820013616E+00  0.88000000000E+00 0. -1.
        -11    1    4    4    0    0 -0.41733261032E-01 -0.73667571423E-01 -0.67473560480E-02  0.84937412783E-01  0.51100000000E-03 0.  1.
         11    1    4    4    0    0 -0.87313288769E-02 -0.46346791290E-01 -0.27468540602E-02  0.47244761562E-01  0.51100000000E-03 0. -1.
</event>
<event>
 8    1  0.1199892E+005  0.1043930E+01  0.7957747E-01            NaN
         13   -1    0    0    0    0  0.00000000000E+00  0.00000000000E+00  0.74505805969E-08  0.10566000000E+00  0.10566000000E+00 0.  1.
     999900   -1    0    0    0    0 -0.00000000000E+00 -0.00000000000E+00 -0.74505805969E-08  0.93827000000E+00  0.93827000000E+00 0. -1.
     999902    2    1    2    0    0  0.10028683084E-01  0.21115643401E-01 -0.37136947273E-02  0.10202606863E+01  0.10199860939E+01 0.  0.
     999903    2    3    3    0    0  0.12581000458E+00  0.35582705550E-01  0.61901076302E-02  0.13250357114E+00  0.20605648374E-01 0.  0.
         14    1    1    2    0    0 -0.10028683084E-01 -0.21115643401E-01  0.37136947273E-02  0.23669313661E-01  0.00000000000E+00 0.  1.
     999901    1    3    3    0    0 -0.11578132149E+00 -0.14467062148E-01 -0.99038023575E-02  0.88775711520E+00  0.88000000000E+00 0.  1.
        -11    1    4    4    0    0  0.53567847092E-01  0.67665627518E-02  0.86571357943E-02  0.54685534968E-01  0.51100000000E-03 0.  1.
         11    1    4    4    0    0  0.72242157486E-01  0.28816142798E-01 -0.24670281641E-02  0.77818036167E-01  0.51100000000E-03 0. -1.
</event>
<event>
 8    1  0.1199892E+005  0.1043930E+01  0.7957747E-01            NaN
         13   -1    0    0    0    0  0.00000000000E+00  0.00000000000E+00  0.74505805969E-08  0.10566000000E+00  0.10566000000E+00 0. -1.
     999900   -1    0    0    0    0 -0.00000000000E+00 -0.00000000000E+00 -0.74505805969E-08  0.93827000000E+00  0.93827000000E+00 0. -1.
     999902    2    1    2    0    0  0.42608193532E-03 -0.23673316993E-01 -0.82988731837E-03  0.10202383096E+01  0.10199631915E+01 0.  0.
     999903    2    3    3    0    0  0.10534909942E+00 -0.46379136899E-01 -0.60553657557E-01  0.13170506730E+00  0.20736977125E-01 0.  0.
         14    1    1    2    0    0 -0.42608193532E-03  0.23673316993E-01  0.82988731837E-03  0.23691690447E-01  0.00000000000E+00 0. -1.
     999901    1    3    3    0    0 -0.10492301749E+00  0.22705819906E-01  0.59723770238E-01  0.88853324225E+00  0.88000000000E+00 0.  1.
        -11    1    4    4    0    0  0.89532448505E-01 -0.41338690638E-01 -0.59247531462E-01  0.11504554656E+00  0.51100000000E-03 0.  1.
         11    1    4    4    0    0  0.15816650918E-01 -0.50404462616E-02 -0.13061260948E-02  0.16659520736E-01  0.51100000000E-03 0. -1.
</event>
<event>
 8    1  0.1199892E+005  0.1043930E+01  0.7957747E-01            NaN
         13   -1    0    0    0    0  0.00000000000E+00  0.00000000000E+00  0.74505805969E-08  0.10566000000E+00  0.10566000000E+00 0. -1.
     999900   -1    0    0    0    0 -0.00000000000E+00 -0.00000000000E+00 -0.74505805969E-08  0.93827000000E+00  0.93827000000E+00 0. -1.
     999902    2    1    2    0    0 -0.14297844492E-01 -0.19159053700E-01 -0.63597658755E-02  0.10191924917E+01  0.10188922371E+01 0.  0.
     999903    2    3    3    0    0 -0.80701801461E-01  0.94039071317E-01 -0.30890858407E-01  0.12912222732E+00  0.19030942186E-01 0.  0.
         14    1    1    2    0    0  0.14297844492E-01  0.19159053700E-01  0.63597658755E-02  0.24737508318E-01  0.00000000000E+00 0.  1.
     999901    1    3    3    0    0  0.66403956970E-01 -0.11319812502E+00  0.24531092532E-01  0.89007026437E+00  0.88000000000E+00 0.  1.
        -11    1    4    4    0    0 -0.62406217515E-01  0.83460076238E-01 -0.24827754591E-01  0.10712982231E+00  0.51100000000E-03 0. -1.
         11    1    4    4    0    0 -0.18295583947E-01  0.10578995079E-01 -0.60631038166E-02  0.21992405001E-01  0.51100000000E-03 0.  1.
</event>
<event>
 8    1  0.1199892E+005  0.1043930E+01  0.7957747E-01            NaN
         13   -1    0    0    0    0  0.00000000000E+00  0.00000000000E+00  0.74505805969E-08  0.10566000000E+00  0.10566000000E+00 0.  1.
     999900   -1    0    0    0    0 -0.00000000000E+00 -0.00000000000E+00 -0.74505805969E-08  0.93827000000E+00  0.93827000000E+00 0.  1.
     999902    2    1    2    0    0  0.26743574718E-01  0.17003867744E-02  0.52219119859E-02  0.10166283797E+01  0.10162617202E+01 0.  0.
     999903    2    3    3    0    0  0.38549303994E-01  0.14959827444E-01 -0.11912495848E+00  0.12770918645E+00  0.20224621011E-01 0.  0.
         14    1    1    2    0    0 -0.26743574718E-01 -0.17003867744E-02 -0.52219119859E-02  0.27301620257E-01  0.00000000000E+00 0. -1.
     999901    1    3    3    0    0 -0.11805729276E-01 -0.13259440669E-01  0.12434687047E+00  0.88891919329E+00  0.88000000000E+00 0. -1.
        -11    1    4    4    0    0  0.26085219119E-01  0.65631439252E-02 -0.48124854066E-01  0.55134165583E-01  0.51100000000E-03 0.  1.
         11    1    4    4    0    0  0.12464084875E-01  0.83966835184E-02 -0.71000104415E-01  0.72575020866E-01  0.51100000000E-03 0. -1.
</event>
<event>
 8    1  0.1199892E+005  0.1043930E+01  0.7957747E-01            NaN
         13   -1    0    0    0    0  0.00000000000E+00  0.00000000000E+00  0.74505805969E-08  0.10566000000E+00  0.10566000000E+00 0. -1.
     999900   -1    0    0    0    0 -0.00000000000E+00 -0.00000000000E+00 -0.74505805969E-08  0.93827000000E+00  0.93827000000E+00 0.  1.
     999902    2    1    2    0    0  0.50842604255E-02  0.67477105357E-02  0.20802039223E-01  0.10214776919E+01  0.10212309087E+01 0.  0.
     999903    2    3    3    0    0 -0.11848621354E+00  0.44126604387E-01  0.32278882300E-01  0.13198426213E+00  0.19793412886E-01 0.  0.
         14    1    1    2    0    0 -0.50842604255E-02 -0.67477105357E-02 -0.20802039223E-01  0.22452308064E-01  0.00000000000E+00 0.  1.
     999901    1    3    3    0    0  0.12357047397E+00 -0.37378893851E-01 -0.11476843077E-01  0.88949342981E+00  0.88000000000E+00 0.  1.
        -11    1    4    4    0    0 -0.39070384509E-01  0.24615306977E-01  0.12661750070E-01  0.47885168050E-01  0.51100000000E-03 0. -1.
         11    1    4    4    0    0 -0.79415829030E-01  0.19511297410E-01  0.19617132230E-01  0.84099094080E-01  0.51100000000E-03 0.  1.
</event>
<event>
 8    1  0.1199892E+005  0.1043930E+01  0.7957747E-01            NaN
         13   -1    0    0    0    0  0.00000000000E+00  0.00000000000E+00  0.74505805969E-08  0.10566000000E+00  0.10566000000E+00 0.  1.
     999900   -1    0    0    0    0 -0.00000000000E+00 -0.00000000000E+00 -0.74505805969E-08  0.93827000000E+00  0.93827000000E+00 0.  1.
     999902    2    1    2    0    0 -0.10414080094E-01  0.17542202910E-01 -0.12499683500E-01  0.10200046153E+01  0.10197239779E+01 0.  0.
     999903    2    3    3    0    0  0.10126781007E+00 -0.50228341403E-01 -0.58753741042E-01  0.12915943842E+00  0.21262709371E-01 0.  0.
         14    1    1    2    0    0  0.10414080094E-01 -0.17542202910E-01  0.12499683500E-01  0.23925384736E-01  0.00000000000E+00 0.  1.
     999901    1    3    3    0    0 -0.11168189017E+00  0.67770544313E-01  0.46254057542E-01  0.89084517684E+00  0.88000000000E+00 0. -1.
        -11    1    4    4    0    0  0.43643619537E-01 -0.21487478422E-01 -0.37234821820E-01  0.61263123755E-01  0.51100000000E-03 0.  1.
         11    1    4    4    0    0  0.57624190534E-01 -0.28740862981E-01 -0.21518919222E-01  0.67896314665E-01  0.51100000000E-03 0. -1.
</event>
<event>
 8    1  0.1199892E+005  0.1043930E+01  0.7957747E-01            NaN
         13   -1    0    0    0    0  0.00000000000E+00  0.00000000000E+00  0.74505805969E-08  0.10566000000E+00  0.10566000000E+00 0. -1.
     999900   -1    0    0    0    0 -0.00000000000E+00 -0.00000000000E+00 -0.74505805969E-08  0.93827000000E+00  0.93827000000E+00 0. -1.
     999902    2    1    2    0    0  0.22720950313E-01 -0.18625105393E-02 -0.81690176469E-03  0.10211182079E+01  0.10208633683E+01 0.  0.
     999903    2    3    3    0    0 -0.12285447101E+00 -0.33977618916E-01 -0.62983081182E-02  0.12856365538E+00  0.15532068884E-01 0.  0.
         14    1    1    2    0    0 -0.22720950313E-01  0.18625105393E-02  0.81690176469E-03  0.22811792063E-01  0.00000000000E+00 0.  1.
     999901    1    3    3    0    0  0.14557542133E+00  0.32115108377E-01  0.54814063535E-02  0.89255455256E+00  0.88000000000E+00 0.  1.
        -11    1    4    4    0    0 -0.18517299365E-01 -0.72172567185E-02 -0.62774406626E-02  0.20848178639E-01  0.51100000000E-03 0.  1.
         11    1    4    4    0    0 -0.10433717165E+00 -0.26760362198E-01 -0.20867455602E-04  0.10771547674E+00  0.51100000000E-03 0. -1.
</event>
<event>
 8    1  0.1199892E+005  0.1043930E+01  0.7957747E-01            NaN
         13   -1    0    0    0    0  0.00000000000E+00  0.00000000000E+00  0.74505805969E-08  0.10566000000E+00  0.10566000000E+00 0.  1.
     999900   -1    0    0    0    0 -0.00000000000E+00 -0.00000000000E+00 -0.74505805969E-08  0.93827000000E+00  0.93827000000E+00 0.  1.
     999902    2    1    2    0    0 -0.18242538936E-01 -0.21987596580E-03 -0.13695984804E-01  0.10211173155E+01  0.10208624557E+01 0.  0.
     999903    2    3    3    0    0  0.66382507968E-01  0.84291473430E-01  0.69108574563E-01  0.12917552272E+00  0.19965739011E-01 0.  0.
         14    1    1    2    0    0  0.18242538936E-01  0.21987596580E-03  0.13695984804E-01  0.22812684454E-01  0.00000000000E+00 0.  1.
     999901    1    3    3    0    0 -0.84625046903E-01 -0.84511349396E-01 -0.82804559368E-01  0.89194179283E+00  0.88000000000E+00 0.  1.
        -11    1    4    4    0    0  0.42026245224E-01  0.67603917228E-01  0.50093340142E-01  0.94053701468E-01  0.51100000000E-03 0.  1.
         11    1    4    4    0    0  0.24356262744E-01  0.16687556202E-01  0.19015234421E-01  0.35121821250E-01  0.51100000000E-03 0. -1.
</event>
<event>
 8    1  0.1199892E+005  0.1043930E+01  0.7957747E-01            NaN
         13   -1    0    0    0    0  0.00000000000E+00  0.00000000000E+00  0.74505805969E-08  0.10566000000E+00  0.10566000000E+00 0.  1.
     999900   -1    0    0    0    0 -0.00000000000E+00 -0.00000000000E+00 -0.74505805969E-08  0.93827000000E+00  0.93827000000E+00 0. -1.
     999902    2    1    2    0    0  0.12119813917E-01  0.93918508848E-02 -0.20576348616E-01  0.10182690788E+01  0.10179456931E+01 0.  0.
     999903    2    3    3    0    0  0.90497163300E-01 -0.85568344605E-01 -0.29943869787E-01  0.12964756319E+00  0.20004427990E-01 0.  0.
         14    1    1    2    0    0 -0.12119813917E-01 -0.93918508848E-02  0.20576348616E-01  0.25660921160E-01  0.00000000000E+00 0.  1.
     999901    1    3    3    0    0 -0.78377349383E-01  0.94960195490E-01  0.93675211708E-02  0.88862151565E+00  0.88000000000E+00 0. -1.
        -11    1    4    4    0    0  0.16275971959E-01 -0.63215958152E-02 -0.59206583046E-02  0.18444108886E-01  0.51100000000E-03 0. -1.
         11    1    4    4    0    0  0.74221191341E-01 -0.79246748790E-01 -0.24023211482E-01  0.11120345430E+00  0.51100000000E-03 0.  1.
</event>
<event>
 7    1  0.1199892E+005  0.1043930E+01  0.7957747E-01            NaN
         13   -1    0    0    0    0  0.00000000000E+00  0.00000000000E+00  0.74505805969E-08  0.10566000000E+00  0.10566000000E+00 0.  1.
     999900   -1    0    0    0    0 -0.00000000000E+00 -0.00000000000E+00 -0.74505805969E-08  0.93827000000E+00  0.93827000000E+00 0. -1.
     999903    2    1    2    0    0 -0.57294678082E-02  0.36804467523E-01 -0.10551584090E+00  0.11351776565E+00  0.19112687044E-01 0.  0.
         14    1    1    2    0    0  0.35756161139E-01 -0.12300733399E-01  0.26184838688E-01  0.45994096128E-01  0.00000000000E+00 0.  1.
     999901    1    1    2    0    0 -0.30026693331E-01 -0.24503734124E-01  0.79331002216E-01  0.88441813822E+00  0.88000000000E+00 0.  1.
        -11    1    3    3    0    0  0.27817602704E-02  0.24185926546E-02 -0.28529158430E-01  0.28770849524E-01  0.51100000000E-03 0. -1.
         11    1    3    3    0    0 -0.85112280786E-02  0.34385874868E-01 -0.76986682474E-01  0.84746916128E-01  0.51100000000E-03 0.  1.
</event>
<event>
 8    1  0.1199892E+005  0.1043930E+01  0.7957747E-01            NaN
         13   -1    0    0    0    0  0.00000000000E+00  0.00000000000E+00  0.74505805969E-08  0.10566000000E+00  0.10566000000E+00 0. -1.
     999900   -1    0    0    0    0 -0.00000000000E+00 -0.00000000000E+00 -0.74505805969E-08  0.93827000000E+00  0.93827000000E+00 0.  1.
     999902    2    1    2    0    0  0.16423145138E-01  0.99647789504E-04  0.17828790643E-01  0.10196896328E+01  0.10194014675E+01 0.  0.
     999903    2    3    3    0    0 -0.11789083982E+00  0.99160586244E-02 -0.43272910732E-01  0.12734999658E+00  0.18678824711E-01 0.  0.
         14    1    1    2    0    0 -0.16423145138E-01 -0.99647789504E-04 -0.17828790643E-01  0.24240367194E-01  0.00000000000E+00 0. -1.
     999901    1    3    3    0    0  0.13431398496E+00 -0.98164108349E-02  0.61101701375E-01  0.89233963623E+00  0.88000000000E+00 0. -1.
        -11    1    4    4    0    0 -0.80043631242E-01 -0.15665444334E-02 -0.32020768536E-01  0.86226606697E-01  0.51100000000E-03 0. -1.
         11    1    4    4    0    0 -0.37847208578E-01  0.11482603058E-01 -0.11252142196E-01  0.41123389879E-01  0.51100000000E-03 0.  1.
</event>
<event>
 8    1  0.1199892E+005  0.1043930E+01  0.7957747E-01            NaN
         13   -1    0    0    0    0  0.00000000000E+00  0.00000000000E+00  0.74505805969E-08  0.10566000000E+00  0.10566000000E+00 0.  1.
     999900   -1    0    0    0    0 -0.00000000000E+00 -0.00000000000E+00 -0.74505805969E-08  0.93827000000E+00  0.93827000000E+00 0. -1.
     999902    2    1    2    0    0 -0.90390931430E-02 -0.20090940781E-01 -0.45256273085E-02  0.10214392817E+01  0.10211916440E+01 0.  0.
     999903    2    3    3    0    0 -0.12269311621E+00 -0.45580007758E-01  0.17610376529E-01  0.13348830776E+00  0.19438751866E-01 0.  0.
         14    1    1    2    0    0  0.90390931430E-02  0.20090940781E-01  0.45256273085E-02  0.22490718282E-01  0.00000000000E+00 0.  1.
     999901    1    3    3    0    0  0.11365402306E+00  0.25489066977E-01 -0.22136003837E-01  0.88795097396E+00  0.88000000000E+00 0.  1.
        -11    1    4    4    0    0 -0.63038938525E-01 -0.16843212545E-01  0.11782181322E-02  0.65262936634E-01  0.51100000000E-03 0.  1.
         11    1    4    4    0    0 -0.59654177683E-01 -0.28736795213E-01  0.16432158397E-01  0.68225371122E-01  0.51100000000E-03 0. -1.
</event>
<event>
 8    1  0.1199892E+005  0.1043930E+01  0.7957747E-01            NaN
         13   -1    0    0    0    0  0.00000000000E+00  0.00000000000E+00  0.74505805969E-08  0.10566000000E+00  0.10566000000E+00 0.  1.
     999900   -1    0    0    0    0 -0.00000000000E+00 -0.00000000000E+00 -0.74505805969E-08  0.93827000000E+00  0.93827000000E+00 0.  1.
     999902    2    1    2    0    0 -0.18933118146E-01 -0.13851312742E-01  0.65746348186E-03  0.10204618495E+01  0.10201919586E+01 0.  0.
     999903    2    3    3    0    0 -0.12751850316E+00 -0.96232871485E-02 -0.31091766226E-01  0.13320953164E+00  0.20603521339E-01 0.  0.
         14    1    1    2    0    0  0.18933118146E-01  0.13851312742E-01 -0.65746348186E-03  0.23468150452E-01  0.00000000000E+00 0. -1.
     999901    1    3    3    0    0  0.10858538501E+00 -0.42280255930E-02  0.31749229708E-01  0.88725231790E+00  0.88000000000E+00 0. -1.
        -11    1    4    4    0    0 -0.18883453326E-01  0.45226082671E-02 -0.91891888817E-02  0.21488162051E-01  0.51100000000E-03 0. -1.
         11    1    4    4    0    0 -0.10863504983E+00 -0.14145895416E-01 -0.21902577344E-01  0.11172136959E+00  0.51100000000E-03 0.  1.
</event>
<event>
 8    1  0.1199892E+005  0.1043930E+01  0.7957747E-01            NaN
         13   -1    0    0    0    0  0.00000000000E+00  0.00000000000E+00  0.74505805969E-08  0.10566000000E+00  0.10566000000E+00 0. -1.
     999900   -1    0    0    0    0 -0.00000000000E+00 -0.00000000000E+00 -0.74505805969E-08  0.93827000000E+00  0.93827000000E+00 0.  1.
     999902    2    1    2    0    0  0.65216516632E-02 -0.20456244833E-01 -0.10247526765E-01  0.10201392098E+01  0.10198617581E+01 0.  0.
     999903    2    3    3    0    0 -0.87151074215E-01  0.61968853972E-01 -0.69756506149E-01  0.12934754218E+00  0.20721194925E-01 0.  0.
         14    1    1    2    0    0 -0.65216516632E-02  0.20456244833E-01  0.10247526765E-01  0.23790790190E-01  0.00000000000E+00 0. -1.
     999901    1    3    3    0    0  0.93672725879E-01 -0.82425098805E-01  0.59508979384E-01  0.89079166763E+00  0.88000000000E+00 0. -1.
        -11    1    4    4    0    0 -0.24347455278E-01  0.68120334489E-02 -0.14550039889E-01  0.29174769236E-01  0.51100000000E-03 0.  1.
         11    1    4    4    0    0 -0.62803618938E-01  0.55156820524E-01 -0.55206466260E-01  0.10017277295E+00  0.51100000000E-03 0. -1.
</event>
<event>
 8    1  0.1199892E+005  0.1043930E+01  0.7957747E-01            NaN
         13   -1    0    0    0    0  0.00000000000E+00  0.00000000000E+00  0.74505805969E-08  0.10566000000E+00  0.10566000000E+00 0. -1.
     999900   -1    0    0    0    0 -0.00000000000E+00 -0.00000000000E+00 -0.74505805969E-08  0.93827000000E+00  0.93827000000E+00 0. -1.
     999902    2    1    2    0    0  0.81306331475E-02  0.18993995974E-01  0.10161913273E-01  0.10209051534E+01  0.10206454765E+01 0.  0.
     999903    2    3    3    0    0 -0.99017869264E-01 -0.49413989473E-01 -0.62563872812E-01  0.12880118303E+00  0.20717764799E-01 0.  0.
         14    1    1    2    0    0 -0.81306331475E-02 -0.18993995974E-01 -0.10161913273E-01  0.23024846575E-01  0.00000000000E+00 0.  1.
     999901    1    3    3    0    0  0.10714850241E+00  0.68407985447E-01  0.72725786085E-01  0.89210397040E+00  0.88000000000E+00 0.  1.
        -11    1    4    4    0    0 -0.27366083057E-01 -0.10629514494E-01 -0.27042025760E-01  0.39917682278E-01  0.51100000000E-03 0. -1.
         11    1    4    4    0    0 -0.71651786207E-01 -0.38784474980E-01 -0.35521847052E-01  0.88883500747E-01  0.51100000000E-03 0.  1.
</event>
<event>
 8    1  0.1199892E+005  0.1043930E+01  0.7957747E-01            NaN
         13   -1    0    0    0    0  0.00000000000E+00  0.00000000000E+00  0.74505805969E-08  0.10566000000E+00  0.10566000000E+00 0.  1.
     999900   -1    0    0    0    0 -0.00000000000E+00 -0.00000000000E+00 -0.74505805969E-08  0.93827000000E+00  0.93827000000E+00 0. -1.
     999902    2    1    2    0    0  0.16293676045E-01  0.12974990299E-01 -0.86497698396E-02  0.10213766683E+01  0.10211276344E+01 0.  0.
     999903    2    3    3    0    0 -0.17830992498E-01  0.11684285700E+00  0.56096144000E-01  0.13225065918E+00  0.19319988542E-01 0.  0.
         14    1    1    2    0    0 -0.16293676045E-01 -0.12974990299E-01  0.86497698396E-02  0.22553331696E-01  0.00000000000E+00 0.  1.
     999901    1    3    3    0    0  0.34124668543E-01 -0.10386786670E+00 -0.64745913840E-01  0.88912600912E+00  0.88000000000E+00 0. -1.
        -11    1    4    4    0    0 -0.14523691695E-01  0.43502297889E-01  0.27387891010E-01  0.53420457103E-01  0.51100000000E-03 0. -1.
         11    1    4    4    0    0 -0.33073008034E-02  0.73340559111E-01  0.28708252990E-01  0.78830202081E-01  0.51100000000E-03 0.  1.
</event>
<event>
 8    1  0.1199892E+005  0.1043930E+01  0.7957747E-01            NaN
         13   -1    0    0    0    0  0.00000000000E+00  0.00000000000E+00  0.74505805969E-08  0.10566000000E+00  0.10566000000E+00 0.  1.
     999900   -1    0    0    0    0 -0.00000000000E+00 -0.00000000000E+00 -0.74505805969E-08  0.93827000000E+00  0.93827000000E+00 0. -1.
     999902    2    1    2    0    0 -0.60306944032E-02  0.17279878451E-01 -0.18096275192E-01  0.10181921164E+01  0.10178667631E+01 0.  0.
     999903    2    3    3    0    0  0.66331226853E-02  0.14271656044E-01  0.12407339031E+00  0.12668685260E+00  0.20190937490E-01 0.  0.
         14    1    1    2    0    0  0.60306944032E-02 -0.17279878451E-01  0.18096275192E-01  0.25737883559E-01  0.00000000000E+00 0.  1.
     999901    1    3    3    0    0 -0.12663817089E-01  0.30082224070E-02 -0.14216966550E+00  0.89150526384E+00  0.88000000000E+00 0. -1.
        -11    1    4    4    0    0  0.12723121775E-01  0.51222811381E-02  0.52109474462E-01  0.53886677774E-01  0.51100000000E-03 0. -1.
         11    1    4    4    0    0 -0.60899990898E-02  0.91493749059E-02  0.71963915846E-01  0.72800174827E-01  0.51100000000E-03 0.  1.
</event>
<event>
 8    1  0.1199892E+005  0.1043930E+01  0.7957747E-01            NaN
         13   -1    0    0    0    0  0.00000000000E+00  0.00000000000E+00  0.74505805969E-08  0.10566000000E+00  0.10566000000E+00 0.  1.
     999900   -1    0    0    0    0 -0.00000000000E+00 -0.00000000000E+00 -0.74505805969E-08  0.93827000000E+00  0.93827000000E+00 0.  1.
     999902    2    1    2    0    0 -0.15318271164E-01  0.14626818084E-01  0.30261473412E-02  0.10225348883E+01  0.10223110324E+01 0.  0.
     999903    2    3    3    0    0 -0.28067668367E-02  0.11103018486E+00 -0.73489407203E-01  0.13388153798E+00  0.13711066773E-01 0.  0.
         14    1    1    2    0    0  0.15318271164E-01 -0.14626818084E-01 -0.30261473412E-02  0.21395111742E-01  0.00000000000E+00 0. -1.
     999901    1    3    3    0    0 -0.12511504328E-01 -0.96403366775E-01  0.76515554544E-01  0.88865335027E+00  0.88000000000E+00 0. -1.
        -11    1    4    4    0    0  0.52577102029E-03  0.39973476299E-01 -0.18951728397E-01  0.44244597103E-01  0.51100000000E-03 0. -1.
         11    1    4    4    0    0 -0.33325378570E-02  0.71056708560E-01 -0.54537678806E-01  0.89636940881E-01  0.51100000000E-03 0.  1.
</event>
<event>
 8    1  0.1199892E+005  0.1043930E+01  0.7957747E-01            NaN
         13   -1    0    0    0    0  0.00000000000E+00  0.00000000000E+00  0.74505805969E-08  0.10566000000E+00  0.10566000000E+00 0.  1.
     999900   -1    0    0    0    0 -0.00000000000E+00 -0.00000000000E+00 -0.74505805969E-08  0.93827000000E+00  0.93827000000E+00 0.  1.
     999902    2    1    2    0    0 -0.18900248209E-01 -0.82871335599E-03 -0.14362205807E-01  0.10201775453E+01  0.10199009976E+01 0.  0.
     999903    2    3    3    0    0  0.56725818105E-01  0.54611146775E-01  0.98691395157E-01  0.12800379727E+00  0.21089922853E-01 0.  0.
         14    1    1    2    0    0  0.18900248209E-01  0.82871335599E-03  0.14362205807E-01  0.23752454691E-01  0.00000000000E+00 0.  1.
     999901    1    3    3    0    0 -0.75626066314E-01 -0.55439860131E-01 -0.11305360096E+00  0.89217374804E+00  0.88000000000E+00 0.  1.
        -11    1    4    4    0    0  0.31238155640E-01  0.39707678714E-01  0.50166865023E-01  0.71200404380E-01  0.51100000000E-03 0.  1.
         11    1    4    4    0    0  0.25487662466E-01  0.14903468061E-01  0.48524530134E-01  0.56803392891E-01  0.51100000000E-03 0. -1.
</event>
<event>
 8    1  0.1199892E+005  0.1043930E+01  0.7957747E-01            NaN
         13   -1    0    0    0    0  0.00000000000E+00  0.00000000000E+00  0.74505805969E-08  0.10566000000E+00  0.10566000000E+00 0. -1.
     999900   -1    0    0    0    0 -0.00000000000E+00 -0.00000000000E+00 -0.74505805969E-08  0.93827000000E+00  0.93827000000E+00 0. -1.
     999902    2    1    2    0    0 -0.95512532623E-02  0.22843918599E-01 -0.55170010229E-03  0.10191635826E+01  0.10188626172E+01 0.  0.
     999903    2    3    3    0    0 -0.97907535560E-01  0.53533137086E-01  0.66981453068E-01  0.13163364651E+00  0.19728648011E-01 0.  0.
         14    1    1    2    0    0  0.95512532623E-02 -0.22843918599E-01  0.55170010229E-03  0.24766417360E-01  0.00000000000E+00 0. -1.
     999901    1    3    3    0    0  0.88356282298E-01 -0.30689218487E-01 -0.67533153170E-01  0.88752993613E+00  0.88000000000E+00 0.  1.
        -11    1    4    4    0    0 -0.63384179664E-01  0.40408937850E-01  0.35642854015E-01  0.83193212783E-01  0.51100000000E-03 0. -1.
         11    1    4    4    0    0 -0.34523355897E-01  0.13124199236E-01  0.31338599053E-01  0.48440433726E-01  0.51100000000E-03 0.  1.
</event>
<event>
 8    1  0.1199892E+005  0.1043930E+01  0.7957747E-01            NaN
         13   -1    0    0    0    0  0.00000000000E+00  0.00000000000E+00  0.74505805969E-08  0.10566000000E+00  0.10566000000E+00 0.  1.
     999900   -1    0    0    0    0 -0.00000000000E+00 -0.00000000000E+00 -0.74505805969E-08  0.93827000000E+00  0.93827000000E+00 0.  1.
     999902    2    1    2    0    0 -0.19888841116E-01  0.21627731371E-01 -0.35676578551E-02  0.10143318084E+01  0.10138998789E+01 0.  0.
     999903    2    3    3    0    0  0.93592123890E-01  0.77174291418E-01 -0.23431066331E-01  0.12508611412E+00  0.19549019553E-01 0.  0.
         14    1    1    2    0    0  0.19888841116E-01 -0.21627731371E-01  0.35676578551E-02  0.29598191630E-01  0.00000000000E+00 0. -1.
     999901    1    3    3    0    0 -0.11348096501E+00 -0.55546560047E-01  0.19863408476E-01  0.88924569425E+00  0.88000000000E+00 0. -1.
        -11    1    4    4    0    0  0.33933273140E-01  0.16722413833E-01 -0.96052016404E-02  0.39033667135E-01  0.51100000000E-03 0.  1.
         11    1    4    4    0    0  0.59658850750E-01  0.60451877584E-01 -0.13825864691E-01  0.86052446983E-01  0.51100000000E-03 0. -1.
</event>
<event>
 8    1  0.1199892E+005  0.1043930E+01  0.7957747E-01            NaN
         13   -1    0    0    0    0  0.00000000000E+00  0.00000000000E+00  0.74505805969E-08  0.10566000000E+00  0.10566000000E+00 0.  1.
     999900   -1    0    0    0    0 -0.00000000000E+00 -0.00000000000E+00 -0.74505805969E-08  0.93827000000E+00  0.93827000000E+00 0.  1.
     999902    2    1    2    0    0  0.20631020901E-03  0.21187484532E-01  0.99973447591E-02  0.10205014071E+01  0.10202324357E+01 0.  0.
     999903    2    3    3    0    0 -0.60211234015E-01 -0.10483305204E+00  0.39880885835E-01  0.12897211348E+00  0.20687182000E-01 0.  0.
         14    1    1    2    0    0 -0.20631020901E-03 -0.21187484532E-01 -0.99973447591E-02  0.23428592936E-01  0.00000000000E+00 0. -1.
     999901    1    3    3    0    0  0.60417544224E-01  0.12602053657E+00 -0.29883541076E-01  0.89152929358E+00  0.88000000000E+00 0.  1.
        -11    1    4    4    0    0 -0.48999487701E-01 -0.90595594447E-01  0.26253126100E-01  0.10629204711E+00  0.51100000000E-03 0.  1.
         11    1    4    4    0    0 -0.11211746314E-01 -0.14237457594E-01  0.13627759735E-01  0.22680066370E-01  0.51100000000E-03 0. -1.
</event>
<event>
 8    1  0.1199892E+005  0.1043930E+01  0.7957747E-01            NaN
         13   -1    0    0    0    0  0.00000000000E+00  0.00000000000E+00  0.74505805969E-08  0.10566000000E+00  0.10566000000E+00 0. -1.
     999900   -1    0    0    0    0 -0.00000000000E+00 -0.00000000000E+00 -0.74505805969E-08  0.93827000000E+00  0.93827000000E+00 0. -1.
     999902    2    1    2    0    0  0.16932540434E-01 -0.84507114579E-02 -0.13830027359E-01  0.10204908211E+01  0.10202216038E+01 0.  0.
     999903    2    3    3    0    0 -0.92673676070E-01  0.76898766566E-01 -0.42187005359E-01  0.12914230663E+00  0.19903803747E-01 0.  0.
         14    1    1    2    0    0 -0.16932540434E-01  0.84507114579E-02  0.13830027359E-01  0.23439178877E-01  0.00000000000E+00 0. -1.
     999901    1    3    3    0    0  0.10960621650E+00 -0.85349478024E-01  0.28356978000E-01  0.89134851450E+00  0.88000000000E+00 0. -1.
        -11    1    4    4    0    0 -0.56294354071E-01  0.33838159877E-01 -0.22899534654E-01  0.69560945742E-01  0.51100000000E-03 0.  1.
         11    1    4    4    0    0 -0.36379321999E-01  0.43060606689E-01 -0.19287470705E-01  0.59581360884E-01  0.51100000000E-03 0. -1.
</event>
<event>
 8    1  0.1199892E+005  0.1043930E+01  0.7957747E-01            NaN
         13   -1    0    0    0    0  0.00000000000E+00  0.00000000000E+00  0.74505805969E-08  0.10566000000E+00  0.10566000000E+00 0.  1.
     999900   -1    0    0    0    0 -0.00000000000E+00 -0.00000000000E+00 -0.74505805969E-08  0.93827000000E+00  0.93827000000E+00 0. -1.
     999902    2    1    2    0    0  0.18394002482E-01 -0.78165090731E-02 -0.86414571109E-02  0.10221558887E+01  0.10219239448E+01 0.  0.
     999903    2    3    3    0    0  0.66097918910E-01  0.49385049406E-01 -0.10352688354E+00  0.13392679322E+00  0.20267025831E-01 0.  0.
         14    1    1    2    0    0 -0.18394002482E-01  0.78165090731E-02  0.86414571109E-02  0.21774111289E-01  0.00000000000E+00 0. -1.
     999901    1    3    3    0    0 -0.47703916428E-01 -0.57201558479E-01  0.94885426431E-01  0.88822909550E+00  0.88000000000E+00 0.  1.
        -11    1    4    4    0    0  0.50337428158E-01  0.45444430853E-01 -0.90534180592E-01  0.11311830951E+00  0.51100000000E-03 0.  1.
         11    1    4    4    0    0  0.15760490753E-01  0.39406185533E-02 -0.12992702950E-01  0.20808483710E-01  0.51100000000E-03 0. -1.
</event>
<event>
 8    1  0.1199892E+005  0.1043930E+01  0.7957747E-01            NaN
         13   -1    0    0    0    0  0.00000000000E+00  0.00000000000E+00  0.74505805969E-08  0.10566000000E+00  0.10566000000E+00 0. -1.
     999900   -1    0    0    0    0 -0.00000000000E+00 -0.00000000000E+00 -0.74505805969E-08  0.93827000000E+00  0.93827000000E+00 0. -1.
     999902    2    1    2    0    0  0.37060360058E-02 -0.73268494117E-02  0.22711440316E-01  0.10197799079E+01  0.10194939106E+01 0.  0.
     999903    2    3    3    0    0  0.75858671074E-01 -0.10152987758E+00  0.30035044853E-01  0.13178562392E+00  0.20062221575E-01 0.  0.
         14    1    1    2    0    0 -0.37060360058E-02  0.73268494117E-02 -0.22711440316E-01  0.24150092058E-01  0.00000000000E+00 0.  1.
     999901    1    3    3    0    0 -0.72152635068E-01  0.94203028173E-01 -0.73236045365E-02  0.88799428402E+00  0.88000000000E+00 0.  1.
        -11    1    4    4    0    0  0.19948941536E-01 -0.39104731566E-01  0.16476653067E-01  0.46892233009E-01  0.51100000000E-03 0.  1.
         11    1    4    4    0    0  0.55909729538E-01 -0.62425146018E-01  0.13558391786E-01  0.84893390916E-01  0.51100000000E-03 0. -1.
</event>
<event>
 8    1  0.1199892E+005  0.1043930E+01  0.7957747E-01            NaN
         13   -1    0    0    0    0  0.00000000000E+00  0.00000000000E+00  0.74505805969E-08  0.10566000000E+00  0.10566000000E+00 0.  1.
     999900   -1    0    0    0    0 -0.00000000000E+00 -0.00000000000E+00 -0.74505805969E-08  0.93827000000E+00  0.93827000000E+00 0. -1.
     999902    2    1    2    0    0  0.17198936527E-01 -0.12997659875E-01  0.55417050873E-02  0.10216712248E+01  0.10214287241E+01 0.  0.
     999903    2    3    3    0    0 -0.24818839425E-01 -0.10593281091E+00  0.74021487935E-01  0.13313764833E+00  0.20216763038E-01 0.  0.
         14    1    1    2    0    0 -0.17198936527E-01  0.12997659875E-01 -0.55417050873E-02  0.22258775239E-01  0.00000000000E+00 0. -1.
     999901    1    3    3    0    0  0.42017775952E-01  0.92935151036E-01 -0.68479782848E-01  0.88853357644E+00  0.88000000000E+00 0.  1.
        -11    1    4    4    0    0 -0.19225404232E-01 -0.50053250292E-01  0.44551793385E-01  0.69714183976E-01  0.51100000000E-03 0. -1.
         11    1    4    4    0    0 -0.55934351932E-02 -0.55879560619E-01  0.29469694550E-01  0.63423464350E-01  0.51100000000E-03 0.  1.
</event>
<event>
 8    1  0.1199892E+005  0.1043930E+01  0.7957747E-01            NaN
         13   -1    0    0    0    0  0.00000000000E+00  0.00000000000E+00  0.74505805969E-08  0.10566000000E+00  0.10566000000E+00 0. -1.
     999900   -1    0    0    0    0 -0.00000000000E+00 -0.00000000000E+00 -0.74505805969E-08  0.93827000000E+00  0.93827000000E+00 0.  1.
     999902    2    1    2    0    0  0.19047385934E-01  0.57057771330E-02 -0.13076314670E-01  0.10201319159E+01  0.10198542920E+01 0.  0.
     999903    2    3    3    0    0  0.28435620251E-01 -0.12458666537E+00  0.73361919437E-02  0.13025499743E+00  0.24127224393E-01 0.  0.
         14    1    1    2    0    0 -0.19047385934E-01 -0.57057771330E-02  0.13076314670E-01  0.23798084145E-01  0.00000000000E+00 0. -1.
     999901    1    3    3    0    0 -0.93882343171E-02  0.13029244250E+00 -0.20412506613E-01  0.88987691842E+00  0.88000000000E+00 0.  1.
        -11    1    4    4    0    0  0.20577554001E-01 -0.40539946553E-01 -0.57828466550E-03  0.45469973931E-01  0.51100000000E-03 0.  1.
         11    1    4    4    0    0  0.78580662501E-02 -0.84046718817E-01  0.79144766092E-02  0.84785023501E-01  0.51100000000E-03 0. -1.
</event>
<event>
 8    1  0.1199892E+005  0.1043930E+01  0.7957747E-01            NaN
         13   -1    0    0    0    0  0.00000000000E+00  0.00000000000E+00  0.74505805969E-08  0.10566000000E+00  0.10566000000E+00 0.  1.
     999900   -1    0    0    0    0 -0.00000000000E+00 -0.00000000000E+00 -0.74505805969E-08  0.93827000000E+00  0.93827000000E+00 0. -1.
     999902    2    1    2    0    0 -0.11077461571E-01 -0.20306621391E-01  0.46065360725E-03  0.10207938545E+01  0.10205316321E+01 0.  0.
     999903    2    3    3    0    0  0.60885770104E-01  0.22608191885E-01 -0.11077959621E+00  0.12984223903E+00  0.19201061380E-01 0.  0.
         14    1    1    2    0    0  0.11077461571E-01  0.20306621391E-01 -0.46065360725E-03  0.23136145507E-01  0.00000000000E+00 0. -1.
     999901    1    3    3    0    0 -0.71963231676E-01 -0.42914813276E-01  0.11124024982E+00  0.89095161546E+00  0.88000000000E+00 0.  1.
        -11    1    4    4    0    0  0.52379817006E-01  0.25604003274E-01 -0.90688341126E-01  0.10781394414E+00  0.51100000000E-03 0.  1.
         11    1    4    4    0    0  0.85059530989E-02 -0.29958113885E-02 -0.20091255088E-01  0.22028294896E-01  0.51100000000E-03 0. -1.
</event>
<event>
 8    1  0.1199892E+005  0.1043930E+01  0.7957747E-01            NaN
         13   -1    0    0    0    0  0.00000000000E+00  0.00000000000E+00  0.74505805969E-08  0.10566000000E+00  0.10566000000E+00 0.  1.
     999900   -1    0    0    0    0 -0.00000000000E+00 -0.00000000000E+00 -0.74505805969E-08  0.93827000000E+00  0.93827000000E+00 0.  1.
     999902    2    1    2    0    0  0.10578921960E-01 -0.13285426559E-01 -0.14453384427E-01  0.10216294065E+01  0.10213859837E+01 0.  0.
     999903    2    3    3    0    0  0.42785962337E-02  0.79634308958E-01  0.10006864147E+00  0.12933513567E+00  0.18812622476E-01 0.  0.
         14    1    1    2    0    0 -0.10578921960E-01  0.13285426559E-01  0.14453384427E-01  0.22300593492E-01  0.00000000000E+00 0.  1.
     999901    1    3    3    0    0  0.63003257268E-02 -0.92919735517E-01 -0.11452202590E+00  0.89229427084E+00  0.88000000000E+00 0.  1.
        -11    1    4    4    0    0 -0.31591326077E-02  0.26409477170E-01  0.45747916922E-01  0.52920446209E-01  0.51100000000E-03 0.  1.
         11    1    4    4    0    0  0.74377288414E-02  0.53224831788E-01  0.54320724548E-01  0.76414689462E-01  0.51100000000E-03 0. -1.
</event>
<event>
 8    1  0.1199892E+005  0.1043930E+01  0.7957747E-01            NaN
         13   -1    0    0    0    0  0.00000000000E+00  0.00000000000E+00  0.74505805969E-08  0.10566000000E+00  0.10566000000E+00 0. -1.
     999900   -1    0    0    0    0 -0.00000000000E+00 -0.00000000000E+00 -0.74505805969E-08  0.93827000000E+00  0.93827000000E+00 0. -1.
     999902    2    1    2    0    0 -0.17286036509E-01 -0.12784851757E-01 -0.10937458640E-01  0.10198076557E+01  0.10195223230E+01 0.  0.
     999903    2    3    3    0    0  0.12164759427E+00  0.27509300090E-01  0.16888167223E-01  0.12756304917E+00  0.20789962448E-01 0.  0.
         14    1    1    2    0    0  0.17286036509E-01  0.12784851757E-01  0.10937458640E-01  0.24122344292E-01  0.00000000000E+00 0. -1.
     999901    1    3    3    0    0 -0.13893363078E+00 -0.40294151848E-01 -0.27825625863E-01  0.89224460653E+00  0.88000000000E+00 0.  1.
        -11    1    4    4    0    0  0.15972534531E-01  0.75339612694E-02 -0.37295970198E-02  0.18056950094E-01  0.51100000000E-03 0. -1.
         11    1    4    4    0    0  0.10567505974E+00  0.19975338821E-01  0.20617764243E-01  0.10950609908E+00  0.51100000000E-03 0.  1.
</event>
<event>
 8    1  0.1199892E+005  0.1043930E+01  0.7957747E-01            NaN
         13   -1    0    0    0    0  0.00000000000E+00  0.00000000000E+00  0.74505805969E-08  0.10566000000E+00  0.10566000000E+00 0. -1.
     999900   -1    0    0    0    0 -0.00000000000E+00 -0.00000000000E+00 -0.74505805969E-08  0.93827000000E+00  0.93827000000E+00 0. -1.
     999902    2    1    2    0    0  0.55092587315E-02 -0.93195355122E-02 -0.21681915667E-01  0.10196954969E+01  0.10194074726E+01 0.  0.
     999903    2    3    3    0    0 -0.11277848637E+00 -0.21643173999E-01 -0.59509269021E-01  0.13089024749E+00  0.20087056001E-01 0.  0.
         14    1    1    2    0    0 -0.55092587315E-02  0.93195355122E-02  0.21681915667E-01  0.24234503109E-01  0.00000000000E+00 0. -1.
     999901    1    3    3    0    0  0.11828774510E+00  0.12323638487E-01  0.37827353354E-01  0.88880524940E+00  0.88000000000E+00 0.  1.
        -11    1    4    4    0    0 -0.67562308935E-01 -0.94266271491E-02 -0.45498710894E-01  0.81999516475E-01  0.51100000000E-03 0.  1.
         11    1    4    4    0    0 -0.45216177436E-01 -0.12216546850E-01 -0.14010558127E-01  0.48890731012E-01  0.51100000000E-03 0. -1.
</event>
<event>
 8    1  0.1199892E+005  0.1043930E+01  0.7957747E-01            NaN
         13   -1    0    0    0    0  0.00000000000E+00  0.00000000000E+00  0.74505805969E-08  0.10566000000E+00  0.10566000000E+00 0.  1.
     999900   -1    0    0    0    0 -0.00000000000E+00 -0.00000000000E+00 -0.74505805969E-08  0.93827000000E+00  0.93827000000E+00 0. -1.
     999902    2    1    2    0    0 -0.16779127163E-01  0.77630671744E-02 -0.14890517510E-01  0.10201911746E+01  0.10199149479E+01 0.  0.
     999903    2    3    3    0    0 -0.60953586898E-01 -0.86645654854E-01 -0.76018762575E-01  0.13193386275E+00  0.20121695147E-01 0.  0.
         14    1    1    2    0    0  0.16779127163E-01 -0.77630671744E-02  0.14890517510E-01  0.23738825414E-01  0.00000000000E+00 0. -1.
     999901    1    3    3    0    0  0.44174459735E-01  0.94408722029E-01  0.61128245065E-01  0.88825731184E+00  0.88000000000E+00 0. -1.
        -11    1    4    4    0    0 -0.84009562722E-03 -0.78381953010E-02 -0.17853738359E-02  0.80988731915E-02  0.51100000000E-03 0.  1.
         11    1    4    4    0    0 -0.60113491271E-01 -0.78807459553E-01 -0.74233388739E-01  0.12383498956E+00  0.51100000000E-03 0. -1.
</event>
<event>
 8    1  0.1199892E+005  0.1043930E+01  0.7957747E-01            NaN
         13   -1    0    0    0    0  0.00000000000E+00  0.00000000000E+00  0.74505805969E-08  0.10566000000E+00  0.10566000000E+00 0.  1.
     999900   -1    0    0    0    0 -0.00000000000E+00 -0.00000000000E+00 -0.74505805969E-08  0.93827000000E+00  0.93827000000E+00 0.  1.
     999902    2    1    2    0    0 -0.14316728561E-01  0.88537087176E-02  0.15874430175E-01  0.10207922731E+01  0.10205300144E+01 0.  0.
     999903    2    3    3    0    0  0.11349736083E+00  0.42748390563E-01  0.44059655644E-01  0.13046665968E+00  0.19267076112E-01 0.  0.
         14    1    1    2    0    0  0.14316728561E-01 -0.88537087176E-02 -0.15874430175E-01  0.23137726944E-01  0.00000000000E+00 0. -1.
     999901    1    3    3    0    0 -0.12781408939E+00 -0.33894681846E-01 -0.28185225470E-01  0.89032561338E+00  0.88000000000E+00 0. -1.
        -11    1    4    4    0    0  0.47846503750E-01  0.17992991735E-01  0.28751911729E-01  0.58651250811E-01  0.51100000000E-03 0.  1.
         11    1    4    4    0    0  0.65650857076E-01  0.24755398828E-01  0.15307743916E-01  0.71815408867E-01  0.51100000000E-03 0. -1.
</event>
<event>
 8    1  0.1199892E+005  0.1043930E+01  0.7957747E-01            NaN
         13   -1    0    0    0    0  0.00000000000E+00  0.00000000000E+00  0.74505805969E-08  0.10566000000E+00  0.10566000000E+00 0. -1.
     999900   -1    0    0    0    0 -0.00000000000E+00 -0.00000000000E+00 -0.74505805969E-08  0.93827000000E+00  0.93827000000E+00 0.  1.
     999902    2    1    2    0    0 -0.46365103991E-02  0.44982889992E-02 -0.23650524367E-01  0.10194130847E+01  0.10191182258E+01 0.  0.
     999903    2    3    3    0    0  0.11026196578E+00  0.23337547208E-01  0.57505222594E-01  0.12804176324E+00  0.19634161577E-01 0.  0.
         14    1    1    2    0    0  0.46365103991E-02 -0.44982889992E-02  0.23650524367E-01  0.24516915292E-01  0.00000000000E+00 0. -1.
     999901    1    3    3    0    0 -0.11489847617E+00 -0.18839258209E-01 -0.81155746961E-01  0.89137132147E+00  0.88000000000E+00 0.  1.
        -11    1    4    4    0    0  0.25963631707E-01  0.13558197226E-01  0.18452957920E-01  0.34622357812E-01  0.51100000000E-03 0.  1.
         11    1    4    4    0    0  0.84298334068E-01  0.97793499816E-02  0.39052264674E-01  0.93419405425E-01  0.51100000000E-03 0. -1.
</event>
<event>
 8    1  0.1199892E+005  0.1043930E+01  0.7957747E-01            NaN
         13   -1    0    0    0    0  0.00000000000E+00  0.00000000000E+00  0.74505805969E-08  0.10566000000E+00  0.10566000000E+00 0.  1.
     999900   -1    0    0    0    0 -0.00000000000E+00 -0.00000000000E+00 -0.74505805969E-08  0.93827000000E+00  0.93827000000E+00 0.  1.
     999902    2    1    2    0    0  0.79302619796E-02  0.21121437704E-01 -0.23459075184E-02  0.10212472429E+01  0.10209953103E+01 0.  0.
     999903    2    3    3    0    0 -0.56237007455E-01  0.19591558557E-01 -0.11568013904E+00  0.13166058216E+00  0.20154010869E-01 0.  0.
         14    1    1    2    0    0 -0.79302619796E-02 -0.21121437704E-01  0.23459075184E-02  0.22682757060E-01  0.00000000000E+00 0.  1.
     999901    1    3    3    0    0  0.64167269434E-01  0.15298791470E-02  0.11333423152E+00  0.88958666078E+00  0.88000000000E+00 0. -1.
        -11    1    4    4    0    0 -0.45727777207E-01  0.21447061289E-01 -0.81821225003E-01  0.96156019199E-01  0.51100000000E-03 0.  1.
         11    1    4    4    0    0 -0.10509230248E-01 -0.18555027325E-02 -0.33858914034E-01  0.35504562966E-01  0.51100000000E-03 0. -1.
</event>
<event>
 8    1  0.1199892E+005  0.1043930E+01  0.7957747E-01            NaN
         13   -1    0    0    0    0  0.00000000000E+00  0.00000000000E+00  0.74505805969E-08  0.10566000000E+00  0.10566000000E+00 0. -1.
     999900   -1    0    0    0    0 -0.00000000000E+00 -0.00000000000E+00 -0.74505805969E-08  0.93827000000E+00  0.93827000000E+00 0. -1.
     999902    2    1    2    0    0 -0.15712972741E-01  0.97469100154E-02 -0.56278713073E-02  0.10246019711E+01  0.10244196535E+01 0.  0.
     999903    2    3    3    0    0  0.51771686146E-01 -0.86709674551E-01 -0.84575197228E-01  0.13325987503E+00  0.20158252880E-01 0.  0.
         14    1    1    2    0    0  0.15712972741E-01 -0.97469100154E-02  0.56278713073E-02  0.19328028939E-01  0.00000000000E+00 0. -1.
     999901    1    3    3    0    0 -0.67484658887E-01  0.96456584567E-01  0.78947325920E-01  0.89134209603E+00  0.88000000000E+00 0.  1.
        -11    1    4    4    0    0  0.32451312519E-01 -0.64899759093E-01 -0.50408078940E-01  0.88353279271E-01  0.51100000000E-03 0.  1.
         11    1    4    4    0    0  0.19320373627E-01 -0.21809915458E-01 -0.34167118288E-01  0.44906595756E-01  0.51100000000E-03 0. -1.
</event>
<event>
 8    1  0.1199892E+005  0.1043930E+01  0.7957747E-01            NaN
         13   -1    0    0    0    0  0.00000000000E+00  0.00000000000E+00  0.74505805969E-08  0.10566000000E+00  0.10566000000E+00 0.  1.
     999900   -1    0    0    0    0 -0.00000000000E+00 -0.00000000000E+00 -0.74505805969E-08  0.93827000000E+00  0.93827000000E+00 0. -1.
     999902    2    1    2    0    0 -0.89775304220E-02  0.14984097058E-01 -0.16992338540E-01  0.10195607820E+01  0.10192695077E+01 0.  0.
     999903    2    3    3    0    0  0.42157254467E-01  0.12724826258E-01  0.11817498250E+00  0.12777040573E+00  0.20513283113E-01 0.  0.
         14    1    1    2    0    0  0.89775304220E-02 -0.14984097058E-01  0.16992338540E-01  0.24369218005E-01  0.00000000000E+00 0.  1.
     999901    1    3    3    0    0 -0.51134784889E-01  0.22592708007E-02 -0.13516732103E+00  0.89179037627E+00  0.88000000000E+00 0. -1.
        -11    1    4    4    0    0  0.20745925267E-01  0.16727923918E-01  0.69746554150E-01  0.74666323001E-01  0.51100000000E-03 0.  1.
         11    1    4    4    0    0  0.21411329201E-01 -0.40030976598E-02  0.48428428346E-01  0.53104082725E-01  0.51100000000E-03 0. -1.
</event>
<event>
 8    1  0.1199892E+005  0.1043930E+01  0.7957747E-01            NaN
         13   -1    0    0    0    0  0.00000000000E+00  0.00000000000E+00  0.74505805969E-08  0.10566000000E+00  0.10566000000E+00 0. -1.
     999900   -1    0    0    0    0 -0.00000000000E+00 -0.00000000000E+00 -0.74505805969E-08  0.93827000000E+00  0.93827000000E+00 0.  1.
     999902    2    1    2    0    0 -0.12027492719E-01 -0.65850107573E-02  0.25548577588E-01  0.10149342630E+01  0.10145199877E+01 0.  0.
     999903    2    3    3    0    0 -0.47064395757E-01 -0.11250231646E+00 -0.25976266646E-01  0.12639564830E+00  0.20718709519E-01 0.  0.
         14    1    1    2    0    0  0.12027492719E-01  0.65850107573E-02 -0.25548577588E-01  0.28995737006E-01  0.00000000000E+00 0.  1.
     999901    1    3    3    0    0  0.35036903039E-01  0.10591730570E+00  0.51524844233E-01  0.88853861469E+00  0.88000000000E+00 0.  1.
        -11    1    4    4    0    0 -0.16823341701E-01 -0.33945712737E-01 -0.17675843644E-01  0.41809482283E-01  0.51100000000E-03 0.  1.
         11    1    4    4    0    0 -0.30241054057E-01 -0.78556603724E-01 -0.83004230013E-02  0.84586166021E-01  0.51100000000E-03 0. -1.
</event>
<event>
 8    1  0.1199892E+005  0.1043930E+01  0.7957747E-01            NaN
         13   -1    0    0    0    0  0.00000000000E+00  0.00000000000E+00  0.74505805969E-08  0.10566000000E+00  0.10566000000E+00 0. -1.
     999900   -1    0    0    0    0 -0.00000000000E+00 -0.00000000000E+00 -0.74505805969E-08  0.93827000000E+00  0.93827000000E+00 0. -1.
     999902    2    1    2    0    0 -0.13723129343E-01  0.15027212358E-01  0.12860325796E-01  0.10198565838E+01  0.10195724212E+01 0.  0.
     999903    2    3    3    0    0 -0.51821248468E-01 -0.10620081108E+00  0.50300243001E-01  0.12994116769E+00  0.19762048156E-01 0.  0.
         14    1    1    2    0    0  0.13723129343E-01 -0.15027212358E-01 -0.12860325796E-01  0.24073416247E-01  0.00000000000E+00 0.  1.
     999901    1    3    3    0    0  0.38098119125E-01  0.12122802344E+00 -0.37439917205E-01  0.88991541606E+00  0.88000000000E+00 0.  1.
        -11    1    4    4    0    0 -0.50974564472E-01 -0.10155419390E+00  0.43557600587E-01  0.12169299985E+00  0.51100000000E-03 0.  1.
         11    1    4    4    0    0 -0.84668399614E-03 -0.46466171783E-02  0.67426424140E-02  0.82481678399E-02  0.51100000000E-03 0. -1.
</event>
<event>
 8    1  0.1199892E+005  0.1043930E+01  0.7957747E-01            NaN
         13   -1    0    0    0    0  0.00000000000E+00  0.00000000000E+00  0.74505805969E-08  0.10566000000E+00  0.10566000000E+00 0. -1.
     999900   -1    0    0    0    0 -0.00000000000E+00 -0.00000000000E+00 -0.74505805969E-08  0.93827000000E+00  0.93827000000E+00 0. -1.
     999902    2    1    2    0    0  0.24413769033E-01  0.85220435902E-02  0.51373521393E-03  0.10180664877E+01  0.10177379093E+01 0.  0.
     999903    2    3    3    0    0 -0.69618368400E-01  0.63646286559E-02 -0.10388965610E+00  0.12691736132E+00  0.20681640227E-01 0.  0.
         14    1    1    2    0    0 -0.24413769033E-01 -0.85220435902E-02 -0.51373521393E-03  0.25863512314E-01  0.00000000000E+00 0.  1.
     999901    1    3    3    0    0  0.94032137433E-01  0.21574149343E-02  0.10440339131E+00  0.89114912637E+00  0.88000000000E+00 0.  1.
        -11    1    4    4    0    0 -0.34266180322E-01  0.46530285019E-02 -0.69173725557E-01  0.77337489075E-01  0.51100000000E-03 0.  1.
         11    1    4    4    0    0 -0.35352188079E-01  0.17116001539E-02 -0.34715930544E-01  0.49579872242E-01  0.51100000000E-03 0. -1.
</event>
<event>
 8    1  0.1199892E+005  0.1043930E+01  0.7957747E-01            NaN
         13   -1    0    0    0    0  0.00000000000E+00  0.00000000000E+00  0.74505805969E-08  0.10566000000E+00  0.10566000000E+00 0.  1.
     999900   -1    0    0    0    0 -0.00000000000E+00 -0.00000000000E+00 -0.74505805969E-08  0.93827000000E+00  0.93827000000E+00 0.  1.
     999902    2    1    2    0    0 -0.23063573608E-01  0.24827157214E-02 -0.10616662290E-01  0.10184191038E+01  0.10180995360E+01 0.  0.
     999903    2    3    3    0    0  0.63834568641E-01  0.10452360572E+00 -0.28044827423E-01  0.12810041297E+00  0.24963316158E-01 0.  0.
         14    1    1    2    0    0  0.23063573608E-01 -0.24827157214E-02  0.10616662290E-01  0.25510896164E-01  0.00000000000E+00 0.  1.
     999901    1    3    3    0    0 -0.86898142249E-01 -0.10204088999E+00  0.17428165133E-01  0.89031869086E+00  0.88000000000E+00 0.  1.
        -11    1    4    4    0    0  0.83395364443E-02  0.24073832977E-01 -0.14809410206E-01  0.29473327840E-01  0.51100000000E-03 0. -1.
         11    1    4    4    0    0  0.55495032196E-01  0.80449772739E-01 -0.13235417217E-01  0.98627085135E-01  0.51100000000E-03 0.  1.
</event>
<event>
 8    1  0.1199892E+005  0.1043930E+01  0.7957747E-01            NaN
         13   -1    0    0    0    0  0.00000000000E+00  0.00000000000E+00  0.74505805969E-08  0.10566000000E+00  0.10566000000E+00 0. -1.
     999900   -1    0    0    0    0 -0.00000000000E+00 -0.00000000000E+00 -0.74505805969E-08  0.93827000000E+00  0.93827000000E+00 0. -1.
     999902    2    1    2    0    0  0.15652300735E-02  0.21083084666E-01 -0.12962771815E-01  0.10191312126E+01  0.10188294502E+01 0.  0.
     999903    2    3    3    0    0 -0.74792475721E-01 -0.57281578159E-01  0.82968603482E-01  0.12718146715E+00  0.20402029354E-01 0.  0.
         14    1    1    2    0    0 -0.15652300735E-02 -0.21083084666E-01  0.12962771815E-01  0.24798787417E-01  0.00000000000E+00 0. -1.
     999901    1    3    3    0    0  0.76357705794E-01  0.78364662825E-01 -0.95931375296E-01  0.89194974543E+00  0.88000000000E+00 0. -1.
        -11    1    4    4    0    0 -0.24558513597E-01 -0.28315526314E-01  0.41294620288E-01  0.55770927967E-01  0.51100000000E-03 0.  1.
         11    1    4    4    0    0 -0.50233962123E-01 -0.28966051844E-01  0.41673983193E-01  0.71410539182E-01  0.51100000000E-03 0. -1.
</event>
<event>
 8    1  0.1199892E+005  0.1043930E+01  0.7957747E-01            NaN
         13   -1    0    0    0    0  0.00000000000E+00  0.00000000000E+00  0.74505805969E-08  0.10566000000E+00  0.10566000000E+00 0.  1.
     999900   -1    0    0    0    0 -0.00000000000E+00 -0.00000000000E+00 -0.74505805969E-08  0.93827000000E+00  0.93827000000E+00 0.  1.
     999902    2    1    2    0    0  0.12647430802E-01 -0.13307653054E-01 -0.16289850811E-01  0.10193859503E+01  0.10190904304E+01 0.  0.
     999903    2    3    3    0    0 -0.74175376527E-01  0.73658720441E-01  0.69950139336E-01  0.12667172622E+00  0.15003687908E-01 0.  0.
         14    1    1    2    0    0 -0.12647430802E-01  0.13307653054E-01  0.16289850811E-01  0.24544049689E-01  0.00000000000E+00 0. -1.
     999901    1    3    3    0    0  0.86822807328E-01 -0.86966373495E-01 -0.86239990148E-01  0.89271422409E+00  0.88000000000E+00 0.  1.
        -11    1    4    4    0    0 -0.28277414867E-01  0.35744599020E-01  0.24324243188E-01  0.51664479852E-01  0.51100000000E-03 0. -1.
         11    1    4    4    0    0 -0.45897961659E-01  0.37914121421E-01  0.45625896148E-01  0.75007246369E-01  0.51100000000E-03 0.  1.
</event>
<event>
 8    1  0.1199892E+005  0.1043930E+01  0.7957747E-01            NaN
         13   -1    0    0    0    0  0.00000000000E+00  0.00000000000E+00  0.74505805969E-08  0.10566000000E+00  0.10566000000E+00 0. -1.
     999900   -1    0    0    0    0 -0.00000000000E+00 -0.00000000000E+00 -0.74505805969E-08  0.93827000000E+00  0.93827000000E+00 0.  1.
     999902    2    1    2    0    0  0.21650851277E-01 -0.92956206990E-02  0.16196872659E-01  0.10153379275E+01  0.10149352691E+01 0.  0.
     999903    2    3    3    0    0  0.12713130153E+00  0.19121926088E-02 -0.41882516717E-02  0.12873356605E+00  0.19717131296E-01 0.  0.
         14    1    1    2    0    0 -0.21650851277E-01  0.92956206990E-02 -0.16196872659E-01  0.28592072487E-01  0.00000000000E+00 0.  1.
     999901    1    3    3    0    0 -0.10548045026E+00 -0.11207813308E-01  0.20385124331E-01  0.88660436146E+00  0.88000000000E+00 0.  1.
        -11    1    4    4    0    0  0.65944737079E-01 -0.75130363976E-02 -0.71183016616E-02  0.66753916768E-01  0.51100000000E-03 0. -1.
         11    1    4    4    0    0  0.61186564454E-01  0.94252290065E-02  0.29300499899E-02  0.61979649285E-01  0.51100000000E-03 0.  1.
</event>
<event>
 8    1  0.1199892E+005  0.1043930E+01  0.7957747E-01            NaN
         13   -1    0    0    0    0  0.00000000000E+00  0.00000000000E+00  0.74505805969E-08  0.10566000000E+00  0.10566000000E+00 0. -1.
     999900   -1    0    0    0    0 -0.00000000000E+00 -0.00000000000E+00 -0.74505805969E-08  0.93827000000E+00  0.93827000000E+00 0.  1.
     999902    2    1    2    0    0 -0.34286680118E-02 -0.23019012965E-01  0.48668309410E-02  0.10201536091E+01  0.10198764971E+01 0.  0.
     999903    2    3    3    0    0 -0.35968701258E-01  0.32709372907E-01  0.11888395705E+00  0.13045455220E+00  0.22832967381E-01 0.  0.
         14    1    1    2    0    0  0.34286680118E-02  0.23019012965E-01 -0.48668309410E-02  0.23776390929E-01  0.00000000000E+00 0.  1.
     999901    1    3    3    0    0  0.32540033246E-01 -0.55728385872E-01 -0.11401712611E+00  0.88969905687E+00  0.88000000000E+00 0.  1.
        -11    1    4    4    0    0 -0.20268717117E-01  0.27204096576E-01  0.56649839066E-01  0.66032939896E-01  0.51100000000E-03 0.  1.
         11    1    4    4    0    0 -0.15699984141E-01  0.55052763311E-02  0.62234117982E-01  0.64421612302E-01  0.51100000000E-03 0. -1.
</event>
<event>
 8    1  0.1199892E+005  0.1043930E+01  0.7957747E-01            NaN
         13   -1    0    0    0    0  0.00000000000E+00  0.00000000000E+00  0.74505805969E-08  0.10566000000E+00  0.10566000000E+00 0.  1.
     999900   -1    0    0    0    0 -0.00000000000E+00 -0.00000000000E+00 -0.74505805969E-08  0.93827000000E+00  0.93827000000E+00 0.  1.
     999902    2    1    2    0    0  0.20639984549E-02  0.23065057592E-01 -0.36101373989E-02  0.10204930620E+01  0.10202238968E+01 0.  0.
     999903    2    3    3    0    0 -0.13951703182E-01  0.52160154411E-01 -0.11913926949E+00  0.13232077706E+00  0.19982261539E-01 0.  0.
         14    1    1    2    0    0 -0.20639984549E-02 -0.23065057592E-01  0.36101373989E-02  0.23436938012E-01  0.00000000000E+00 0. -1.
     999901    1    3    3    0    0  0.16015701637E-01 -0.29095096819E-01  0.11552913209E+00  0.88817228493E+00  0.88000000000E+00 0. -1.
        -11    1    4    4    0    0 -0.17293377975E-01  0.42230858378E-01 -0.10669528287E+00  0.11604589966E+00  0.51100000000E-03 0.  1.
         11    1    4    4    0    0  0.33416747927E-02  0.99292960324E-02 -0.12443986621E-01  0.16274877393E-01  0.51100000000E-03 0. -1.
</event>
<event>
 8    1  0.1199892E+005  0.1043930E+01  0.7957747E-01            NaN
         13   -1    0    0    0    0  0.00000000000E+00  0.00000000000E+00  0.74505805969E-08  0.10566000000E+00  0.10566000000E+00 0.  1.
     999900   -1    0    0    0    0 -0.00000000000E+00 -0.00000000000E+00 -0.74505805969E-08  0.93827000000E+00  0.93827000000E+00 0.  1.
     999902    2    1    2    0    0  0.10788421291E-01  0.13693678723E-01 -0.16537667455E-01  0.10199008237E+01  0.10196177170E+01 0.  0.
     999903    2    3    3    0    0 -0.17875290065E-01 -0.82715207806E-01  0.93126347426E-01  0.12740853915E+00  0.19977178603E-01 0.  0.
         14    1    1    2    0    0 -0.10788421291E-01 -0.13693678723E-01  0.16537667455E-01  0.24029176344E-01  0.00000000000E+00 0. -1.
     999901    1    3    3    0    0  0.28663711356E-01  0.96408886529E-01 -0.10966401488E+00  0.89249228451E+00  0.88000000000E+00 0.  1.
        -11    1    4    4    0    0 -0.63818408811E-03 -0.30742845180E-01  0.45011632335E-01  0.54514566633E-01  0.51100000000E-03 0. -1.
         11    1    4    4    0    0 -0.17237105977E-01 -0.51972362626E-01  0.48114715092E-01  0.72893972513E-01  0.51100000000E-03 0.  1.
</event>
<event>
 8    1  0.1199892E+005  0.1043930E+01  0.7957747E-01            NaN
         13   -1    0    0    0    0  0.00000000000E+00  0.00000000000E+00  0.74505805969E-08  0.10566000000E+00  0.10566000000E+00 0.  1.
     999900   -1    0    0    0    0 -0.00000000000E+00 -0.00000000000E+00 -0.74505805969E-08  0.93827000000E+00  0.93827000000E+00 0. -1.
     999902    2    1    2    0    0 -0.21594568271E-01  0.92685083970E-02  0.85824255876E-02  0.10189122332E+01  0.10186050512E+01 0.  0.
     999903    2    3    3    0    0  0.49560775589E-01  0.11036526303E+00 -0.38764058870E-01  0.12901036987E+00  0.22455767943E-01 0.  0.
         14    1    1    2    0    0  0.21594568271E-01 -0.92685083970E-02 -0.85824255876E-02  0.25017766801E-01  0.00000000000E+00 0. -1.
     999901    1    3    3    0    0 -0.71155343860E-01 -0.10109675464E+00  0.47346484458E-01  0.88990186332E+00  0.88000000000E+00 0. -1.
        -11    1    4    4    0    0  0.22638144480E-01  0.26450449290E-01 -0.86442277479E-02  0.35876115279E-01  0.51100000000E-03 0. -1.
         11    1    4    4    0    0  0.26922631109E-01  0.83914813743E-01 -0.30119831122E-01  0.93134254596E-01  0.51100000000E-03 0.  1.
</event>
<event>
 8    1  0.1199892E+005  0.1043930E+01  0.7957747E-01            NaN
         13   -1    0    0    0    0  0.00000000000E+00  0.00000000000E+00  0.74505805969E-08  0.10566000000E+00  0.10566000000E+00 0.  1.
     999900   -1    0    0    0    0 -0.00000000000E+00 -0.00000000000E+00 -0.74505805969E-08  0.93827000000E+00  0.93827000000E+00 0. -1.
     999902    2    1    2    0    0 -0.96432812653E-02 -0.32965841500E-02  0.21308021952E-01  0.10203102595E+01  0.10200368295E+01 0.  0.
     999903    2    3    3    0    0  0.92234659747E-02  0.41692889990E-01  0.12431633959E+00  0.13295986625E+00  0.20010106075E-01 0.  0.
         14    1    1    2    0    0  0.96432812653E-02  0.32965841500E-02 -0.21308021952E-01  0.23619740475E-01  0.00000000000E+00 0. -1.
     999901    1    3    3    0    0 -0.18866747240E-01 -0.44989474140E-01 -0.10300831764E+00  0.88735039327E+00  0.88000000000E+00 0. -1.
        -11    1    4    4    0    0  0.18868358163E-02  0.43490223616E-02  0.42003733126E-01  0.42273500712E-01  0.51100000000E-03 0.  1.
         11    1    4    4    0    0  0.73366301584E-02  0.37343867629E-01  0.82312606463E-01  0.90686365543E-01  0.51100000000E-03 0. -1.
</event>
<event>
 8    1  0.1199892E+005  0.1043930E+01  0.7957747E-01            NaN
         13   -1    0    0    0    0  0.00000000000E+00  0.00000000000E+00  0.74505805969E-08  0.10566000000E+00  0.10566000000E+00 0.  1.
     999900   -1    0    0    0    0 -0.00000000000E+00 -0.00000000000E+00 -0.74505805969E-08  0.93827000000E+00  0.93827000000E+00 0. -1.
     999902    2    1    2    0    0  0.12868553433E-01 -0.72192950201E-02  0.18147842845E-01  0.10205406416E+01  0.10202725807E+01 0.  0.
     999903    2    3    3    0    0  0.38002361519E-01 -0.82112911703E-01 -0.91528747494E-01  0.13022063359E+00  0.19829070737E-01 0.  0.
         14    1    1    2    0    0 -0.12868553433E-01  0.72192950201E-02 -0.18147842845E-01  0.23389358434E-01  0.00000000000E+00 0.  1.
     999901    1    3    3    0    0 -0.25133808086E-01  0.74893616682E-01  0.10967659034E+00  0.89032000797E+00  0.88000000000E+00 0.  1.
        -11    1    4    4    0    0  0.29321745501E-01 -0.40392230691E-01 -0.46427477161E-01  0.68169412613E-01  0.51100000000E-03 0. -1.
         11    1    4    4    0    0  0.86806160181E-02 -0.41720681012E-01 -0.45101270332E-01  0.62051220980E-01  0.51100000000E-03 0.  1.
</event>
<event>
 8    1  0.1199892E+005  0.1043930E+01  0.7957747E-01            NaN
         13   -1    0    0    0    0  0.00000000000E+00  0.00000000000E+00  0.74505805969E-08  0.10566000000E+00  0.10566000000E+00 0.  1.
     999900   -1    0    0    0    0 -0.00000000000E+00 -0.00000000000E+00 -0.74505805969E-08  0.93827000000E+00  0.93827000000E+00 0.  1.
     999902    2    1    2    0    0  0.56297709294E-02 -0.18540574451E-01 -0.13554763455E-01  0.10202830375E+01  0.10200089695E+01 0.  0.
     999903    2    3    3    0    0 -0.41589352116E-01 -0.10973395155E+00  0.56660105758E-01  0.13153335091E+00  0.17872898065E-01 0.  0.
         14    1    1    2    0    0 -0.56297709294E-02  0.18540574451E-01  0.13554763455E-01  0.23646962469E-01  0.00000000000E+00 0.  1.
     999901    1    3    3    0    0  0.47219123045E-01  0.91193377099E-01 -0.70214869213E-01  0.88874968662E+00  0.88000000000E+00 0.  1.
        -11    1    4    4    0    0 -0.29843804598E-01 -0.59852559777E-01  0.38444664980E-01  0.77144247816E-01  0.51100000000E-03 0. -1.
         11    1    4    4    0    0 -0.11745547518E-01 -0.49881391773E-01  0.18215440778E-01  0.54389103095E-01  0.51100000000E-03 0.  1.
</event>
<event>
 8    1  0.1199892E+005  0.1043930E+01  0.7957747E-01            NaN
         13   -1    0    0    0    0  0.00000000000E+00  0.00000000000E+00  0.74505805969E-08  0.10566000000E+00  0.10566000000E+00 0. -1.
     999900   -1    0    0    0    0 -0.00000000000E+00 -0.00000000000E+00 -0.74505805969E-08  0.93827000000E+00  0.93827000000E+00 0.  1.
     999902    2    1    2    0    0  0.53357505569E-02  0.21046063467E-01  0.10480559724E-01  0.10198208907E+01  0.10195358747E+01 0.  0.
     999903    2    3    3    0    0  0.65570494890E-03  0.44306669852E-01  0.12298909296E+00  0.13234067753E+00  0.20596771579E-01 0.  0.
         14    1    1    2    0    0 -0.53357505569E-02 -0.21046063467E-01 -0.10480559724E-01  0.24109109349E-01  0.00000000000E+00 0.  1.
     999901    1    3    3    0    0  0.46800456080E-02 -0.23260606385E-01 -0.11250853323E+00  0.88748021312E+00  0.88000000000E+00 0.  1.
        -11    1    4    4    0    0 -0.37693839417E-02  0.23438608056E-01  0.89780614996E-01  0.92867629198E-01  0.51100000000E-03 0.  1.
         11    1    4    4    0    0  0.44250888906E-02  0.20868061797E-01  0.33208477962E-01  0.39473048329E-01  0.51100000000E-03 0. -1.
</event>
<event>
 8    1  0.1199892E+005  0.1043930E+01  0.7957747E-01            NaN
         13   -1    0    0    0    0  0.00000000000E+00  0.00000000000E+00  0.74505805969E-08  0.10566000000E+00  0.10566000000E+00 0.  1.
     999900   -1    0    0    0    0 -0.00000000000E+00 -0.00000000000E+00 -0.74505805969E-08  0.93827000000E+00  0.93827000000E+00 0. -1.
     999902    2    1    2    0    0 -0.18309160063E-01  0.16090523422E-02 -0.14455519154E-01  0.10205467490E+01  0.10202788298E+01 0.  0.
     999903    2    3    3    0    0  0.65807399198E-01  0.44395133800E-01 -0.10249016012E+00  0.13113326684E+00  0.19752444306E-01 0.  0.
         14    1    1    2    0    0  0.18309160063E-01 -0.16090523422E-02  0.14455519154E-01  0.23383250965E-01  0.00000000000E+00 0.  1.
     999901    1    3    3    0    0 -0.84116559261E-01 -0.42786081457E-01  0.88034640963E-01  0.88941348220E+00  0.88000000000E+00 0.  1.
        -11    1    4    4    0    0  0.39186339178E-01  0.28211754273E-01 -0.46389237287E-01  0.66960396612E-01  0.51100000000E-03 0. -1.
         11    1    4    4    0    0  0.26621060020E-01  0.16183379527E-01 -0.56100922830E-01  0.64172870224E-01  0.51100000000E-03 0.  1.
</event>
<event>
 8    1  0.1199892E+005  0.1043930E+01  0.7957747E-01            NaN
         13   -1    0    0    0    0  0.00000000000E+00  0.00000000000E+00  0.74505805969E-08  0.10566000000E+00  0.10566000000E+00 0. -1.
     999900   -1    0    0    0    0 -0.00000000000E+00 -0.00000000000E+00 -0.74505805969E-08  0.93827000000E+00  0.93827000000E+00 0. -1.
     999902    2    1    2    0    0 -0.28063094154E-01  0.14863082654E-01 -0.20360434617E-01  0.10062073837E+01  0.10055000265E+01 0.  0.
     999903    2    3    3    0    0  0.48193784840E-01 -0.93608989825E-01  0.39633548788E-01  0.11425414498E+00  0.19947620947E-01 0.  0.
         14    1    1    2    0    0  0.28063094154E-01 -0.14863082654E-01  0.20360434617E-01  0.37722616257E-01  0.00000000000E+00 0. -1.
     999901    1    3    3    0    0 -0.76256878994E-01  0.10847207248E+00 -0.59993983405E-01  0.89195323877E+00  0.88000000000E+00 0. -1.
        -11    1    4    4    0    0  0.33637478351E-01 -0.75332332905E-01  0.37980425254E-01  0.90825184582E-01  0.51100000000E-03 0.  1.
         11    1    4    4    0    0  0.14556306489E-01 -0.18276656920E-01  0.16531235336E-02  0.23428960395E-01  0.51100000000E-03 0. -1.
</event>
<event>
 8    1  0.1199892E+005  0.1043930E+01  0.7957747E-01            NaN
         13   -1    0    0    0    0  0.00000000000E+00  0.00000000000E+00  0.74505805969E-08  0.10566000000E+00  0.10566000000E+00 0. -1.
     999900   -1    0    0    0    0 -0.00000000000E+00 -0.00000000000E+00 -0.74505805969E-08  0.93827000000E+00  0.93827000000E+00 0.  1.
     999902    2    1    2    0    0  0.93923347442E-03  0.73094230203E-02 -0.22346336505E-01  0.10203998368E+01  0.10201285009E+01 0.  0.
     999903    2    3    3    0    0  0.11239076586E+00  0.50280973561E-01 -0.43436290387E-01  0.13207963307E+00  0.19961402634E-01 0.  0.
         14    1    1    2    0    0 -0.93923347442E-03 -0.73094230203E-02  0.22346336505E-01  0.23530163187E-01  0.00000000000E+00 0. -1.
     999901    1    3    3    0    0 -0.11145153239E+00 -0.42971550540E-01  0.21089953882E-01  0.88832020375E+00  0.88000000000E+00 0.  1.
        -11    1    4    4    0    0  0.84049998860E-01  0.28657776574E-01 -0.26959641848E-01  0.92804923771E-01  0.51100000000E-03 0.  1.
         11    1    4    4    0    0  0.28340767003E-01  0.21623196987E-01 -0.16476648540E-01  0.39274709297E-01  0.51100000000E-03 0. -1.
</event>
<event>
 8    1  0.1199892E+005  0.1043930E+01  0.7957747E-01            NaN
         13   -1    0    0    0    0  0.00000000000E+00  0.00000000000E+00  0.74505805969E-08  0.10566000000E+00  0.10566000000E+00 0. -1.
     999900   -1    0    0    0    0 -0.00000000000E+00 -0.00000000000E+00 -0.74505805969E-08  0.93827000000E+00  0.93827000000E+00 0.  1.
     999902    2    1    2    0    0  0.30190798267E-02  0.20024377624E-01  0.12294048526E-01  0.10202396186E+01  0.10199645313E+01 0.  0.
     999903    2    3    3    0    0 -0.79896466898E-01  0.98709979733E-02  0.10227631745E+00  0.13171562469E+00  0.20191053812E-01 0.  0.
         14    1    1    2    0    0 -0.30190798267E-02 -0.20024377624E-01 -0.12294048526E-01  0.23690381411E-01  0.00000000000E+00 0.  1.
     999901    1    3    3    0    0  0.82915546724E-01  0.10153379651E-01 -0.89982268923E-01  0.88852399390E+00  0.88000000000E+00 0.  1.
        -11    1    4    4    0    0 -0.29992485211E-01  0.84335987673E-02  0.53525138704E-01  0.61934452057E-01  0.51100000000E-03 0.  1.
         11    1    4    4    0    0 -0.49903981687E-01  0.14373992060E-02  0.48751178744E-01  0.69781172637E-01  0.51100000000E-03 0. -1.
</event>
<event>
 8    1  0.1199892E+005  0.1043930E+01  0.7957747E-01            NaN
         13   -1    0    0    0    0  0.00000000000E+00  0.00000000000E+00  0.74505805969E-08  0.10566000000E+00  0.10566000000E+00 0.  1.
     999900   -1    0    0    0    0 -0.00000000000E+00 -0.00000000000E+00 -0.74505805969E-08  0.93827000000E+00  0.93827000000E+00 0. -1.
     999902    2    1    2    0    0 -0.20419804116E-02 -0.49178350458E-02  0.23087385503E-01  0.10202364955E+01  0.10199613349E+01 0.  0.
     999903    2    3    3    0    0 -0.60417283139E-01 -0.11348185922E+00  0.20634919811E-01  0.13164219106E+00  0.19377463166E-01 0.  0.
         14    1    1    2    0    0  0.20419804116E-02  0.49178350458E-02 -0.23087385503E-01  0.23693504487E-01  0.00000000000E+00 0. -1.
     999901    1    3    3    0    0  0.58375302728E-01  0.10856402417E+00  0.24524656911E-02  0.88859430445E+00  0.88000000000E+00 0.  1.
        -11    1    4    4    0    0 -0.17564645710E-01 -0.20305482983E-01 -0.80708540864E-03  0.26865254995E-01  0.51100000000E-03 0. -1.
         11    1    4    4    0    0 -0.42852637429E-01 -0.93176376235E-01  0.21442005220E-01  0.10477693607E+00  0.51100000000E-03 0.  1.
</event>
<event>
 8    1  0.1199892E+005  0.1043930E+01  0.7957747E-01            NaN
         13   -1    0    0    0    0  0.00000000000E+00  0.00000000000E+00  0.74505805969E-08  0.10566000000E+00  0.10566000000E+00 0.  1.
     999900   -1    0    0    0    0 -0.00000000000E+00 -0.00000000000E+00 -0.74505805969E-08  0.93827000000E+00  0.93827000000E+00 0.  1.
     999902    2    1    2    0    0  0.13993632249E-01  0.12911072515E-01  0.15511165469E-01  0.10193716248E+01  0.10190757556E+01 0.  0.
     999903    2    3    3    0    0  0.46692691399E-01  0.51886971571E-01  0.11100820474E+00  0.13274428841E+00  0.20633936518E-01 0.  0.
         14    1    1    2    0    0 -0.13993632249E-01 -0.12911072515E-01 -0.15511165469E-01  0.24558375174E-01  0.00000000000E+00 0. -1.
     999901    1    3    3    0    0 -0.32699059150E-01 -0.38975899056E-01 -0.95497039271E-01  0.88662733642E+00  0.88000000000E+00 0.  1.
        -11    1    4    4    0    0  0.11368992748E-01  0.18781891745E-02  0.18925594509E-01  0.22163502413E-01  0.51100000000E-03 0.  1.
         11    1    4    4    0    0  0.35323698650E-01  0.50008782396E-01  0.92082610230E-01  0.11058078599E+00  0.51100000000E-03 0. -1.
</event>
<event>
 8    1  0.1199892E+005  0.1043930E+01  0.7957747E-01            NaN
         13   -1    0    0    0    0  0.00000000000E+00  0.00000000000E+00  0.74505805969E-08  0.10566000000E+00  0.10566000000E+00 0.  1.
     999900   -1    0    0    0    0 -0.00000000000E+00 -0.00000000000E+00 -0.74505805969E-08  0.93827000000E+00  0.93827000000E+00 0. -1.
     999902    2    1    2    0    0  0.10399631505E-01  0.49793492286E-02  0.21297491629E-01  0.10197116309E+01  0.10194239946E+01 0.  0.
     999903    2    3    3    0    0 -0.79231277768E-01 -0.84012311979E-01 -0.51129376220E-01  0.12774814122E+00  0.19227858214E-01 0.  0.
         14    1    1    2    0    0 -0.10399631505E-01 -0.49793492286E-02 -0.21297491629E-01  0.24218369142E-01  0.00000000000E+00 0. -1.
     999901    1    3    3    0    0  0.89630909274E-01  0.88991661208E-01  0.72426867849E-01  0.89196348964E+00  0.88000000000E+00 0.  1.
        -11    1    4    4    0    0 -0.44154902436E-01 -0.40546059739E-01 -0.17091841829E-01  0.62338034519E-01  0.51100000000E-03 0.  1.
         11    1    4    4    0    0 -0.35076375332E-01 -0.43466252240E-01 -0.34037534391E-01  0.65410106701E-01  0.51100000000E-03 0. -1.
</event>
<event>
 8    1  0.1199892E+005  0.1043930E+01  0.7957747E-01            NaN
         13   -1    0    0    0    0  0.00000000000E+00  0.00000000000E+00  0.74505805969E-08  0.10566000000E+00  0.10566000000E+00 0. -1.
     999900   -1    0    0    0    0 -0.00000000000E+00 -0.00000000000E+00 -0.74505805969E-08  0.93827000000E+00  0.93827000000E+00 0. -1.
     999902    2    1    2    0    0 -0.17637491951E-01  0.20684194260E-02  0.15291096969E-01  0.10204954715E+01  0.10202263622E+01 0.  0.
     999903    2    3    3    0    0  0.57461322195E-01 -0.24237355496E-01  0.11402582813E+00  0.13140583998E+00  0.19399802807E-01 0.  0.
         14    1    1    2    0    0  0.17637491951E-01 -0.20684194260E-02 -0.15291096969E-01  0.23434528538E-01  0.00000000000E+00 0. -1.
     999901    1    3    3    0    0 -0.75098814146E-01  0.26305774922E-01 -0.98734731161E-01  0.88908963149E+00  0.88000000000E+00 0. -1.
        -11    1    4    4    0    0  0.29986848963E-01 -0.10470192884E-01  0.76937863828E-01  0.83237804279E-01  0.51100000000E-03 0.  1.
         11    1    4    4    0    0  0.27474473232E-01 -0.13767162611E-01  0.37087964302E-01  0.48168035696E-01  0.51100000000E-03 0. -1.
</event>
<event>
 8    1  0.1199892E+005  0.1043930E+01  0.7957747E-01            NaN
         13   -1    0    0    0    0  0.00000000000E+00  0.00000000000E+00  0.74505805969E-08  0.10566000000E+00  0.10566000000E+00 0. -1.
     999900   -1    0    0    0    0 -0.00000000000E+00 -0.00000000000E+00 -0.74505805969E-08  0.93827000000E+00  0.93827000000E+00 0.  1.
     999902    2    1    2    0    0 -0.26070645565E-01  0.15272198238E-03  0.14585515585E-01  0.10140562800E+01  0.10136161501E+01 0.  0.
     999903    2    3    3    0    0  0.32962901466E-01  0.32155322396E-01  0.11527785719E+00  0.12577249998E+00  0.20229180994E-01 0.  0.
         14    1    1    2    0    0  0.26070645565E-01 -0.15272198238E-03 -0.14585515585E-01  0.29873720041E-01  0.00000000000E+00 0. -1.
     999901    1    3    3    0    0 -0.59033547031E-01 -0.32002600413E-01 -0.10069234160E+00  0.88828377997E+00  0.88000000000E+00 0.  1.
        -11    1    4    4    0    0  0.17418770523E-01  0.25956946865E-01  0.55561234282E-01  0.63753341348E-01  0.51100000000E-03 0. -1.
         11    1    4    4    0    0  0.15544130943E-01  0.61983755302E-02  0.59716622904E-01  0.62019158637E-01  0.51100000000E-03 0.  1.
</event>
<event>
 8    1  0.1199892E+005  0.1043930E+01  0.7957747E-01            NaN
         13   -1    0    0    0    0  0.00000000000E+00  0.00000000000E+00  0.74505805969E-08  0.10566000000E+00  0.10566000000E+00 0. -1.
     999900   -1    0    0    0    0 -0.00000000000E+00 -0.00000000000E+00 -0.74505805969E-08  0.93827000000E+00  0.93827000000E+00 0. -1.
     999902    2    1    2    0    0 -0.14222400769E-01 -0.16204588380E-01 -0.10362654499E-01  0.10200082531E+01  0.10197277021E+01 0.  0.
     999903    2    3    3    0    0 -0.12698005670E-01 -0.63628584630E-01 -0.11397213475E+00  0.13266035985E+00  0.19982178217E-01 0.  0.
         14    1    1    2    0    0  0.14222400769E-01  0.16204588380E-01  0.10362654499E-01  0.23921746936E-01  0.00000000000E+00 0. -1.
     999901    1    3    3    0    0 -0.15243950988E-02  0.47423996250E-01  0.10360948025E+00  0.88734789322E+00  0.88000000000E+00 0.  1.
        -11    1    4    4    0    0  0.60872897204E-03 -0.47825449737E-02 -0.22958516829E-01  0.23464822680E-01  0.51100000000E-03 0. -1.
         11    1    4    4    0    0 -0.13306734642E-01 -0.58846039656E-01 -0.91013617916E-01  0.10919553717E+00  0.51100000000E-03 0.  1.
</event>
<event>
 8    1  0.1199892E+005  0.1043930E+01  0.7957747E-01            NaN
         13   -1    0    0    0    0  0.00000000000E+00  0.00000000000E+00  0.74505805969E-08  0.10566000000E+00  0.10566000000E+00 0.  1.
     999900   -1    0    0    0    0 -0.00000000000E+00 -0.00000000000E+00 -0.74505805969E-08  0.93827000000E+00  0.93827000000E+00 0.  1.
     999902    2    1    2    0    0 -0.11452038454E-02  0.15017189722E-01  0.16512363636E-01  0.10215808248E+01  0.10213363285E+01 0.  0.
     999903    2    3    3    0    0 -0.12970484858E-01  0.92495132212E-01  0.95005587657E-01  0.13461754763E+00  0.19293508836E-01 0.  0.
         14    1    1    2    0    0  0.11452038454E-02 -0.15017189722E-01 -0.16512363636E-01  0.22349175194E-01  0.00000000000E+00 0.  1.
     999901    1    3    3    0    0  0.11825281012E-01 -0.77477942490E-01 -0.78493224021E-01  0.88696327718E+00  0.88000000000E+00 0.  1.
        -11    1    4    4    0    0  0.80534104753E-03  0.54813808783E-01  0.61070892858E-01  0.82067760314E-01  0.51100000000E-03 0.  1.
         11    1    4    4    0    0 -0.13775825905E-01  0.37681323429E-01  0.33934694800E-01  0.52549787315E-01  0.51100000000E-03 0. -1.
</event>
<event>
 8    1  0.1199892E+005  0.1043930E+01  0.7957747E-01            NaN
         13   -1    0    0    0    0  0.00000000000E+00  0.00000000000E+00  0.74505805969E-08  0.10566000000E+00  0.10566000000E+00 0. -1.
     999900   -1    0    0    0    0 -0.00000000000E+00 -0.00000000000E+00 -0.74505805969E-08  0.93827000000E+00  0.93827000000E+00 0.  1.
     999902    2    1    2    0    0  0.17933725643E-01  0.12611257451E-01 -0.68400198603E-02  0.10209637595E+01  0.10207054179E+01 0.  0.
     999903    2    3    3    0    0 -0.96075182654E-01 -0.26166582929E-01  0.78921306248E-01  0.12863155842E+00  0.20059273581E-01 0.  0.
         14    1    1    2    0    0 -0.17933725643E-01 -0.12611257451E-01  0.68400198603E-02  0.22966240476E-01  0.00000000000E+00 0. -1.
     999901    1    3    3    0    0  0.11400890830E+00  0.38777840381E-01 -0.85761326109E-01  0.89233220111E+00  0.88000000000E+00 0. -1.
        -11    1    4    4    0    0 -0.50350081741E-01 -0.41475728996E-02  0.44300825744E-01  0.67194920752E-01  0.51100000000E-03 0. -1.
         11    1    4    4    0    0 -0.45725100914E-01 -0.22019010030E-01  0.34620480504E-01  0.61436637665E-01  0.51100000000E-03 0.  1.
</event>
<event>
 8    1  0.1199892E+005  0.1043930E+01  0.7957747E-01            NaN
         13   -1    0    0    0    0  0.00000000000E+00  0.00000000000E+00  0.74505805969E-08  0.10566000000E+00  0.10566000000E+00 0.  1.
     999900   -1    0    0    0    0 -0.00000000000E+00 -0.00000000000E+00 -0.74505805969E-08  0.93827000000E+00  0.93827000000E+00 0.  1.
     999902    2    1    2    0    0 -0.11510204562E-01 -0.12113669439E-02  0.20507890488E-01  0.10203816287E+01  0.10201098678E+01 0.  0.
     999903    2    3    3    0    0  0.65603915930E-01  0.62065031057E-01  0.94103229859E-01  0.13169340209E+00  0.18215170026E-01 0.  0.
         14    1    1    2    0    0  0.11510204562E-01  0.12113669439E-02 -0.20507890488E-01  0.23548371307E-01  0.00000000000E+00 0. -1.
     999901    1    3    3    0    0 -0.77114120493E-01 -0.63276398001E-01 -0.73595339371E-01  0.88868822660E+00  0.88000000000E+00 0.  1.
        -11    1    4    4    0    0  0.27574283793E-01  0.29695420266E-01  0.29954298684E-01  0.50395240272E-01  0.51100000000E-03 0.  1.
         11    1    4    4    0    0  0.38029632138E-01  0.32369610791E-01  0.64148931175E-01  0.81298161819E-01  0.51100000000E-03 0. -1.
</event>
<event>
 8    1  0.1199892E+005  0.1043930E+01  0.7957747E-01            NaN
         13   -1    0    0    0    0  0.00000000000E+00  0.00000000000E+00  0.74505805969E-08  0.10566000000E+00  0.10566000000E+00 0. -1.
     999900   -1    0    0    0    0 -0.00000000000E+00 -0.00000000000E+00 -0.74505805969E-08  0.93827000000E+00  0.93827000000E+00 0. -1.
     999902    2    1    2    0    0 -0.11188260402E-01  0.13681061847E-01  0.16485895763E-01  0.10197611485E+01  0.10194747013E+01 0.  0.
     999903    2    3    3    0    0  0.11930848292E+00  0.45738435503E-01  0.77115412969E-02  0.12951732542E+00  0.19716772968E-01 0.  0.
         14    1    1    2    0    0  0.11188260402E-01 -0.13681061847E-01 -0.16485895763E-01  0.24168851507E-01  0.00000000000E+00 0. -1.
     999901    1    3    3    0    0 -0.13049674332E+00 -0.32057373656E-01  0.87743544664E-02  0.89024382307E+00  0.88000000000E+00 0. -1.
        -11    1    4    4    0    0  0.32847641014E-01  0.18696750496E-01  0.92383865448E-02  0.38912014934E-01  0.51100000000E-03 0. -1.
         11    1    4    4    0    0  0.86460841904E-01  0.27041685007E-01 -0.15268452479E-02  0.90605310486E-01  0.51100000000E-03 0.  1.
</event>
<event>
 8    1  0.1199892E+005  0.1043930E+01  0.7957747E-01            NaN
         13   -1    0    0    0    0  0.00000000000E+00  0.00000000000E+00  0.74505805969E-08  0.10566000000E+00  0.10566000000E+00 0.  1.
     999900   -1    0    0    0    0 -0.00000000000E+00 -0.00000000000E+00 -0.74505805969E-08  0.93827000000E+00  0.93827000000E+00 0. -1.
     999902    2    1    2    0    0  0.22753779170E-01  0.53441915968E-02 -0.11574594400E-02  0.10205284068E+01  0.10202600622E+01 0.  0.
     999903    2    3    3    0    0  0.23443926950E-01  0.12060854130E+00  0.42809440248E-01  0.13192307549E+00  0.21794763760E-01 0.  0.
         14    1    1    2    0    0 -0.22753779170E-01 -0.53441915968E-02  0.11574594400E-02  0.23401593166E-01  0.00000000000E+00 0.  1.
     999901    1    3    3    0    0 -0.69014778045E-03 -0.11526434971E+00 -0.43966899688E-01  0.88860533134E+00  0.88000000000E+00 0. -1.
        -11    1    4    4    0    0  0.16823558354E-01  0.46957179650E-01  0.25284822858E-01  0.55924880190E-01  0.51100000000E-03 0.  1.
         11    1    4    4    0    0  0.66203685968E-02  0.73651361654E-01  0.17524617390E-01  0.75998195304E-01  0.51100000000E-03 0. -1.
</event>
<event>
 7    1  0.1199892E+005  0.1043930E+01  0.7957747E-01            NaN
         13   -1    0    0    0    0  0.00000000000E+00  0.00000000000E+00  0.74505805969E-08  0.10566000000E+00  0.10566000000E+00 0.  1.
     999900   -1    0    0    0    0 -0.00000000000E+00 -0.00000000000E+00 -0.74505805969E-08  0.93827000000E+00  0.93827000000E+00 0. -1.
     999902    2    1    2    0    0  0.45741712141E-02  0.17658615630E-01 -0.14667312481E-01  0.10205231676E+01  0.10202547014E+01 0.  0.
         14    1    1    2    0    0 -0.45741712141E-02 -0.17658615630E-01  0.14667312481E-01  0.23406832414E-01  0.00000000000E+00 0.  1.
     999901    1    3    3    0    0 -0.79283224188E-01  0.79015735201E-01  0.57884629891E-01  0.88897690995E+00  0.88000000000E+00 0.  1.
        -11    1    3    3    0    0  0.10956811693E-01 -0.24418842239E-01 -0.97972767290E-02  0.28505777153E-01  0.51100000000E-03 0. -1.
         11    1    3    3    0    0  0.72900583709E-01 -0.36938277332E-01 -0.62754665642E-01  0.10304048048E+00  0.51100000000E-03 0.  1.
</event>
<event>
 8    1  0.1199892E+005  0.1043930E+01  0.7957747E-01            NaN
         13   -1    0    0    0    0  0.00000000000E+00  0.00000000000E+00  0.74505805969E-08  0.10566000000E+00  0.10566000000E+00 0.  1.
     999900   -1    0    0    0    0 -0.00000000000E+00 -0.00000000000E+00 -0.74505805969E-08  0.93827000000E+00  0.93827000000E+00 0.  1.
     999902    2    1    2    0    0  0.12367186431E-02 -0.16186377257E-01  0.17499151933E-01  0.10200605928E+01  0.10197812826E+01 0.  0.
     999903    2    3    3    0    0  0.73719230297E-01  0.10351565440E+00 -0.33558723144E-02  0.12875973287E+00  0.20439943911E-01 0.  0.
         14    1    1    2    0    0 -0.12367186431E-02  0.16186377257E-01 -0.17499151933E-01  0.23869407200E-01  0.00000000000E+00 0. -1.
     999901    1    3    3    0    0 -0.72482511654E-01 -0.11970203166E+00  0.20855024247E-01  0.89130085993E+00  0.88000000000E+00 0. -1.
        -11    1    4    4    0    0  0.52692209360E-01  0.59720827652E-01  0.33502070230E-02  0.79715313402E-01  0.51100000000E-03 0. -1.
         11    1    4    4    0    0  0.21027020938E-01  0.43794826752E-01 -0.67060793374E-02  0.49044419467E-01  0.51100000000E-03 0.  1.
</event>
<event>
 8    1  0.1311506E+005  0.1043930E+01  0.7957747E-01            NaN
         13   -1    0    0    0    0  0.00000000000E+00  0.00000000000E+00  0.74505805969E-08  0.10566000000E+00  0.10566000000E+00 0. -1.
     999900   -1    0    0    0    0 -0.00000000000E+00 -0.00000000000E+00 -0.74505805969E-08  0.93827000000E+00  0.93827000000E+00 0. -1.
     999902    2    1    2    0    0 -0.91883313850E-02  0.16233887913E-01  0.13811103112E-01  0.10207198488E+01  0.10204559268E+01 0.  0.
     999903    2    3    3    0    0 -0.10466250832E+00 -0.74666413165E-01  0.12837077330E-01  0.13090013000E+00  0.20993798549E-01 0.  0.
         14    1    1    2    0    0  0.91883313850E-02 -0.16233887913E-01 -0.13811103112E-01  0.23210151218E-01  0.00000000000E+00 0.  1.
     999901    1    3    3    0    0  0.95474176938E-01  0.90900301078E-01  0.97402578212E-03  0.88981971878E+00  0.88000000000E+00 0. -1.
        -11    1    4    4    0    0 -0.51254183719E-01 -0.49296880646E-01  0.82546312090E-02  0.71593113130E-01  0.51100000000E-03 0. -1.
         11    1    4    4    0    0 -0.53408324603E-01 -0.25369532519E-01  0.45824461211E-02  0.59307016875E-01  0.51100000000E-03 0.  1.
</event>
<event>
 8    1  0.1199892E+005  0.1043930E+01  0.7957747E-01            NaN
         13   -1    0    0    0    0  0.00000000000E+00  0.00000000000E+00  0.74505805969E-08  0.10566000000E+00  0.10566000000E+00 0.  1.
     999900   -1    0    0    0    0 -0.00000000000E+00 -0.00000000000E+00 -0.74505805969E-08  0.93827000000E+00  0.93827000000E+00 0. -1.
     999902    2    1    2    0    0  0.22501388094E-01  0.21369240904E-02 -0.72477433995E-02  0.10201937683E+01  0.10199176026E+01 0.  0.
     999903    2    3    3    0    0  0.12173063354E+00 -0.44852519940E-01  0.18822110825E-01  0.13298799268E+00  0.22392825941E-01 0.  0.
         14    1    1    2    0    0 -0.22501388094E-01 -0.21369240904E-02  0.72477433995E-02  0.23736231696E-01  0.00000000000E+00 0.  1.
     999901    1    3    3    0    0 -0.99229245448E-01  0.46989444030E-01 -0.26069854224E-01  0.88720577562E+00  0.88000000000E+00 0. -1.
        -11    1    4    4    0    0  0.59994593709E-01 -0.28642571708E-01  0.15373582546E-03  0.66483328317E-01  0.51100000000E-03 0. -1.
         11    1    4    4    0    0  0.61736039833E-01 -0.16209948232E-01  0.18668374999E-01  0.66504664363E-01  0.51100000000E-03 0.  1.
</event>
<event>
 7    1  0.1199892E+005  0.1043930E+01  0.7957747E-01            NaN
         13   -1    0    0    0    0  0.00000000000E+00  0.00000000000E+00  0.74505805969E-08  0.10566000000E+00  0.10566000000E+00 0.  1.
     999900   -1    0    0    0    0 -0.00000000000E+00 -0.00000000000E+00 -0.74505805969E-08  0.93827000000E+00  0.93827000000E+00 0.  1.
     999903    2    1    2    0    0  0.45274946094E-01  0.34824459055E-01 -0.71658495156E-01  0.93720502793E-01  0.19647621315E-01 0.  0.
         14    1    1    2    0    0  0.47817065368E-01 -0.24263456376E-01  0.35871044322E-01  0.64512935730E-01  0.00000000000E+00 0.  1.
     999901    1    1    2    0    0 -0.93092011463E-01 -0.10561002679E-01  0.35787450835E-01  0.88569656148E+00  0.88000000000E+00 0. -1.
        -11    1    3    3    0    0  0.73969736605E-02  0.22725507425E-04 -0.17600738923E-01  0.19098766123E-01  0.51100000000E-03 0. -1.
         11    1    3    3    0    0  0.37877972434E-01  0.34801733548E-01 -0.54057756233E-01  0.74621736670E-01  0.51100000000E-03 0.  1.
</event>
<event>
 8    1  0.1199892E+005  0.1043930E+01  0.7957747E-01            NaN
         13   -1    0    0    0    0  0.00000000000E+00  0.00000000000E+00  0.74505805969E-08  0.10566000000E+00  0.10566000000E+00 0.  1.
     999900   -1    0    0    0    0 -0.00000000000E+00 -0.00000000000E+00 -0.74505805969E-08  0.93827000000E+00  0.93827000000E+00 0. -1.
     999902    2    1    2    0    0 -0.16664023915E-01 -0.52844372802E-02  0.16216562864E-01  0.10200848353E+01  0.10198060988E+01 0.  0.
     999903    2    3    3    0    0 -0.40279184018E-01  0.74826440323E-01  0.99249558211E-01  0.13223918042E+00  0.20379332590E-01 0.  0.
         14    1    1    2    0    0  0.16664023915E-01  0.52844372802E-02 -0.16216562864E-01  0.23845164741E-01  0.00000000000E+00 0.  1.
     999901    1    3    3    0    0  0.23615160103E-01 -0.80110877603E-01 -0.83032995347E-01  0.88784565484E+00  0.88000000000E+00 0.  1.
        -11    1    4    4    0    0 -0.24136835253E-01  0.58808191021E-01  0.81646379639E-01  0.10347648320E+00  0.51100000000E-03 0. -1.
         11    1    4    4    0    0 -0.16142348765E-01  0.16018249302E-01  0.17603178572E-01  0.28762697217E-01  0.51100000000E-03 0.  1.
</event>
<event>
 8    1  0.1199892E+005  0.1043930E+01  0.7957747E-01            NaN
         13   -1    0    0    0    0  0.00000000000E+00  0.00000000000E+00  0.74505805969E-08  0.10566000000E+00  0.10566000000E+00 0. -1.
     999900   -1    0    0    0    0 -0.00000000000E+00 -0.00000000000E+00 -0.74505805969E-08  0.93827000000E+00  0.93827000000E+00 0.  1.
     999902    2    1    2    0    0  0.15786873603E-02  0.44987801552E-03  0.22891860513E-01  0.10209793590E+01  0.10207213722E+01 0.  0.
     999903    2    3    3    0    0 -0.73218885768E-01 -0.18548080920E-01 -0.10232156617E+00  0.12877198311E+00  0.20186237721E-01 0.  0.
         14    1    1    2    0    0 -0.15786873603E-02 -0.44987801552E-03 -0.22891860513E-01  0.22950640988E-01  0.00000000000E+00 0.  1.
     999901    1    3    3    0    0  0.74797573128E-01  0.18997958935E-01  0.12521342668E+00  0.89220737590E+00  0.88000000000E+00 0.  1.
        -11    1    4    4    0    0 -0.32756797809E-01 -0.15298539556E-01 -0.36069955468E-01  0.51072065982E-01  0.51100000000E-03 0.  1.
         11    1    4    4    0    0 -0.40462087959E-01 -0.32495413641E-02 -0.66251610697E-01  0.77699917130E-01  0.51100000000E-03 0. -1.
</event>
<event>
 8    1  0.1199892E+005  0.1043930E+01  0.7957747E-01            NaN
         13   -1    0    0    0    0  0.00000000000E+00  0.00000000000E+00  0.74505805969E-08  0.10566000000E+00  0.10566000000E+00 0. -1.
     999900   -1    0    0    0    0 -0.00000000000E+00 -0.00000000000E+00 -0.74505805969E-08  0.93827000000E+00  0.93827000000E+00 0.  1.
     999902    2    1    2    0    0  0.10373168444E-01 -0.88517639635E-02 -0.19569829053E-01  0.10200776509E+01  0.10197987445E+01 0.  0.
     999903    2    3    3    0    0  0.52266159633E-03 -0.12869294539E+00 -0.20421822519E-01  0.13189992817E+00  0.20454653416E-01 0.  0.
         14    1    1    2    0    0 -0.10373168444E-01  0.88517639635E-02  0.19569829053E-01  0.23852349109E-01  0.00000000000E+00 0. -1.
     999901    1    3    3    0    0  0.98505068481E-02  0.11984118143E+00  0.85199346567E-03  0.88817772272E+00  0.88000000000E+00 0.  1.
        -11    1    4    4    0    0 -0.61018041395E-02 -0.11223902538E+00 -0.15383073082E-01  0.11345365085E+00  0.51100000000E-03 0.  1.
         11    1    4    4    0    0  0.66244657358E-02 -0.16453920012E-01 -0.50387494371E-02  0.18446277319E-01  0.51100000000E-03 0. -1.
</event>
<event>
 8    1  0.1199892E+005  0.1043930E+01  0.7957747E-01            NaN
         13   -1    0    0    0    0  0.00000000000E+00  0.00000000000E+00  0.74505805969E-08  0.10566000000E+00  0.10566000000E+00 0.  1.
     999900   -1    0    0    0    0 -0.00000000000E+00 -0.00000000000E+00 -0.74505805969E-08  0.93827000000E+00  0.93827000000E+00 0. -1.
     999902    2    1    2    0    0 -0.16774726982E-01  0.15602968812E-01 -0.47881419431E-02  0.10205255046E+01  0.10202570927E+01 0.  0.
     999903    2    3    3    0    0  0.50442798861E-01 -0.40889537877E-02 -0.11867981257E+00  0.13042591455E+00  0.19100412922E-01 0.  0.
         14    1    1    2    0    0  0.16774726982E-01 -0.15602968812E-01  0.47881419431E-02  0.23404495388E-01  0.00000000000E+00 0.  1.
     999901    1    3    3    0    0 -0.67217525844E-01  0.19691922600E-01  0.11389167063E+00  0.89009959007E+00  0.88000000000E+00 0.  1.
        -11    1    4    4    0    0  0.60122123250E-02 -0.49512225342E-02 -0.80951433049E-02  0.11245166417E-01  0.51100000000E-03 0.  1.
         11    1    4    4    0    0  0.44430586536E-01  0.86226874650E-03 -0.11058466926E+00  0.11918074813E+00  0.51100000000E-03 0. -1.
</event>
<event>
 8    1  0.1199892E+005  0.1043930E+01  0.7957747E-01            NaN
         13   -1    0    0    0    0  0.00000000000E+00  0.00000000000E+00  0.74505805969E-08  0.10566000000E+00  0.10566000000E+00 0.  1.
     999900   -1    0    0    0    0 -0.00000000000E+00 -0.00000000000E+00 -0.74505805969E-08  0.93827000000E+00  0.93827000000E+00 0.  1.
     999902    2    1    2    0    0  0.15553471610E-01  0.17498960973E-01  0.33298080875E-02  0.10202823418E+01  0.10200082575E+01 0.  0.
     999903    2    3    3    0    0 -0.74795621507E-01  0.97171317479E-01  0.41740236420E-01  0.13124578241E+00  0.21131921955E-01 0.  0.
         14    1    1    2    0    0 -0.15553471610E-01 -0.17498960973E-01 -0.33298080875E-02  0.23647658154E-01  0.00000000000E+00 0.  1.
     999901    1    3    3    0    0  0.90349093117E-01 -0.79672356507E-01 -0.38410428333E-01  0.88903655944E+00  0.88000000000E+00 0. -1.
        -11    1    4    4    0    0 -0.25216381823E-01  0.49901281571E-01  0.17766067176E-01  0.58667691949E-01  0.51100000000E-03 0. -1.
         11    1    4    4    0    0 -0.49579239684E-01  0.47270035908E-01  0.23974169244E-01  0.72578090457E-01  0.51100000000E-03 0.  1.
</event>
<event>
 8    1  0.1199892E+005  0.1043930E+01  0.7957747E-01            NaN
         13   -1    0    0    0    0  0.00000000000E+00  0.00000000000E+00  0.74505805969E-08  0.10566000000E+00  0.10566000000E+00 0.  1.
     999900   -1    0    0    0    0 -0.00000000000E+00 -0.00000000000E+00 -0.74505805969E-08  0.93827000000E+00  0.93827000000E+00 0.  1.
     999902    2    1    2    0    0 -0.17896349186E-01  0.68079761989E-02  0.13708939355E-01  0.10203808414E+01  0.10201090621E+01 0.  0.
     999903    2    3    3    0    0  0.83247296032E-01 -0.63077968672E-01 -0.71221631418E-01  0.12778502908E+00  0.18642704925E-01 0.  0.
         14    1    1    2    0    0  0.17896349186E-01 -0.68079761989E-02 -0.13708939355E-01  0.23549158633E-01  0.00000000000E+00 0. -1.
     999901    1    3    3    0    0 -0.10114364522E+00  0.69885944871E-01  0.84930570773E-01  0.89259581229E+00  0.88000000000E+00 0.  1.
        -11    1    4    4    0    0  0.42606532408E-01 -0.37262039477E-01 -0.28312174419E-01  0.63289940205E-01  0.51100000000E-03 0.  1.
         11    1    4    4    0    0  0.40640763624E-01 -0.25815929195E-01 -0.42909456999E-01  0.64495088876E-01  0.51100000000E-03 0. -1.
</event>
<event>
 8    1  0.1199892E+005  0.1043930E+01  0.7957747E-01            NaN
         13   -1    0    0    0    0  0.00000000000E+00  0.00000000000E+00  0.74505805969E-08  0.10566000000E+00  0.10566000000E+00 0. -1.
     999900   -1    0    0    0    0 -0.00000000000E+00 -0.00000000000E+00 -0.74505805969E-08  0.93827000000E+00  0.93827000000E+00 0. -1.
     999902    2    1    2    0    0  0.17901496388E-01  0.20630819835E-02 -0.15251859491E-01  0.10203219696E+01  0.10200488138E+01 0.  0.
     999903    2    3    3    0    0  0.92073580619E-01  0.91394714890E-01  0.17658607981E-01  0.13208509942E+00  0.17438718315E-01 0.  0.
         14    1    1    2    0    0 -0.17901496388E-01 -0.20630819835E-02  0.15251859491E-01  0.23608030374E-01  0.00000000000E+00 0. -1.
     999901    1    3    3    0    0 -0.74172084231E-01 -0.89331632906E-01 -0.32910467472E-01  0.88823687020E+00  0.88000000000E+00 0.  1.
        -11    1    4    4    0    0  0.20092000408E-01  0.10862027456E-01  0.43114359453E-02  0.23249123032E-01  0.51100000000E-03 0. -1.
         11    1    4    4    0    0  0.71981580210E-01  0.80532687434E-01  0.13347172035E-01  0.10883597639E+00  0.51100000000E-03 0.  1.
</event>
<event>
 8    1  0.1199892E+005  0.1043930E+01  0.7957747E-01            NaN
         13   -1    0    0    0    0  0.00000000000E+00  0.00000000000E+00  0.74505805969E-08  0.10566000000E+00  0.10566000000E+00 0.  1.
     999900   -1    0    0    0    0 -0.00000000000E+00 -0.00000000000E+00 -0.74505805969E-08  0.93827000000E+00  0.93827000000E+00 0. -1.
     999902    2    1    2    0    0  0.17381653058E-01  0.46119031618E-02 -0.15458271390E-01  0.10202160870E+01  0.10199404466E+01 0.  0.
     999903    2    3    3    0    0  0.15595281773E-01 -0.57682033815E-01  0.11238004512E+00  0.12879791307E+00  0.19728102598E-01 0.  0.
         14    1    1    2    0    0 -0.17381653058E-01 -0.46119031618E-02  0.15458271390E-01  0.23713912966E-01  0.00000000000E+00 0.  1.
     999901    1    3    3    0    0  0.17863712857E-02  0.62293936977E-01 -0.12783831651E+00  0.89141817396E+00  0.88000000000E+00 0. -1.
        -11    1    4    4    0    0  0.53872035047E-02 -0.42102374385E-01  0.62509468434E-01  0.75560086390E-01  0.51100000000E-03 0.  1.
         11    1    4    4    0    0  0.10208078268E-01 -0.15579659430E-01  0.49870576682E-01  0.53237826679E-01  0.51100000000E-03 0. -1.
</event>
<event>
 8    1  0.1199892E+005  0.1043930E+01  0.7957747E-01            NaN
         13   -1    0    0    0    0  0.00000000000E+00  0.00000000000E+00  0.74505805969E-08  0.10566000000E+00  0.10566000000E+00 0. -1.
     999900   -1    0    0    0    0 -0.00000000000E+00 -0.00000000000E+00 -0.74505805969E-08  0.93827000000E+00  0.93827000000E+00 0. -1.
     999902    2    1    2    0    0  0.32865116082E-03 -0.76472338204E-02  0.22564565820E-01  0.10201025405E+01  0.10198242227E+01 0.  0.
     999903    2    3    3    0    0  0.94155609838E-01 -0.71992851481E-01 -0.48960638780E-01  0.12990047826E+00  0.20706051609E-01 0.  0.
         14    1    1    2    0    0 -0.32865116082E-03  0.76472338204E-02 -0.22564565820E-01  0.23827459524E-01  0.00000000000E+00 0.  1.
     999901    1    3    3    0    0 -0.93826958677E-01  0.64345617661E-01  0.71525204601E-01  0.89020206222E+00  0.88000000000E+00 0.  1.
        -11    1    4    4    0    0  0.77543926283E-01 -0.63331419562E-01 -0.48263113040E-01  0.11114638280E+00  0.51100000000E-03 0.  1.
         11    1    4    4    0    0  0.16611683555E-01 -0.86614319188E-02 -0.69752573964E-03  0.18754095461E-01  0.51100000000E-03 0. -1.
</event>
<event>
 8    1  0.1199892E+005  0.1043930E+01  0.7957747E-01            NaN
         13   -1    0    0    0    0  0.00000000000E+00  0.00000000000E+00  0.74505805969E-08  0.10566000000E+00  0.10566000000E+00 0.  1.
     999900   -1    0    0    0    0 -0.00000000000E+00 -0.00000000000E+00 -0.74505805969E-08  0.93827000000E+00  0.93827000000E+00 0. -1.
     999902    2    1    2    0    0 -0.16758525496E-01  0.32966231494E-02 -0.14556207328E-01  0.10214889868E+01  0.10212424546E+01 0.  0.
     999903    2    3    3    0    0  0.22659056914E-01 -0.72793600424E-01 -0.10662717816E+00  0.13254549502E+00  0.19662451689E-01 0.  0.
         14    1    1    2    0    0  0.16758525496E-01 -0.32966231494E-02  0.14556207328E-01  0.22441013185E-01  0.00000000000E+00 0. -1.
     999901    1    3    3    0    0 -0.39417582411E-01  0.76090223574E-01  0.92070970830E-01  0.88894349179E+00  0.88000000000E+00 0.  1.
        -11    1    4    4    0    0  0.18958968607E-01 -0.45563175305E-01 -0.81649006816E-01  0.95405801027E-01  0.51100000000E-03 0. -1.
         11    1    4    4    0    0  0.37000883072E-02 -0.27230425120E-01 -0.24978171341E-01  0.37139693998E-01  0.51100000000E-03 0.  1.
</event>
<event>
 8    1  0.1199892E+005  0.1043930E+01  0.7957747E-01            NaN
         13   -1    0    0    0    0  0.00000000000E+00  0.00000000000E+00  0.74505805969E-08  0.10566000000E+00  0.10566000000E+00 0. -1.
     999900   -1    0    0    0    0 -0.00000000000E+00 -0.00000000000E+00 -0.74505805969E-08  0.93827000000E+00  0.93827000000E+00 0. -1.
     999902    2    1    2    0    0  0.11480427835E-01 -0.52474238508E-02 -0.20308522729E-01  0.10200182503E+01  0.10197379365E+01 0.  0.
     999903    2    3    3    0    0  0.50833237784E-02  0.83316775149E-01 -0.10006079420E+00  0.13196140236E+00  0.20835641946E-01 0.  0.
         14    1    1    2    0    0 -0.11480427835E-01  0.52474238508E-02  0.20308522729E-01  0.23911749743E-01  0.00000000000E+00 0. -1.
     999901    1    3    3    0    0  0.63971040563E-02 -0.88564199000E-01  0.79752271475E-01  0.88805684789E+00  0.88000000000E+00 0.  1.
        -11    1    4    4    0    0  0.99218227359E-02  0.18545742064E-01 -0.22772474510E-01  0.31003771245E-01  0.51100000000E-03 0.  1.
         11    1    4    4    0    0 -0.48384989575E-02  0.64771033085E-01 -0.77288319694E-01  0.10095763112E+00  0.51100000000E-03 0. -1.
</event>
<event>
 8    1  0.1199892E+005  0.1043930E+01  0.7957747E-01            NaN
         13   -1    0    0    0    0  0.00000000000E+00  0.00000000000E+00  0.74505805969E-08  0.10566000000E+00  0.10566000000E+00 0.  1.
     999900   -1    0    0    0    0 -0.00000000000E+00 -0.00000000000E+00 -0.74505805969E-08  0.93827000000E+00  0.93827000000E+00 0. -1.
     999902    2    1    2    0    0  0.82096347260E-03 -0.19473789690E-01  0.13513690387E-01  0.10202124476E+01  0.10199367215E+01 0.  0.
     999903    2    3    3    0    0 -0.71202725000E-01  0.10431982754E+00 -0.11433295355E-01  0.12828497099E+00  0.19335435692E-01 0.  0.
         14    1    1    2    0    0 -0.82096347260E-03  0.19473789690E-01 -0.13513690387E-01  0.23717552441E-01  0.00000000000E+00 0. -1.
     999901    1    3    3    0    0  0.72023688472E-01 -0.12379361723E+00  0.24946985743E-01  0.89192747657E+00  0.88000000000E+00 0.  1.
        -11    1    4    4    0    0 -0.12152564735E-02  0.60683015765E-03  0.19730056019E-02  0.24492781062E-02  0.51100000000E-03 0.  1.
         11    1    4    4    0    0 -0.69987468526E-01  0.10371299738E+00 -0.13406300957E-01  0.12583569288E+00  0.51100000000E-03 0. -1.
</event>
<event>
 8    1  0.1199892E+005  0.1043930E+01  0.7957747E-01            NaN
         13   -1    0    0    0    0  0.00000000000E+00  0.00000000000E+00  0.74505805969E-08  0.10566000000E+00  0.10566000000E+00 0. -1.
     999900   -1    0    0    0    0 -0.00000000000E+00 -0.00000000000E+00 -0.74505805969E-08  0.93827000000E+00  0.93827000000E+00 0. -1.
     999902    2    1    2    0    0  0.14523343279E-01 -0.14204079416E-01 -0.14168699816E-01  0.10191623714E+01  0.10188613762E+01 0.  0.
     999903    2    3    3    0    0  0.36780978401E-01  0.93823874047E-01  0.77597265387E-01  0.12754225418E+00  0.94832111441E-02 0.  0.
         14    1    1    2    0    0 -0.14523343279E-01  0.14204079416E-01  0.14168699816E-01  0.24767628601E-01  0.00000000000E+00 0. -1.
     999901    1    3    3    0    0 -0.22257635122E-01 -0.10802795346E+00 -0.91765965203E-01  0.89162011721E+00  0.88000000000E+00 0. -1.
        -11    1    4    4    0    0  0.29838346200E-01  0.64898823868E-01  0.56374386516E-01  0.90997345123E-01  0.51100000000E-03 0. -1.
         11    1    4    4    0    0  0.69426322016E-02  0.28925050179E-01  0.21222878871E-01  0.36544909062E-01  0.51100000000E-03 0.  1.
</event>
<event>
 8    1  0.1199892E+005  0.1043930E+01  0.7957747E-01            NaN
         13   -1    0    0    0    0  0.00000000000E+00  0.00000000000E+00  0.74505805969E-08  0.10566000000E+00  0.10566000000E+00 0.  1.
     999900   -1    0    0    0    0 -0.00000000000E+00 -0.00000000000E+00 -0.74505805969E-08  0.93827000000E+00  0.93827000000E+00 0.  1.
     999902    2    1    2    0    0  0.14683031231E-01  0.47598620008E-02 -0.18041018569E-01  0.10201870844E+01  0.10199107613E+01 0.  0.
     999903    2    3    3    0    0 -0.90842030309E-01 -0.28433958197E-01  0.80210163273E-01  0.12783588497E+00  0.29113205660E-01 0.  0.
         14    1    1    2    0    0 -0.14683031231E-01 -0.47598620008E-02  0.18041018569E-01  0.23742915647E-01  0.00000000000E+00 0.  1.
     999901    1    3    3    0    0  0.10552506154E+00  0.33193820197E-01 -0.98251181842E-01  0.89235119939E+00  0.88000000000E+00 0. -1.
        -11    1    4    4    0    0 -0.17006717692E-01 -0.12837572607E-01  0.31434390534E-01  0.37979122506E-01  0.51100000000E-03 0.  1.
         11    1    4    4    0    0 -0.73835312617E-01 -0.15596385589E-01  0.48775772739E-01  0.89856762461E-01  0.51100000000E-03 0. -1.
</event>
<event>
 8    1  0.1199892E+005  0.1043930E+01  0.7957747E-01            NaN
         13   -1    0    0    0    0  0.00000000000E+00  0.00000000000E+00  0.74505805969E-08  0.10566000000E+00  0.10566000000E+00 0. -1.
     999900   -1    0    0    0    0 -0.00000000000E+00 -0.00000000000E+00 -0.74505805969E-08  0.93827000000E+00  0.93827000000E+00 0.  1.
     999902    2    1    2    0    0  0.20238153044E-01  0.10203611688E-01  0.55712941808E-02  0.10205904231E+01  0.10203235153E+01 0.  0.
     999903    2    3    3    0    0 -0.66323116961E-01 -0.46231366567E-01  0.99259063605E-01  0.12960492471E+00  0.20223246608E-01 0.  0.
         14    1    1    2    0    0 -0.20238153044E-01 -0.10203611688E-01 -0.55712941808E-02  0.23339576880E-01  0.00000000000E+00 0. -1.
     999901    1    3    3    0    0  0.86561270005E-01  0.56434978255E-01 -0.93687769424E-01  0.89098549841E+00  0.88000000000E+00 0.  1.
        -11    1    4    4    0    0 -0.40348465466E-01 -0.38486439049E-01  0.60178780073E-01  0.82042375320E-01  0.51100000000E-03 0. -1.
         11    1    4    4    0    0 -0.25974651495E-01 -0.77449275183E-02  0.39080283532E-01  0.47562549390E-01  0.51100000000E-03 0.  1.
</event>
<event>
 8    1  0.1199892E+005  0.1043930E+01  0.7957747E-01            NaN
         13   -1    0    0    0    0  0.00000000000E+00  0.00000000000E+00  0.74505805969E-08  0.10566000000E+00  0.10566000000E+00 0. -1.
     999900   -1    0    0    0    0 -0.00000000000E+00 -0.00000000000E+00 -0.74505805969E-08  0.93827000000E+00  0.93827000000E+00 0. -1.
     999902    2    1    2    0    0 -0.73015301040E-02 -0.11325964069E-01 -0.17864161646E-01  0.10215532693E+01  0.10213081631E+01 0.  0.
     999903    2    3    3    0    0 -0.77525963479E-01 -0.30561362619E-01 -0.10367919892E+00  0.13438604033E+00  0.19130071842E-01 0.  0.
         14    1    1    2    0    0  0.73015301040E-02  0.11325964069E-01  0.17864161646E-01  0.22376730666E-01  0.00000000000E+00 0. -1.
     999901    1    3    3    0    0  0.70224433375E-01  0.19235398550E-01  0.85815037271E-01  0.88716722901E+00  0.88000000000E+00 0. -1.
        -11    1    4    4    0    0 -0.48420518945E-01 -0.13788774636E-01 -0.49300366312E-01  0.70466049984E-01  0.51100000000E-03 0.  1.
         11    1    4    4    0    0 -0.29105444534E-01 -0.16772587983E-01 -0.54378832605E-01  0.63919990345E-01  0.51100000000E-03 0. -1.
</event>
<event>
 8    1  0.1199892E+005  0.1043930E+01  0.7957747E-01            NaN
         13   -1    0    0    0    0  0.00000000000E+00  0.00000000000E+00  0.74505805969E-08  0.10566000000E+00  0.10566000000E+00 0.  1.
     999900   -1    0    0    0    0 -0.00000000000E+00 -0.00000000000E+00 -0.74505805969E-08  0.93827000000E+00  0.93827000000E+00 0.  1.
     999902    2    1    2    0    0  0.73949908312E-02  0.74217586360E-02 -0.21963629816E-01  0.10195954685E+01  0.10193050328E+01 0.  0.
     999903    2    3    3    0    0  0.10516791381E+00  0.25663371647E-01 -0.73752337442E-01  0.13247970873E+00  0.19813308884E-01 0.  0.
         14    1    1    2    0    0 -0.73949908312E-02 -0.74217586360E-02  0.21963629816E-01  0.24334531542E-01  0.00000000000E+00 0.  1.
     999901    1    3    3    0    0 -0.97772922978E-01 -0.18241613011E-01  0.51788707625E-01  0.88711575972E+00  0.88000000000E+00 0. -1.
        -11    1    4    4    0    0  0.70183069169E-01  0.21027208219E-01 -0.59625713892E-01  0.94463186277E-01  0.51100000000E-03 0. -1.
         11    1    4    4    0    0  0.34984844641E-01  0.46361634279E-02 -0.14126623550E-01  0.38016522458E-01  0.51100000000E-03 0.  1.
</event>
<event>
 8    1  0.1199892E+005  0.1043930E+01  0.7957747E-01            NaN
         13   -1    0    0    0    0  0.00000000000E+00  0.00000000000E+00  0.74505805969E-08  0.10566000000E+00  0.10566000000E+00 0. -1.
     999900   -1    0    0    0    0 -0.00000000000E+00 -0.00000000000E+00 -0.74505805969E-08  0.93827000000E+00  0.93827000000E+00 0.  1.
     999902    2    1    2    0    0  0.74779296570E-02 -0.22100211297E-01  0.36302631321E-02  0.10203181898E+01  0.10200449455E+01 0.  0.
     999903    2    3    3    0    0 -0.20072015976E-01 -0.94112779128E-01 -0.88299166504E-01  0.13217640523E+00  0.20341048996E-01 0.  0.
         14    1    1    2    0    0 -0.74779296570E-02  0.22100211297E-01 -0.36302631321E-02  0.23611810218E-01  0.00000000000E+00 0.  1.
     999901    1    3    3    0    0  0.27549945633E-01  0.72012567831E-01  0.91929429637E-01  0.88814178455E+00  0.88000000000E+00 0. -1.
        -11    1    4    4    0    0 -0.11684277664E-01 -0.66056188066E-01 -0.72966576709E-01  0.99117731834E-01  0.51100000000E-03 0.  1.
         11    1    4    4    0    0 -0.83877383128E-02 -0.28056591062E-01 -0.15332589796E-01  0.33058673398E-01  0.51100000000E-03 0. -1.
</event>
<event>
 8    1  0.1199892E+005  0.1043930E+01  0.7957747E-01            NaN
         13   -1    0    0    0    0  0.00000000000E+00  0.00000000000E+00  0.74505805969E-08  0.10566000000E+00  0.10566000000E+00 0.  1.
     999900   -1    0    0    0    0 -0.00000000000E+00 -0.00000000000E+00 -0.74505805969E-08  0.93827000000E+00  0.93827000000E+00 0. -1.
     999902    2    1    2    0    0 -0.16957660770E-01 -0.46943051267E-03 -0.17358745970E-01  0.10196584388E+01  0.10193695223E+01 0.  0.
     999903    2    3    3    0    0  0.48398945084E-01  0.72607036798E-01 -0.95376046806E-01  0.13078366960E+00  0.19837798566E-01 0.  0.
         14    1    1    2    0    0  0.16957660770E-01  0.46943051267E-03  0.17358745970E-01  0.24271561248E-01  0.00000000000E+00 0. -1.
     999901    1    3    3    0    0 -0.65356605854E-01 -0.73076467310E-01  0.78017300837E-01  0.88887476915E+00  0.88000000000E+00 0.  1.
        -11    1    4    4    0    0  0.37867867948E-01  0.40547457571E-01 -0.54455008652E-01  0.77741114133E-01  0.51100000000E-03 0.  1.
         11    1    4    4    0    0  0.10531077136E-01  0.32059579227E-01 -0.40921038155E-01  0.53042555467E-01  0.51100000000E-03 0. -1.
</event>
<event>
 8    1  0.1199892E+005  0.1043930E+01  0.7957747E-01            NaN
         13   -1    0    0    0    0  0.00000000000E+00  0.00000000000E+00  0.74505805969E-08  0.10566000000E+00  0.10566000000E+00 0.  1.
     999900   -1    0    0    0    0 -0.00000000000E+00 -0.00000000000E+00 -0.74505805969E-08  0.93827000000E+00  0.93827000000E+00 0. -1.
     999902    2    1    2    0    0  0.77060533751E-03 -0.15244062345E-01 -0.16880520770E-01  0.10211719849E+01  0.10209183589E+01 0.  0.
     999903    2    3    3    0    0 -0.83506757416E-01 -0.92062875440E-01  0.38906274251E-01  0.13206233452E+00  0.21858875869E-01 0.  0.
         14    1    1    2    0    0 -0.77060533751E-03  0.15244062345E-01  0.16880520770E-01  0.22758015090E-01  0.00000000000E+00 0.  1.
     999901    1    3    3    0    0  0.84277362754E-01  0.76818813096E-01 -0.55786795022E-01  0.88910965039E+00  0.88000000000E+00 0. -1.
        -11    1    4    4    0    0 -0.54915648434E-01 -0.69174239661E-01  0.35799102702E-01  0.95302889520E-01  0.51100000000E-03 0. -1.
         11    1    4    4    0    0 -0.28591108983E-01 -0.22888635780E-01  0.31071715496E-02  0.36759445001E-01  0.51100000000E-03 0.  1.
</event>
<event>
 8    1  0.1199892E+005  0.1043930E+01  0.7957747E-01            NaN
         13   -1    0    0    0    0  0.00000000000E+00  0.00000000000E+00  0.74505805969E-08  0.10566000000E+00  0.10566000000E+00 0. -1.
     999900   -1    0    0    0    0 -0.00000000000E+00 -0.00000000000E+00 -0.74505805969E-08  0.93827000000E+00  0.93827000000E+00 0. -1.
     999902    2    1    2    0    0 -0.54210453288E-02 -0.22178452026E-01  0.24063960616E-02  0.10209721645E+01  0.10207140141E+01 0.  0.
     999903    2    3    3    0    0  0.58512727486E-01 -0.14387360899E-01  0.11405589847E+00  0.13158257624E+00  0.25970963798E-01 0.  0.
         14    1    1    2    0    0  0.54210453288E-02  0.22178452026E-01 -0.24063960616E-02  0.22957835454E-01  0.00000000000E+00 0. -1.
     999901    1    3    3    0    0 -0.63933772815E-01 -0.77910911265E-02 -0.11164950241E+00  0.88938958831E+00  0.88000000000E+00 0. -1.
        -11    1    4    4    0    0  0.28009997008E-01 -0.33947636294E-02  0.78707953480E-01  0.83613918785E-01  0.51100000000E-03 0. -1.
         11    1    4    4    0    0  0.30502730478E-01 -0.10992597270E-01  0.35347944993E-01  0.47968657450E-01  0.51100000000E-03 0.  1.
</event>
<event>
 8    1  0.1199892E+005  0.1043930E+01  0.7957747E-01            NaN
         13   -1    0    0    0    0  0.00000000000E+00  0.00000000000E+00  0.74505805969E-08  0.10566000000E+00  0.10566000000E+00 0. -1.
     999900   -1    0    0    0    0 -0.00000000000E+00 -0.00000000000E+00 -0.74505805969E-08  0.93827000000E+00  0.93827000000E+00 0.  1.
     999902    2    1    2    0    0 -0.23254875287E-01  0.17088761523E-02 -0.14615430839E-02  0.10205666614E+01  0.10202992036E+01 0.  0.
     999903    2    3    3    0    0 -0.73542456799E-01  0.10036225161E+00  0.41221453961E-01  0.13260091455E+00  0.20067879137E-01 0.  0.
         14    1    1    2    0    0  0.23254875287E-01 -0.17088761523E-02  0.14615430839E-02  0.23363338599E-01  0.00000000000E+00 0. -1.
     999901    1    3    3    0    0  0.50287581512E-01 -0.98653375456E-01 -0.42682997045E-01  0.88796574685E+00  0.88000000000E+00 0.  1.
        -11    1    4    4    0    0 -0.44021328974E-01  0.53663348976E-01  0.32589020454E-01  0.76680752495E-01  0.51100000000E-03 0.  1.
         11    1    4    4    0    0 -0.29521127824E-01  0.46698902632E-01  0.86324335072E-02  0.55920162056E-01  0.51100000000E-03 0. -1.
</event>
<event>
 8    1  0.1199892E+005  0.1043930E+01  0.7957747E-01            NaN
         13   -1    0    0    0    0  0.00000000000E+00  0.00000000000E+00  0.74505805969E-08  0.10566000000E+00  0.10566000000E+00 0.  1.
     999900   -1    0    0    0    0 -0.00000000000E+00 -0.00000000000E+00 -0.74505805969E-08  0.93827000000E+00  0.93827000000E+00 0.  1.
     999902    2    1    2    0    0 -0.28492346424E-01 -0.84318367333E-02 -0.15267367182E-01  0.10105233813E+01  0.10099710401E+01 0.  0.
     999903    2    3    3    0    0  0.45755806007E-01 -0.66516083812E-01 -0.89720540773E-01  0.12236244823E+00  0.20119893388E-01 0.  0.
         14    1    1    2    0    0  0.28492346424E-01  0.84318367333E-02  0.15267367182E-01  0.33406618747E-01  0.00000000000E+00 0.  1.
     999901    1    3    3    0    0 -0.74248152432E-01  0.58084247079E-01  0.74453173591E-01  0.88816093303E+00  0.88000000000E+00 0. -1.
        -11    1    4    4    0    0  0.43763712545E-01 -0.58630664969E-01 -0.87208264067E-01  0.11383479193E+00  0.51100000000E-03 0. -1.
         11    1    4    4    0    0  0.19920934620E-02 -0.78854188432E-02 -0.25122767063E-02  0.85276562983E-02  0.51100000000E-03 0.  1.
</event>
<event>
 8    1  0.1199892E+005  0.1043930E+01  0.7957747E-01            NaN
         13   -1    0    0    0    0  0.00000000000E+00  0.00000000000E+00  0.74505805969E-08  0.10566000000E+00  0.10566000000E+00 0. -1.
     999900   -1    0    0    0    0 -0.00000000000E+00 -0.00000000000E+00 -0.74505805969E-08  0.93827000000E+00  0.93827000000E+00 0.  1.
     999902    2    1    2    0    0  0.14740821388E-01  0.92613186150E-02  0.15415773018E-01  0.10206768304E+01  0.10204119179E+01 0.  0.
     999903    2    3    3    0    0 -0.10695840557E+00 -0.38759026833E-01 -0.56012282579E-01  0.12814188850E+00  0.18455489887E-01 0.  0.
         14    1    1    2    0    0 -0.14740821388E-01 -0.92613186150E-02 -0.15415773018E-01  0.23253169578E-01  0.00000000000E+00 0. -1.
     999901    1    3    3    0    0  0.12169922696E+00  0.48020345448E-01  0.71428055596E-01  0.89253494192E+00  0.88000000000E+00 0. -1.
        -11    1    4    4    0    0 -0.61713332125E-01 -0.15005113894E-01 -0.24331252320E-01  0.68014408513E-01  0.51100000000E-03 0.  1.
         11    1    4    4    0    0 -0.45245073444E-01 -0.23753912939E-01 -0.31681030259E-01  0.60127479991E-01  0.51100000000E-03 0. -1.
</event>
<event>
 8    1  0.1199892E+005  0.1043930E+01  0.7957747E-01            NaN
         13   -1    0    0    0    0  0.00000000000E+00  0.00000000000E+00  0.74505805969E-08  0.10566000000E+00  0.10566000000E+00 0. -1.
     999900   -1    0    0    0    0 -0.00000000000E+00 -0.00000000000E+00 -0.74505805969E-08  0.93827000000E+00  0.93827000000E+00 0.  1.
     999902    2    1    2    0    0  0.52650675138E-02  0.12303893877E-01 -0.14565621334E-01  0.10241496040E+01  0.10239585672E+01 0.  0.
     999903    2    3    3    0    0 -0.37087315707E-02  0.12477024662E+00  0.47189909103E-01  0.13479986679E+00  0.19045929563E-01 0.  0.
         14    1    1    2    0    0 -0.52650675138E-02 -0.12303893877E-01  0.14565621334E-01  0.19780395985E-01  0.00000000000E+00 0. -1.
     999901    1    3    3    0    0  0.89737990845E-02 -0.11246635274E+00 -0.61755530437E-01  0.88934973723E+00  0.88000000000E+00 0.  1.
        -11    1    4    4    0    0 -0.11242330253E-01  0.67499496087E-01  0.23312699039E-01  0.72293257078E-01  0.51100000000E-03 0. -1.
         11    1    4    4    0    0  0.75335986823E-02  0.57270750534E-01  0.23877210064E-01  0.62506609708E-01  0.51100000000E-03 0.  1.
</event>
<event>
 8    1  0.1199892E+005  0.1043930E+01  0.7957747E-01            NaN
         13   -1    0    0    0    0  0.00000000000E+00  0.00000000000E+00  0.74505805969E-08  0.10566000000E+00  0.10566000000E+00 0.  1.
     999900   -1    0    0    0    0 -0.00000000000E+00 -0.00000000000E+00 -0.74505805969E-08  0.93827000000E+00  0.93827000000E+00 0.  1.
     999902    2    1    2    0    0  0.10051791953E-01 -0.58645208399E-02 -0.21090515628E-01  0.10198418084E+01  0.10195572927E+01 0.  0.
     999903    2    3    3    0    0 -0.54887140117E-01 -0.99990734767E-01 -0.62114637586E-01  0.13149514877E+00  0.20542657061E-01 0.  0.
         14    1    1    2    0    0 -0.10051791953E-01  0.58645208399E-02  0.21090515628E-01  0.24088191622E-01  0.00000000000E+00 0.  1.
     999901    1    3    3    0    0  0.64938932070E-01  0.94126213927E-01  0.41024121958E-01  0.88834665960E+00  0.88000000000E+00 0. -1.
        -11    1    4    4    0    0 -0.20302398242E-01 -0.19026911964E-01 -0.13696704267E-01  0.31017278766E-01  0.51100000000E-03 0.  1.
         11    1    4    4    0    0 -0.34584741876E-01 -0.80963822803E-01 -0.48417933320E-01  0.10047787001E+00  0.51100000000E-03 0. -1.
</event>
<event>
 8    1  0.1199892E+005  0.1043930E+01  0.7957747E-01            NaN
         13   -1    0    0    0    0  0.00000000000E+00  0.00000000000E+00  0.74505805969E-08  0.10566000000E+00  0.10566000000E+00 0.  1.
     999900   -1    0    0    0    0 -0.00000000000E+00 -0.00000000000E+00 -0.74505805969E-08  0.93827000000E+00  0.93827000000E+00 0. -1.
     999902    2    1    2    0    0 -0.77811177584E-02 -0.21436367946E-01  0.22843451149E-02  0.10210109709E+01  0.10207537023E+01 0.  0.
     999903    2    3    3    0    0  0.12296578777E+00  0.22344149176E-01  0.29611742766E-01  0.12985538756E+00  0.19123817706E-01 0.  0.
         14    1    1    2    0    0  0.77811177584E-02  0.21436367946E-01 -0.22843451149E-02  0.22919029144E-01  0.00000000000E+00 0.  1.
     999901    1    3    3    0    0 -0.13074690553E+00 -0.43780517122E-01 -0.27327397651E-01  0.89115558330E+00  0.88000000000E+00 0.  1.
        -11    1    4    4    0    0  0.13391166859E-01  0.46069002390E-02 -0.23025211249E-02  0.14356517830E-01  0.51100000000E-03 0.  1.
         11    1    4    4    0    0  0.10957462091E+00  0.17737248937E-01  0.31914263891E-01  0.11549886973E+00  0.51100000000E-03 0. -1.
</event>
<event>
 8    1  0.1199892E+005  0.1043930E+01  0.7957747E-01            NaN
         13   -1    0    0    0    0  0.00000000000E+00  0.00000000000E+00  0.74505805969E-08  0.10566000000E+00  0.10566000000E+00 0.  1.
     999900   -1    0    0    0    0 -0.00000000000E+00 -0.00000000000E+00 -0.74505805969E-08  0.93827000000E+00  0.93827000000E+00 0.  1.
     999902    2    1    2    0    0  0.13963715009E-01 -0.18432688784E-01  0.60748909668E-02  0.10200207204E+01  0.10197404652E+01 0.  0.
     999903    2    3    3    0    0  0.88176744499E-01  0.84932369176E-01  0.41134503862E-01  0.13017742775E+00  0.16293240387E-01 0.  0.
         14    1    1    2    0    0 -0.13963715009E-01  0.18432688784E-01 -0.60748909668E-02  0.23909279641E-01  0.00000000000E+00 0. -1.
     999901    1    3    3    0    0 -0.74213029490E-01 -0.10336505796E+00 -0.35059612895E-01  0.88984329261E+00  0.88000000000E+00 0.  1.
        -11    1    4    4    0    0  0.18422460273E-01  0.24273782956E-01  0.15790150261E-01  0.34324824075E-01  0.51100000000E-03 0.  1.
         11    1    4    4    0    0  0.69754284226E-01  0.60658586220E-01  0.25344353600E-01  0.95852603671E-01  0.51100000000E-03 0. -1.
</event>
<event>
 8    1  0.1199892E+005  0.1043930E+01  0.7957747E-01            NaN
         13   -1    0    0    0    0  0.00000000000E+00  0.00000000000E+00  0.74505805969E-08  0.10566000000E+00  0.10566000000E+00 0.  1.
     999900   -1    0    0    0    0 -0.00000000000E+00 -0.00000000000E+00 -0.74505805969E-08  0.93827000000E+00  0.93827000000E+00 0. -1.
     999902    2    1    2    0    0  0.18871644801E-01  0.69000926327E-02 -0.98490833458E-02  0.10215524510E+01  0.10213073267E+01 0.  0.
     999903    2    3    3    0    0 -0.12766928687E+00 -0.11295215947E-02 -0.60348765158E-02  0.12939032027E+00  0.20117470411E-01 0.  0.
         14    1    1    2    0    0 -0.18871644801E-01 -0.69000926327E-02  0.98490833458E-02  0.22377548986E-01  0.00000000000E+00 0. -1.
     999901    1    3    3    0    0  0.14654093167E+00  0.80296142273E-02 -0.38142068300E-02  0.89216213074E+00  0.88000000000E+00 0. -1.
        -11    1    4    4    0    0 -0.39143690671E-01 -0.49481591062E-02 -0.99527279289E-02  0.40694357252E-01  0.51100000000E-03 0.  1.
         11    1    4    4    0    0 -0.88525596200E-01  0.38186375116E-02  0.39178514131E-02  0.88695963019E-01  0.51100000000E-03 0. -1.
</event>
<event>
 8    1  0.1199892E+005  0.1043930E+01  0.7957747E-01            NaN
         13   -1    0    0    0    0  0.00000000000E+00  0.00000000000E+00  0.74505805969E-08  0.10566000000E+00  0.10566000000E+00 0.  1.
     999900   -1    0    0    0    0 -0.00000000000E+00 -0.00000000000E+00 -0.74505805969E-08  0.93827000000E+00  0.93827000000E+00 0. -1.
     999902    2    1    2    0    0  0.15554919919E-01 -0.17771435215E-01 -0.41366383215E-02  0.10199531107E+01  0.10196712494E+01 0.  0.
     999903    2    3    3    0    0  0.12089859708E+00  0.43501843284E-01 -0.19143347098E-01  0.13142798091E+00  0.19949067268E-01 0.  0.
         14    1    1    2    0    0 -0.15554919919E-01  0.17771435215E-01  0.41366383215E-02  0.23976889287E-01  0.00000000000E+00 0.  1.
     999901    1    3    3    0    0 -0.10534367716E+00 -0.61273278499E-01  0.15006708777E-01  0.88852512980E+00  0.88000000000E+00 0.  1.
        -11    1    4    4    0    0  0.71606712461E-01  0.33150028630E-01 -0.18523292515E-01  0.81054420942E-01  0.51100000000E-03 0.  1.
         11    1    4    4    0    0  0.49291884616E-01  0.10351814654E-01 -0.62005458266E-03  0.50373559972E-01  0.51100000000E-03 0. -1.
</event>
<event>
 8    1  0.1199892E+005  0.1043930E+01  0.7957747E-01            NaN
         13   -1    0    0    0    0  0.00000000000E+00  0.00000000000E+00  0.74505805969E-08  0.10566000000E+00  0.10566000000E+00 0. -1.
     999900   -1    0    0    0    0 -0.00000000000E+00 -0.00000000000E+00 -0.74505805969E-08  0.93827000000E+00  0.93827000000E+00 0.  1.
     999902    2    1    2    0    0  0.12685788495E-01 -0.99000546738E-03 -0.20170331579E-01  0.10200814861E+01  0.10198026704E+01 0.  0.
     999903    2    3    3    0    0  0.19622983856E-01  0.11584366470E+00  0.50696050662E-01  0.12950848216E+00  0.19938436533E-01 0.  0.
         14    1    1    2    0    0 -0.12685788495E-01  0.99000546738E-03  0.20170331579E-01  0.23848513928E-01  0.00000000000E+00 0. -1.
     999901    1    3    3    0    0 -0.69371953608E-02 -0.11683367017E+00 -0.70866382241E-01  0.89057300391E+00  0.88000000000E+00 0.  1.
        -11    1    4    4    0    0  0.20781717501E-01  0.68307620630E-01  0.26558232912E-01  0.76180126508E-01  0.51100000000E-03 0. -1.
         11    1    4    4    0    0 -0.11587336446E-02  0.47536044073E-01  0.24137817750E-01  0.53328355651E-01  0.51100000000E-03 0.  1.
</event>
<event>
 8    1  0.1199892E+005  0.1043930E+01  0.7957747E-01            NaN
         13   -1    0    0    0    0  0.00000000000E+00  0.00000000000E+00  0.74505805969E-08  0.10566000000E+00  0.10566000000E+00 0.  1.
     999900   -1    0    0    0    0 -0.00000000000E+00 -0.00000000000E+00 -0.74505805969E-08  0.93827000000E+00  0.93827000000E+00 0. -1.
     999902    2    1    2    0    0 -0.58128109518E-02 -0.80028998453E-02  0.21589012759E-01  0.10201829865E+01  0.10199065670E+01 0.  0.
     999903    2    3    3    0    0  0.12444395371E+00 -0.27240862131E-01  0.20317941942E-01  0.13038607736E+00  0.18956482283E-01 0.  0.
         14    1    1    2    0    0  0.58128109518E-02  0.80028998453E-02 -0.21589012759E-01  0.23747013475E-01  0.00000000000E+00 0. -1.
     999901    1    3    3    0    0 -0.13025676466E+00  0.19237962286E-01  0.12710708164E-02  0.88979690916E+00  0.88000000000E+00 0.  1.
        -11    1    4    4    0    0  0.44133180095E-01 -0.15291741086E-02  0.11243921547E-01  0.45571513597E-01  0.51100000000E-03 0.  1.
         11    1    4    4    0    0  0.80310773616E-01 -0.25711688022E-01  0.90740203954E-02  0.84814563766E-01  0.51100000000E-03 0. -1.
</event>
<event>
 8    1  0.1199892E+005  0.1043930E+01  0.7957747E-01            NaN
         13   -1    0    0    0    0  0.00000000000E+00  0.00000000000E+00  0.74505805969E-08  0.10566000000E+00  0.10566000000E+00 0. -1.
     999900   -1    0    0    0    0 -0.00000000000E+00 -0.00000000000E+00 -0.74505805969E-08  0.93827000000E+00  0.93827000000E+00 0.  1.
     999902    2    1    2    0    0 -0.20289872209E-01  0.11133106575E-01 -0.50861468654E-02  0.10202341382E+01  0.10199589222E+01 0.  0.
     999903    2    3    3    0    0 -0.21292494419E-01  0.28003225033E-01 -0.12545912128E+00  0.13187877062E+00  0.20358489566E-01 0.  0.
         14    1    1    2    0    0  0.20289872209E-01 -0.11133106575E-01  0.50861468654E-02  0.23695861795E-01  0.00000000000E+00 0. -1.
     999901    1    3    3    0    0  0.10026222104E-02 -0.16870118458E-01  0.12037297441E+00  0.88835536759E+00  0.88000000000E+00 0. -1.
        -11    1    4    4    0    0  0.24565170391E-02  0.14271518759E-02 -0.27223921342E-01  0.27376527404E-01  0.51100000000E-03 0.  1.
         11    1    4    4    0    0 -0.23749011459E-01  0.26576073157E-01 -0.98235199936E-01  0.10450224322E+00  0.51100000000E-03 0. -1.
</event>
<event>
 8    1  0.1199892E+005  0.1043930E+01  0.7957747E-01            NaN
         13   -1    0    0    0    0  0.00000000000E+00  0.00000000000E+00  0.74505805969E-08  0.10566000000E+00  0.10566000000E+00 0.  1.
     999900   -1    0    0    0    0 -0.00000000000E+00 -0.00000000000E+00 -0.74505805969E-08  0.93827000000E+00  0.93827000000E+00 0. -1.
     999902    2    1    2    0    0  0.81836048178E-02 -0.21453153544E-01 -0.27789395806E-02  0.10208014097E+01  0.10205393605E+01 0.  0.
     999903    2    3    3    0    0 -0.81441058566E-01 -0.68718485214E-01 -0.75358369781E-01  0.13201889098E+00  0.19880328200E-01 0.  0.
         14    1    1    2    0    0 -0.81836048178E-02  0.21453153544E-01  0.27789395806E-02  0.23128590315E-01  0.00000000000E+00 0.  1.
     999901    1    3    3    0    0  0.89624663384E-01  0.47265331671E-01  0.72579430201E-01  0.88878251870E+00  0.88000000000E+00 0.  1.
        -11    1    4    4    0    0 -0.29259760617E-01 -0.25058322570E-01 -0.15966826620E-01  0.41704361819E-01  0.51100000000E-03 0.  1.
         11    1    4    4    0    0 -0.52181297949E-01 -0.43660162644E-01 -0.59391543162E-01  0.90314529162E-01  0.51100000000E-03 0. -1.
</event>
<event>
 8    1  0.1199892E+005  0.1043930E+01  0.7957747E-01            NaN
         13   -1    0    0    0    0  0.00000000000E+00  0.00000000000E+00  0.74505805969E-08  0.10566000000E+00  0.10566000000E+00 0. -1.
     999900   -1    0    0    0    0 -0.00000000000E+00 -0.00000000000E+00 -0.74505805969E-08  0.93827000000E+00  0.93827000000E+00 0.  1.
     999902    2    1    2    0    0  0.10028535063E-01 -0.21240360154E-01  0.75565227188E-02  0.10192556114E+01  0.10189569059E+01 0.  0.
     999903    2    3    3    0    0  0.24035428833E-01  0.46147273164E-01  0.11731016131E+00  0.12977084632E+00  0.19275008438E-01 0.  0.
         14    1    1    2    0    0 -0.10028535063E-01  0.21240360154E-01 -0.75565227188E-02  0.24674388555E-01  0.00000000000E+00 0. -1.
     999901    1    3    3    0    0 -0.14006893771E-01 -0.67387633318E-01 -0.10975363859E+00  0.88948476512E+00  0.88000000000E+00 0.  1.
        -11    1    4    4    0    0  0.17420303494E-01  0.13641503808E-01  0.41913312601E-01  0.47397726677E-01  0.51100000000E-03 0. -1.
         11    1    4    4    0    0  0.66151253393E-02  0.32505769357E-01  0.75396848706E-01  0.82373119648E-01  0.51100000000E-03 0.  1.
</event>
<event>
 8    1  0.1199892E+005  0.1043930E+01  0.7957747E-01            NaN
         13   -1    0    0    0    0  0.00000000000E+00  0.00000000000E+00  0.74505805969E-08  0.10566000000E+00  0.10566000000E+00 0. -1.
     999900   -1    0    0    0    0 -0.00000000000E+00 -0.00000000000E+00 -0.74505805969E-08  0.93827000000E+00  0.93827000000E+00 0.  1.
     999902    2    1    2    0    0  0.20776940038E-01  0.45843183932E-02 -0.94373353348E-02  0.10206542506E+01  0.10203888174E+01 0.  0.
     999903    2    3    3    0    0  0.53140196986E-02  0.49248345344E-01 -0.12067673333E+00  0.13239292593E+00  0.22613592066E-01 0.  0.
         14    1    1    2    0    0 -0.20776940038E-01 -0.45843183932E-02  0.94373353348E-02  0.23275749412E-01  0.00000000000E+00 0.  1.
     999901    1    3    3    0    0  0.15462920339E-01 -0.44664026950E-01  0.11123939799E+00  0.88826132465E+00  0.88000000000E+00 0. -1.
        -11    1    4    4    0    0  0.52312506637E-02  0.35756028669E-01 -0.58469465165E-01  0.68737173694E-01  0.51100000000E-03 0.  1.
         11    1    4    4    0    0  0.82769034892E-04  0.13492316674E-01 -0.62207268164E-01  0.63655752241E-01  0.51100000000E-03 0. -1.
</event>
<event>
 7    1  0.1199892E+005  0.1043930E+01  0.7957747E-01            NaN
         13   -1    0    0    0    0  0.00000000000E+00  0.00000000000E+00  0.74505805969E-08  0.10566000000E+00  0.10566000000E+00 0. -1.
     999900   -1    0    0    0    0 -0.00000000000E+00 -0.00000000000E+00 -0.74505805969E-08  0.93827000000E+00  0.93827000000E+00 0.  1.
     999903    2    1    2    0    0 -0.10975375098E+00 -0.30175552616E-01 -0.12354608100E-01  0.11629115005E+00  0.20360388231E-01 0.  0.
         14    1    1    2    0    0 -0.12815532225E-01  0.15381280086E-01  0.33207913502E-01  0.38776115876E-01  0.00000000000E+00 0. -1.
     999901    1    1    2    0    0  0.12256928320E+00  0.14794272531E-01 -0.20853305402E-01  0.88886273408E+00  0.88000000000E+00 0. -1.
        -11    1    3    3    0    0 -0.35619971570E-01 -0.99790244511E-03  0.19503969010E-03  0.35638144528E-01  0.51100000000E-03 0.  1.
         11    1    3    3    0    0 -0.74133779406E-01 -0.29177650171E-01 -0.12549647791E-01  0.80653005519E-01  0.51100000000E-03 0. -1.
</event>
<event>
 8    1  0.1199892E+005  0.1043930E+01  0.7957747E-01            NaN
         13   -1    0    0    0    0  0.00000000000E+00  0.00000000000E+00  0.74505805969E-08  0.10566000000E+00  0.10566000000E+00 0. -1.
     999900   -1    0    0    0    0 -0.00000000000E+00 -0.00000000000E+00 -0.74505805969E-08  0.93827000000E+00  0.93827000000E+00 0.  1.
     999902    2    1    2    0    0 -0.20771319428E-01  0.10883428302E-01 -0.40398574940E-02  0.10201346817E+01  0.10198571232E+01 0.  0.
     999903    2    3    3    0    0  0.52631831268E-01  0.29015694099E-01 -0.11370299130E+00  0.13011063459E+00  0.19707532498E-01 0.  0.
         14    1    1    2    0    0  0.20771319428E-01 -0.10883428302E-01  0.40398574940E-02  0.23795318258E-01  0.00000000000E+00 0. -1.
     999901    1    3    3    0    0 -0.73403150697E-01 -0.18132265797E-01  0.10966313380E+00  0.89002404715E+00  0.88000000000E+00 0. -1.
        -11    1    4    4    0    0  0.63878893737E-02  0.10905986499E-01 -0.33098003783E-01  0.35432818792E-01  0.51100000000E-03 0.  1.
         11    1    4    4    0    0  0.46243941894E-01  0.18109707601E-01 -0.80604987512E-01  0.94677815798E-01  0.51100000000E-03 0. -1.
</event>
<event>
 8    1  0.1199892E+005  0.1043930E+01  0.7957747E-01            NaN
         13   -1    0    0    0    0  0.00000000000E+00  0.00000000000E+00  0.74505805969E-08  0.10566000000E+00  0.10566000000E+00 0.  1.
     999900   -1    0    0    0    0 -0.00000000000E+00 -0.00000000000E+00 -0.74505805969E-08  0.93827000000E+00  0.93827000000E+00 0. -1.
     999902    2    1    2    0    0  0.48937703685E-02 -0.22833422453E-01 -0.19325720087E-02  0.10204982053E+01  0.10202291595E+01 0.  0.
     999903    2    3    3    0    0 -0.11078529094E+00  0.19252052503E-01 -0.61956976221E-01  0.12990527833E+00  0.19816463418E-01 0.  0.
         14    1    1    2    0    0 -0.48937703685E-02  0.22833422453E-01  0.19325720087E-02  0.23431794723E-01  0.00000000000E+00 0.  1.
     999901    1    3    3    0    0  0.11567906130E+00 -0.42085474956E-01  0.60024404212E-01  0.89059292695E+00  0.88000000000E+00 0.  1.
        -11    1    4    4    0    0 -0.68627463838E-01  0.92126290209E-02 -0.48441403162E-01  0.84506993720E-01  0.51100000000E-03 0. -1.
         11    1    4    4    0    0 -0.42157827098E-01  0.10039423482E-01 -0.13515573059E-01  0.45398284611E-01  0.51100000000E-03 0.  1.
</event>
<event>
 8    1  0.1199892E+005  0.1043930E+01  0.7957747E-01            NaN
         13   -1    0    0    0    0  0.00000000000E+00  0.00000000000E+00  0.74505805969E-08  0.10566000000E+00  0.10566000000E+00 0.  1.
     999900   -1    0    0    0    0 -0.00000000000E+00 -0.00000000000E+00 -0.74505805969E-08  0.93827000000E+00  0.93827000000E+00 0. -1.
     999902    2    1    2    0    0  0.13614244427E-01  0.20013813052E-01 -0.33865166051E-03  0.10197222523E+01  0.10194348713E+01 0.  0.
     999903    2    3    3    0    0 -0.39334824759E-01  0.11876993342E+00  0.36903723159E-01  0.13183522698E+00  0.19108028813E-01 0.  0.
         14    1    1    2    0    0 -0.13614244427E-01 -0.20013813052E-01  0.33865166051E-03  0.24207747709E-01  0.00000000000E+00 0. -1.
     999901    1    3    3    0    0  0.52949069186E-01 -0.98756120371E-01 -0.37242374819E-01  0.88788702531E+00  0.88000000000E+00 0. -1.
        -11    1    4    4    0    0 -0.17063256371E-01  0.46657678105E-01  0.51363788474E-02  0.49947343801E-01  0.51100000000E-03 0. -1.
         11    1    4    4    0    0 -0.22271568388E-01  0.72112255318E-01  0.31767344311E-01  0.81887883176E-01  0.51100000000E-03 0.  1.
</event>
<event>
 8    1  0.1199892E+005  0.1043930E+01  0.7957747E-01            NaN
         13   -1    0    0    0    0  0.00000000000E+00  0.00000000000E+00  0.74505805969E-08  0.10566000000E+00  0.10566000000E+00 0. -1.
     999900   -1    0    0    0    0 -0.00000000000E+00 -0.00000000000E+00 -0.74505805969E-08  0.93827000000E+00  0.93827000000E+00 0.  1.
     999902    2    1    2    0    0 -0.23586967939E-01 -0.11645174205E-02 -0.79383208687E-02  0.10190157853E+01  0.10187111723E+01 0.  0.
     999903    2    3    3    0    0 -0.10033987547E+00  0.17897068861E-01  0.80030918130E-01  0.13110084571E+00  0.19851654982E-01 0.  0.
         14    1    1    2    0    0  0.23586967939E-01  0.11645174205E-02  0.79383208687E-02  0.24914214730E-01  0.00000000000E+00 0.  1.
     999901    1    3    3    0    0  0.76752907531E-01 -0.19061586281E-01 -0.87969238999E-01  0.88791493956E+00  0.88000000000E+00 0.  1.
        -11    1    4    4    0    0 -0.75638277660E-01  0.17114332814E-01  0.69835966822E-01  0.10436174020E+00  0.51100000000E-03 0.  1.
         11    1    4    4    0    0 -0.24701597811E-01  0.78273604643E-03  0.10194951308E-01  0.26739105507E-01  0.51100000000E-03 0. -1.
</event>
<event>
 8    1  0.1199892E+005  0.1043930E+01  0.7957747E-01            NaN
         13   -1    0    0    0    0  0.00000000000E+00  0.00000000000E+00  0.74505805969E-08  0.10566000000E+00  0.10566000000E+00 0. -1.
     999900   -1    0    0    0    0 -0.00000000000E+00 -0.00000000000E+00 -0.74505805969E-08  0.93827000000E+00  0.93827000000E+00 0. -1.
     999902    2    1    2    0    0 -0.23041796516E-01  0.18879244410E-02 -0.54256558991E-02  0.10201828657E+01  0.10199064433E+01 0.  0.
     999903    2    3    3    0    0 -0.12073473025E+00 -0.51827424358E-01  0.72571359003E-02  0.13305824018E+00  0.19719844153E-01 0.  0.
         14    1    1    2    0    0  0.23041796516E-01 -0.18879244410E-02  0.54256558991E-02  0.23747134297E-01  0.00000000000E+00 0. -1.
     999901    1    3    3    0    0  0.97692933739E-01  0.53715348799E-01 -0.12682791799E-01  0.88712462552E+00  0.88000000000E+00 0.  1.
        -11    1    4    4    0    0 -0.35743683119E-01 -0.59256109828E-02  0.32276758122E-02  0.36378603060E-01  0.51100000000E-03 0. -1.
         11    1    4    4    0    0 -0.84991047136E-01 -0.45901813375E-01  0.40294600882E-02  0.96679637121E-01  0.51100000000E-03 0.  1.
</event>
<event>
 8    1  0.1199892E+005  0.1043930E+01  0.7957747E-01            NaN
         13   -1    0    0    0    0  0.00000000000E+00  0.00000000000E+00  0.74505805969E-08  0.10566000000E+00  0.10566000000E+00 0.  1.
     999900   -1    0    0    0    0 -0.00000000000E+00 -0.00000000000E+00 -0.74505805969E-08  0.93827000000E+00  0.93827000000E+00 0. -1.
     999902    2    1    2    0    0 -0.26600936101E-02  0.23107294251E-01 -0.53922557716E-03  0.10206638463E+01  0.10203986344E+01 0.  0.
     999903    2    3    3    0    0  0.31275413624E-01 -0.90286300226E-01  0.84972113081E-01  0.12863138331E+00  0.14000188028E-01 0.  0.
         14    1    1    2    0    0  0.26600936101E-02 -0.23107294251E-01  0.53922557716E-03  0.23266153739E-01  0.00000000000E+00 0.  1.
     999901    1    3    3    0    0 -0.33935507234E-01  0.11339359448E+00 -0.85511338658E-01  0.89203246295E+00  0.88000000000E+00 0. -1.
        -11    1    4    4    0    0  0.30642854787E-02 -0.26638681686E-01  0.26663547863E-01  0.37818184953E-01  0.51100000000E-03 0. -1.
         11    1    4    4    0    0  0.28211128145E-01 -0.63647618540E-01  0.58308565218E-01  0.90813198357E-01  0.51100000000E-03 0.  1.
</event>
<event>
 8    1  0.1199892E+005  0.1043930E+01  0.7957747E-01            NaN
         13   -1    0    0    0    0  0.00000000000E+00  0.00000000000E+00  0.74505805969E-08  0.10566000000E+00  0.10566000000E+00 0.  1.
     999900   -1    0    0    0    0 -0.00000000000E+00 -0.00000000000E+00 -0.74505805969E-08  0.93827000000E+00  0.93827000000E+00 0.  1.
     999902    2    1    2    0    0 -0.18114744908E-02 -0.45013652700E-02 -0.24775541928E-01  0.10186837883E+01  0.10183708997E+01 0.  0.
     999903    2    3    3    0    0  0.12016282460E+00 -0.31131113687E-01  0.23866016668E-01  0.12854173535E+00  0.23348240198E-01 0.  0.
         14    1    1    2    0    0  0.18114744908E-02  0.45013652700E-02  0.24775541928E-01  0.25246211735E-01  0.00000000000E+00 0.  1.
     999901    1    3    3    0    0 -0.12197429909E+00  0.26629748417E-01 -0.48641558596E-01  0.89014205291E+00  0.88000000000E+00 0. -1.
        -11    1    4    4    0    0  0.75155266466E-01 -0.27703971242E-01  0.72028245126E-02  0.80423665062E-01  0.51100000000E-03 0.  1.
         11    1    4    4    0    0  0.45007558136E-01 -0.34271424452E-02  0.16663192155E-01  0.48118070291E-01  0.51100000000E-03 0. -1.
</event>
<event>
 8    1  0.1199892E+005  0.1043930E+01  0.7957747E-01            NaN
         13   -1    0    0    0    0  0.00000000000E+00  0.00000000000E+00  0.74505805969E-08  0.10566000000E+00  0.10566000000E+00 0. -1.
     999900   -1    0    0    0    0 -0.00000000000E+00 -0.00000000000E+00 -0.74505805969E-08  0.93827000000E+00  0.93827000000E+00 0.  1.
     999902    2    1    2    0    0 -0.49985066725E-02  0.21577237026E-01 -0.79467913002E-02  0.10203988777E+01  0.10201275194E+01 0.  0.
     999903    2    3    3    0    0  0.69671207674E-02 -0.42677824305E-01 -0.12115624887E+00  0.13074261234E+00  0.23342163163E-01 0.  0.
         14    1    1    2    0    0  0.49985066725E-02 -0.21577237026E-01  0.79467913002E-02  0.23531122340E-01  0.00000000000E+00 0. -1.
     999901    1    3    3    0    0 -0.11965627440E-01  0.64255061331E-01  0.11320945757E+00  0.88965626532E+00  0.88000000000E+00 0. -1.
        -11    1    4    4    0    0  0.12885276317E-01 -0.16162290239E-01 -0.67537833040E-01  0.70631933177E-01  0.51100000000E-03 0. -1.
         11    1    4    4    0    0 -0.59181555499E-02 -0.26515534067E-01 -0.53618415829E-01  0.60110679159E-01  0.51100000000E-03 0.  1.
</event>
<event>
 8    1  0.1199892E+005  0.1043930E+01  0.7957747E-01            NaN
         13   -1    0    0    0    0  0.00000000000E+00  0.00000000000E+00  0.74505805969E-08  0.10566000000E+00  0.10566000000E+00 0.  1.
     999900   -1    0    0    0    0 -0.00000000000E+00 -0.00000000000E+00 -0.74505805969E-08  0.93827000000E+00  0.93827000000E+00 0.  1.
     999902    2    1    2    0    0 -0.12013204618E-01 -0.15162464391E-01  0.12996741811E-01  0.10206247922E+01  0.10203586790E+01 0.  0.
     999903    2    3    3    0    0 -0.10398330632E+00 -0.20842884842E-01 -0.75100168984E-01  0.13143874169E+00  0.19726976284E-01 0.  0.
         14    1    1    2    0    0  0.12013204618E-01  0.15162464391E-01 -0.12996741811E-01  0.23305207773E-01  0.00000000000E+00 0.  1.
     999901    1    3    3    0    0  0.91970101701E-01  0.56804204507E-02  0.88096910796E-01  0.88918605054E+00  0.88000000000E+00 0. -1.
        -11    1    4    4    0    0 -0.99877408292E-01 -0.23046523704E-01 -0.68279531044E-01  0.12316247165E+00  0.51100000000E-03 0. -1.
         11    1    4    4    0    0 -0.41058980268E-02  0.22036388622E-02 -0.68206379401E-02  0.82762700386E-02  0.51100000000E-03 0.  1.
</event>
<event>
 8    1  0.1199892E+005  0.1043930E+01  0.7957747E-01            NaN
         13   -1    0    0    0    0  0.00000000000E+00  0.00000000000E+00  0.74505805969E-08  0.10566000000E+00  0.10566000000E+00 0. -1.
     999900   -1    0    0    0    0 -0.00000000000E+00 -0.00000000000E+00 -0.74505805969E-08  0.93827000000E+00  0.93827000000E+00 0.  1.
     999902    2    1    2    0    0 -0.96149637879E-02  0.31836277545E-02 -0.20461633850E-01  0.10210988486E+01  0.10208435713E+01 0.  0.
     999903    2    3    3    0    0  0.12084351379E+00 -0.42974546150E-01  0.55970585872E-02  0.12990355752E+00  0.19840381814E-01 0.  0.
         14    1    1    2    0    0  0.96149637879E-02 -0.31836277545E-02  0.20461633850E-01  0.22831151398E-01  0.00000000000E+00 0. -1.
     999901    1    3    3    0    0 -0.13045847758E+00  0.46158173904E-01 -0.26058692437E-01  0.89119529108E+00  0.88000000000E+00 0. -1.
        -11    1    4    4    0    0  0.82826538400E-01 -0.19675941638E-01  0.18177542772E-02  0.85152472038E-01  0.51100000000E-03 0. -1.
         11    1    4    4    0    0  0.38016975390E-01 -0.23298604512E-01  0.37793043100E-02  0.44751085485E-01  0.51100000000E-03 0.  1.
</event>
<event>
 8    1  0.1199892E+005  0.1043930E+01  0.7957747E-01            NaN
         13   -1    0    0    0    0  0.00000000000E+00  0.00000000000E+00  0.74505805969E-08  0.10566000000E+00  0.10566000000E+00 0.  1.
     999900   -1    0    0    0    0 -0.00000000000E+00 -0.00000000000E+00 -0.74505805969E-08  0.93827000000E+00  0.93827000000E+00 0.  1.
     999902    2    1    2    0    0 -0.23624574437E-01 -0.69933224699E-02 -0.31409956059E-02  0.10190926706E+01  0.10187899579E+01 0.  0.
     999903    2    3    3    0    0  0.63256848521E-01 -0.67367798755E-01  0.86491865043E-01  0.12823493298E+00  0.20579264389E-01 0.  0.
         14    1    1    2    0    0  0.23624574437E-01  0.69933224699E-02  0.31409956059E-02  0.24837329363E-01  0.00000000000E+00 0. -1.
     999901    1    3    3    0    0 -0.86881422958E-01  0.60374476285E-01 -0.89632860649E-01  0.89085773766E+00  0.88000000000E+00 0.  1.
        -11    1    4    4    0    0  0.40109445279E-01 -0.35310740128E-01  0.37547774887E-01  0.65312422164E-01  0.51100000000E-03 0. -1.
         11    1    4    4    0    0  0.23147403243E-01 -0.32057058627E-01  0.48944090156E-01  0.62922510812E-01  0.51100000000E-03 0.  1.
</event>
<event>
 8    1  0.1199892E+005  0.1043930E+01  0.7957747E-01            NaN
         13   -1    0    0    0    0  0.00000000000E+00  0.00000000000E+00  0.74505805969E-08  0.10566000000E+00  0.10566000000E+00 0.  1.
     999900   -1    0    0    0    0 -0.00000000000E+00 -0.00000000000E+00 -0.74505805969E-08  0.93827000000E+00  0.93827000000E+00 0.  1.
     999902    2    1    2    0    0 -0.42490412529E-02  0.17959572099E-01 -0.12888139921E-01  0.10214198971E+01  0.10211718276E+01 0.  0.
     999903    2    3    3    0    0  0.10599222111E+00 -0.71952125415E-01 -0.98487835995E-02  0.12999043441E+00  0.19724482552E-01 0.  0.
         14    1    1    2    0    0  0.42490412529E-02 -0.17959572099E-01  0.12888139921E-01  0.22510102891E-01  0.00000000000E+00 0. -1.
     999901    1    3    3    0    0 -0.11024126237E+00  0.89911697513E-01 -0.30393563213E-02  0.89142946270E+00  0.88000000000E+00 0. -1.
        -11    1    4    4    0    0  0.73116683147E-01 -0.55955483092E-01  0.19151816861E-03  0.92072597676E-01  0.51100000000E-03 0. -1.
         11    1    4    4    0    0  0.32875537966E-01 -0.15996642323E-01 -0.10040301768E-01  0.37917836736E-01  0.51100000000E-03 0.  1.
</event>
<event>
 8    1  0.1199892E+005  0.1043930E+01  0.7957747E-01            NaN
         13   -1    0    0    0    0  0.00000000000E+00  0.00000000000E+00  0.74505805969E-08  0.10566000000E+00  0.10566000000E+00 0. -1.
     999900   -1    0    0    0    0 -0.00000000000E+00 -0.00000000000E+00 -0.74505805969E-08  0.93827000000E+00  0.93827000000E+00 0.  1.
     999902    2    1    2    0    0 -0.22364328808E-01  0.27713107938E-02 -0.64584781831E-02  0.10204874040E+01  0.10202181073E+01 0.  0.
     999903    2    3    3    0    0 -0.83397978047E-01  0.84640327928E-01  0.55136864257E-01  0.13244369533E+00  0.19546119274E-01 0.  0.
         14    1    1    2    0    0  0.22364328808E-01 -0.27713107938E-02  0.64584781831E-02  0.23442595995E-01  0.00000000000E+00 0.  1.
     999901    1    3    3    0    0  0.61033649239E-01 -0.81869017135E-01 -0.61595342440E-01  0.88804370867E+00  0.88000000000E+00 0. -1.
        -11    1    4    4    0    0 -0.49396538081E-01  0.62875972288E-01  0.39000561941E-01  0.88964660502E-01  0.51100000000E-03 0.  1.
         11    1    4    4    0    0 -0.34001439966E-01  0.21764355640E-01  0.16136302315E-01  0.43479034828E-01  0.51100000000E-03 0. -1.
</event>
<event>
 8    1  0.1199892E+005  0.1043930E+01  0.7957747E-01            NaN
         13   -1    0    0    0    0  0.00000000000E+00  0.00000000000E+00  0.74505805969E-08  0.10566000000E+00  0.10566000000E+00 0.  1.
     999900   -1    0    0    0    0 -0.00000000000E+00 -0.00000000000E+00 -0.74505805969E-08  0.93827000000E+00  0.93827000000E+00 0.  1.
     999902    2    1    2    0    0 -0.16656453510E-01  0.16142722720E-01  0.69237709409E-02  0.10197233161E+01  0.10194359607E+01 0.  0.
     999903    2    3    3    0    0 -0.38300233317E-02  0.12582777198E+00 -0.25437427757E-01  0.13223102065E+00  0.31475114161E-01 0.  0.
         14    1    1    2    0    0  0.16656453510E-01 -0.16142722720E-01 -0.69237709409E-02  0.24206683879E-01  0.00000000000E+00 0.  1.
     999901    1    3    3    0    0 -0.12826430178E-01 -0.10968504926E+00  0.32361198698E-01  0.88749229547E+00  0.88000000000E+00 0. -1.
        -11    1    4    4    0    0 -0.99187743306E-02  0.45289004495E-01  0.33449140330E-02  0.46485756779E-01  0.51100000000E-03 0.  1.
         11    1    4    4    0    0  0.60887509989E-02  0.80538767482E-01 -0.28782341790E-01  0.85745263870E-01  0.51100000000E-03 0. -1.
</event>
<event>
 8    1  0.1199892E+005  0.1043930E+01  0.7957747E-01            NaN
         13   -1    0    0    0    0  0.00000000000E+00  0.00000000000E+00  0.74505805969E-08  0.10566000000E+00  0.10566000000E+00 0. -1.
     999900   -1    0    0    0    0 -0.00000000000E+00 -0.00000000000E+00 -0.74505805969E-08  0.93827000000E+00  0.93827000000E+00 0.  1.
     999902    2    1    2    0    0  0.21442529563E-01 -0.87140903043E-02  0.13738342021E-02  0.10207436923E+01  0.10204803185E+01 0.  0.
     999903    2    3    3    0    0 -0.26753282199E-01  0.11832317414E+00  0.40837224260E-01  0.12944202509E+00  0.19272968871E-01 0.  0.
         14    1    1    2    0    0 -0.21442529563E-01  0.87140903043E-02 -0.13738342021E-02  0.23186307690E-01  0.00000000000E+00 0. -1.
     999901    1    3    3    0    0  0.48195811761E-01 -0.12703726444E+00 -0.39463390058E-01  0.89130166722E+00  0.88000000000E+00 0.  1.
        -11    1    4    4    0    0 -0.29637077743E-01  0.10362922131E+00  0.37198704119E-01  0.11402357912E+00  0.51100000000E-03 0.  1.
         11    1    4    4    0    0  0.28837955445E-02  0.14693952825E-01  0.36385201412E-02  0.15418445972E-01  0.51100000000E-03 0. -1.
</event>
<event>
 8    1  0.1199892E+005  0.1043930E+01  0.7957747E-01            NaN
         13   -1    0    0    0    0  0.00000000000E+00  0.00000000000E+00  0.74505805969E-08  0.10566000000E+00  0.10566000000E+00 0.  1.
     999900   -1    0    0    0    0 -0.00000000000E+00 -0.00000000000E+00 -0.74505805969E-08  0.93827000000E+00  0.93827000000E+00 0. -1.
     999902    2    1    2    0    0 -0.11393955720E-01 -0.19444329382E-01  0.77908168909E-02  0.10200846441E+01  0.10198059031E+01 0.  0.
     999903    2    3    3    0    0  0.11946398683E+00  0.40084955502E-01 -0.43253979215E-03  0.12838112804E+00  0.24557669672E-01 0.  0.
         14    1    1    2    0    0  0.11393955720E-01  0.19444329382E-01 -0.77908168909E-02  0.23845355940E-01  0.00000000000E+00 0. -1.
     999901    1    3    3    0    0 -0.13085794255E+00 -0.59529284885E-01  0.82233566831E-02  0.89170351602E+00  0.88000000000E+00 0. -1.
        -11    1    4    4    0    0  0.36606068595E-01  0.19402041693E-01  0.91863010325E-02  0.42439282834E-01  0.51100000000E-03 0. -1.
         11    1    4    4    0    0  0.82857918233E-01  0.20682913809E-01 -0.96188408246E-02  0.85941845206E-01  0.51100000000E-03 0.  1.
</event>
<event>
 8    1  0.1199892E+005  0.1043930E+01  0.7957747E-01            NaN
         13   -1    0    0    0    0  0.00000000000E+00  0.00000000000E+00  0.74505805969E-08  0.10566000000E+00  0.10566000000E+00 0. -1.
     999900   -1    0    0    0    0 -0.00000000000E+00 -0.00000000000E+00 -0.74505805969E-08  0.93827000000E+00  0.93827000000E+00 0. -1.
     999902    2    1    2    0    0 -0.22402446392E-01 -0.60240406882E-02 -0.60029234504E-02  0.10199676595E+01  0.10196861442E+01 0.  0.
     999903    2    3    3    0    0 -0.10258646461E+00 -0.81530968035E-01 -0.98156513038E-02  0.13309376221E+00  0.21126312008E-01 0.  0.
         14    1    1    2    0    0  0.22402446392E-01  0.60240406882E-02  0.60029234504E-02  0.23962340464E-01  0.00000000000E+00 0. -1.
     999901    1    3    3    0    0  0.80184018222E-01  0.75506927347E-01  0.38127278534E-02  0.88687389732E+00  0.88000000000E+00 0.  1.
        -11    1    4    4    0    0 -0.67713718044E-01 -0.62272796250E-01  0.27028826441E-03  0.91996646356E-01  0.51100000000E-03 0.  1.
         11    1    4    4    0    0 -0.34872746570E-01 -0.19258171786E-01 -0.10085939568E-01  0.41097115858E-01  0.51100000000E-03 0. -1.
</event>
<event>
 8    1  0.1199892E+005  0.1043930E+01  0.7957747E-01            NaN
         13   -1    0    0    0    0  0.00000000000E+00  0.00000000000E+00  0.74505805969E-08  0.10566000000E+00  0.10566000000E+00 0.  1.
     999900   -1    0    0    0    0 -0.00000000000E+00 -0.00000000000E+00 -0.74505805969E-08  0.93827000000E+00  0.93827000000E+00 0.  1.
     999902    2    1    2    0    0  0.14715347468E-02  0.28530157371E-03 -0.22882008560E-01  0.10209989484E+01  0.10207414068E+01 0.  0.
     999903    2    3    3    0    0 -0.88639309828E-02  0.12814349640E+00 -0.21190993951E-01  0.13169731264E+00  0.19894697580E-01 0.  0.
         14    1    1    2    0    0 -0.14715347468E-02 -0.28530157371E-03  0.22882008560E-01  0.22931051595E-01  0.00000000000E+00 0.  1.
     999901    1    3    3    0    0  0.10335465730E-01 -0.12785819482E+00 -0.16910146088E-02  0.88930163576E+00  0.88000000000E+00 0.  1.
        -11    1    4    4    0    0 -0.61633618140E-02  0.59498519473E-01 -0.53580140279E-04  0.59819100964E-01  0.51100000000E-03 0. -1.
         11    1    4    4    0    0 -0.27005691688E-02  0.68644976924E-01 -0.21137413811E-01  0.71878211681E-01  0.51100000000E-03 0.  1.
</event>
<event>
 8    1  0.1199892E+005  0.1043930E+01  0.7957747E-01            NaN
         13   -1    0    0    0    0  0.00000000000E+00  0.00000000000E+00  0.74505805969E-08  0.10566000000E+00  0.10566000000E+00 0.  1.
     999900   -1    0    0    0    0 -0.00000000000E+00 -0.00000000000E+00 -0.74505805969E-08  0.93827000000E+00  0.93827000000E+00 0.  1.
     999902    2    1    2    0    0 -0.31350616696E-03 -0.14401751422E-01 -0.18474541438E-01  0.10205031476E+01  0.10202342167E+01 0.  0.
     999903    2    3    3    0    0 -0.59952213037E-01  0.31020318655E-01  0.10755858091E+00  0.12836846737E+00  0.18790611232E-01 0.  0.
         14    1    1    2    0    0  0.31350616696E-03  0.14401751422E-01  0.18474541438E-01  0.23426852360E-01  0.00000000000E+00 0.  1.
     999901    1    3    3    0    0  0.59638706870E-01 -0.45422070076E-01 -0.12603312235E+00  0.89213468027E+00  0.88000000000E+00 0.  1.
        -11    1    4    4    0    0 -0.37133834154E-01  0.12413776418E-01  0.48149442939E-01  0.62061690762E-01  0.51100000000E-03 0.  1.
         11    1    4    4    0    0 -0.22818378884E-01  0.18606542236E-01  0.59409137973E-01  0.66306776611E-01  0.51100000000E-03 0. -1.
</event>
<event>
 8    1  0.1199892E+005  0.1043930E+01  0.7957747E-01            NaN
         13   -1    0    0    0    0  0.00000000000E+00  0.00000000000E+00  0.74505805969E-08  0.10566000000E+00  0.10566000000E+00 0. -1.
     999900   -1    0    0    0    0 -0.00000000000E+00 -0.00000000000E+00 -0.74505805969E-08  0.93827000000E+00  0.93827000000E+00 0.  1.
     999902    2    1    2    0    0 -0.18669578049E-01 -0.11709871106E-01 -0.62435477279E-02  0.10210246270E+01  0.10207676683E+01 0.  0.
     999903    2    3    3    0    0 -0.23332491006E-02  0.11043790405E+00  0.64960778139E-01  0.12958926159E+00  0.19274317625E-01 0.  0.
         14    1    1    2    0    0  0.18669578049E-01  0.11709871106E-01  0.62435477279E-02  0.22905373039E-01  0.00000000000E+00 0.  1.
     999901    1    3    3    0    0 -0.16336328948E-01 -0.12214777515E+00 -0.71204325867E-01  0.89143536537E+00  0.88000000000E+00 0.  1.
        -11    1    4    4    0    0 -0.14918284350E-02  0.42594772290E-01  0.36095561301E-01  0.55854192727E-01  0.51100000000E-03 0.  1.
         11    1    4    4    0    0 -0.84142066563E-03  0.67843131759E-01  0.28865216838E-01  0.73735068859E-01  0.51100000000E-03 0. -1.
</event>
<event>
 8    1  0.1199892E+005  0.1043930E+01  0.7957747E-01            NaN
         13   -1    0    0    0    0  0.00000000000E+00  0.00000000000E+00  0.74505805969E-08  0.10566000000E+00  0.10566000000E+00 0. -1.
     999900   -1    0    0    0    0 -0.00000000000E+00 -0.00000000000E+00 -0.74505805969E-08  0.93827000000E+00  0.93827000000E+00 0. -1.
     999902    2    1    2    0    0  0.10690206746E-01 -0.20227982762E-01  0.70737582826E-02  0.10199823516E+01  0.10197011855E+01 0.  0.
     999903    2    3    3    0    0 -0.10844193419E-01  0.54731992551E-01  0.11570608611E+00  0.12987914921E+00  0.19170485048E-01 0.  0.
         14    1    1    2    0    0 -0.10690206746E-01  0.20227982762E-01 -0.70737582826E-02  0.23947648384E-01  0.00000000000E+00 0.  1.
     999901    1    3    3    0    0  0.21534400164E-01 -0.74959975312E-01 -0.10863232783E+00  0.89010320241E+00  0.88000000000E+00 0. -1.
        -11    1    4    4    0    0 -0.81015728067E-04  0.43242383323E-01  0.84950440651E-01  0.95324439504E-01  0.51100000000E-03 0.  1.
         11    1    4    4    0    0 -0.10763177691E-01  0.11489609228E-01  0.30755645457E-01  0.34554709703E-01  0.51100000000E-03 0. -1.
</event>
<event>
 8    1  0.1199892E+005  0.1043930E+01  0.7957747E-01            NaN
         13   -1    0    0    0    0  0.00000000000E+00  0.00000000000E+00  0.74505805969E-08  0.10566000000E+00  0.10566000000E+00 0. -1.
     999900   -1    0    0    0    0 -0.00000000000E+00 -0.00000000000E+00 -0.74505805969E-08  0.93827000000E+00  0.93827000000E+00 0.  1.
     999902    2    1    2    0    0 -0.10517084660E-01  0.18103509214E-01 -0.11154264251E-01  0.10202073584E+01  0.10199315126E+01 0.  0.
     999903    2    3    3    0    0 -0.64447437835E-01 -0.11012798044E+00 -0.34198381813E-02  0.12924629339E+00  0.20279663311E-01 0.  0.
         14    1    1    2    0    0  0.10517084660E-01 -0.18103509214E-01  0.11154264251E-01  0.23722641645E-01  0.00000000000E+00 0.  1.
     999901    1    3    3    0    0  0.53930353175E-01  0.12823148965E+00 -0.77344260694E-02  0.89096106496E+00  0.88000000000E+00 0.  1.
        -11    1    4    4    0    0 -0.19145645582E-01 -0.39917508673E-01 -0.10130920075E-01  0.45418717573E-01  0.51100000000E-03 0.  1.
         11    1    4    4    0    0 -0.45301792254E-01 -0.70210471764E-01  0.67110818938E-02  0.83827575821E-01  0.51100000000E-03 0. -1.
</event>
<event>
 8    1  0.1199892E+005  0.1043930E+01  0.7957747E-01            NaN
         13   -1    0    0    0    0  0.00000000000E+00  0.00000000000E+00  0.74505805969E-08  0.10566000000E+00  0.10566000000E+00 0.  1.
     999900   -1    0    0    0    0 -0.00000000000E+00 -0.00000000000E+00 -0.74505805969E-08  0.93827000000E+00  0.93827000000E+00 0. -1.
     999902    2    1    2    0    0 -0.19778114356E-01  0.13265927497E-01 -0.13841199492E-02  0.10200747191E+01  0.10197957433E+01 0.  0.
     999903    2    3    3    0    0 -0.89926326074E-01  0.71182502125E-01  0.64095085199E-01  0.13296557837E+00  0.20444372185E-01 0.  0.
         14    1    1    2    0    0  0.19778114356E-01 -0.13265927497E-01  0.13841199492E-02  0.23855280922E-01  0.00000000000E+00 0. -1.
     999901    1    3    3    0    0  0.70148211718E-01 -0.57916574628E-01 -0.65479205148E-01  0.88710914071E+00  0.88000000000E+00 0. -1.
        -11    1    4    4    0    0 -0.68360678532E-01  0.53680035397E-01  0.38038020551E-01  0.94878241436E-01  0.51100000000E-03 0.  1.
         11    1    4    4    0    0 -0.21565647543E-01  0.17502466728E-01  0.26057064648E-01  0.38087336932E-01  0.51100000000E-03 0. -1.
</event>
<event>
 8    1  0.1199892E+005  0.1043930E+01  0.7957747E-01            NaN
         13   -1    0    0    0    0  0.00000000000E+00  0.00000000000E+00  0.74505805969E-08  0.10566000000E+00  0.10566000000E+00 0. -1.
     999900   -1    0    0    0    0 -0.00000000000E+00 -0.00000000000E+00 -0.74505805969E-08  0.93827000000E+00  0.93827000000E+00 0.  1.
     999902    2    1    2    0    0  0.79799970780E-02 -0.17593519546E-01  0.13406737929E-01  0.10204150493E+01  0.10201440682E+01 0.  0.
     999903    2    3    3    0    0 -0.11279309800E+00  0.44970831185E-01  0.41508827543E-01  0.12952214559E+00  0.17559750051E-01 0.  0.
         14    1    1    2    0    0 -0.79799970780E-02  0.17593519546E-01 -0.13406737929E-01  0.23514950675E-01  0.00000000000E+00 0.  1.
     999901    1    3    3    0    0  0.12077309508E+00 -0.62564350730E-01 -0.28102089614E-01  0.89089290373E+00  0.88000000000E+00 0.  1.
        -11    1    4    4    0    0 -0.92087591359E-01  0.32041853000E-01  0.27219793685E-01  0.10123232248E+00  0.51100000000E-03 0. -1.
         11    1    4    4    0    0 -0.20705506639E-01  0.12928978185E-01  0.14289033858E-01  0.28289823112E-01  0.51100000000E-03 0.  1.
</event>
<event>
 8    1  0.1199892E+005  0.1043930E+01  0.7957747E-01            NaN
         13   -1    0    0    0    0  0.00000000000E+00  0.00000000000E+00  0.74505805969E-08  0.10566000000E+00  0.10566000000E+00 0.  1.
     999900   -1    0    0    0    0 -0.00000000000E+00 -0.00000000000E+00 -0.74505805969E-08  0.93827000000E+00  0.93827000000E+00 0.  1.
     999902    2    1    2    0    0  0.54257701028E-02 -0.22666539936E-01 -0.40219895084E-02  0.10202786277E+01  0.10200044562E+01 0.  0.
     999903    2    3    3    0    0  0.10783143173E+00  0.63884888550E-01 -0.24472546888E-01  0.12988753685E+00  0.23726989306E-01 0.  0.
         14    1    1    2    0    0 -0.54257701028E-02  0.22666539936E-01  0.40219895084E-02  0.23651372339E-01  0.00000000000E+00 0.  1.
     999901    1    3    3    0    0 -0.10240566163E+00 -0.86551428486E-01  0.20450557379E-01  0.89039109082E+00  0.88000000000E+00 0. -1.
        -11    1    4    4    0    0  0.89115208289E-01  0.61531070403E-01 -0.17143854340E-01  0.10964381349E+00  0.51100000000E-03 0.  1.
         11    1    4    4    0    0  0.18716223446E-01  0.23538181469E-02 -0.73286925479E-02  0.20243723358E-01  0.51100000000E-03 0. -1.
</event>
<event>
 8    1  0.1199892E+005  0.1043930E+01  0.7957747E-01            NaN
         13   -1    0    0    0    0  0.00000000000E+00  0.00000000000E+00  0.74505805969E-08  0.10566000000E+00  0.10566000000E+00 0.  1.
     999900   -1    0    0    0    0 -0.00000000000E+00 -0.00000000000E+00 -0.74505805969E-08  0.93827000000E+00  0.93827000000E+00 0.  1.
     999902    2    1    2    0    0  0.12080342265E-01  0.11911293810E-01  0.19993391519E-01  0.10177088388E+01  0.10173709900E+01 0.  0.
     999903    2    3    3    0    0 -0.90381050527E-01  0.78699832144E-01  0.43232212880E-01  0.12894616595E+00  0.19891998596E-01 0.  0.
         14    1    1    2    0    0 -0.12080342265E-01 -0.11911293810E-01 -0.19993391519E-01  0.26221161185E-01  0.00000000000E+00 0. -1.
     999901    1    3    3    0    0  0.10246139279E+00 -0.66788538335E-01 -0.23238821361E-01  0.88876267287E+00  0.88000000000E+00 0.  1.
        -11    1    4    4    0    0 -0.31097015894E-01  0.15657854598E-01  0.15044001809E-01  0.37931199817E-01  0.51100000000E-03 0.  1.
         11    1    4    4    0    0 -0.59284034632E-01  0.63041977547E-01  0.28188211071E-01  0.91014966130E-01  0.51100000000E-03 0. -1.
</event>
<event>
 8    1  0.1199892E+005  0.1043930E+01  0.7957747E-01            NaN
         13   -1    0    0    0    0  0.00000000000E+00  0.00000000000E+00  0.74505805969E-08  0.10566000000E+00  0.10566000000E+00 0. -1.
     999900   -1    0    0    0    0 -0.00000000000E+00 -0.00000000000E+00 -0.74505805969E-08  0.93827000000E+00  0.93827000000E+00 0.  1.
     999902    2    1    2    0    0 -0.12902706125E-01 -0.17047582099E-01  0.89251118355E-02  0.10207619724E+01  0.10204990185E+01 0.  0.
     999903    2    3    3    0    0  0.46709709053E-01 -0.10691536458E+00 -0.57542626304E-01  0.13169064874E+00  0.20459252668E-01 0.  0.
         14    1    1    2    0    0  0.12902706125E-01  0.17047582099E-01 -0.89251118355E-02  0.23168027582E-01  0.00000000000E+00 0. -1.
     999901    1    3    3    0    0 -0.59612415178E-01  0.89867782486E-01  0.66467738139E-01  0.88907132368E+00  0.88000000000E+00 0. -1.
        -11    1    4    4    0    0  0.21317022439E-01 -0.66536134545E-01 -0.41992787858E-01  0.81517654523E-01  0.51100000000E-03 0. -1.
         11    1    4    4    0    0  0.25392686614E-01 -0.40379230039E-01 -0.15549838446E-01  0.50172994217E-01  0.51100000000E-03 0.  1.
</event>
<event>
 8    1  0.1199892E+005  0.1043930E+01  0.7957747E-01            NaN
         13   -1    0    0    0    0  0.00000000000E+00  0.00000000000E+00  0.74505805969E-08  0.10566000000E+00  0.10566000000E+00 0. -1.
     999900   -1    0    0    0    0 -0.00000000000E+00 -0.00000000000E+00 -0.74505805969E-08  0.93827000000E+00  0.93827000000E+00 0. -1.
     999902    2    1    2    0    0  0.11962409419E-01  0.20360892243E-01  0.11409238222E-02  0.10202875196E+01  0.10200135567E+01 0.  0.
     999903    2    3    3    0    0 -0.59695364471E-02 -0.38573037595E-02  0.12889869833E+00  0.13055153368E+00  0.19450304805E-01 0.  0.
         14    1    1    2    0    0 -0.11962409419E-01 -0.20360892243E-01 -0.11409238222E-02  0.23642480395E-01  0.00000000000E+00 0.  1.
     999901    1    3    3    0    0  0.17931945866E-01  0.24218196003E-01 -0.12775777451E+00  0.88973598592E+00  0.88000000000E+00 0. -1.
        -11    1    4    4    0    0 -0.58299256090E-02 -0.95360745214E-02  0.11478475540E+00  0.11532877326E+00  0.51100000000E-03 0.  1.
         11    1    4    4    0    0 -0.13961083809E-03  0.56787707619E-02  0.14113942935E-01  0.15222760418E-01  0.51100000000E-03 0. -1.
</event>
<event>
 8    1  0.1199892E+005  0.1043930E+01  0.7957747E-01            NaN
         13   -1    0    0    0    0  0.00000000000E+00  0.00000000000E+00  0.74505805969E-08  0.10566000000E+00  0.10566000000E+00 0. -1.
     999900   -1    0    0    0    0 -0.00000000000E+00 -0.00000000000E+00 -0.74505805969E-08  0.93827000000E+00  0.93827000000E+00 0.  1.
     999902    2    1    2    0    0  0.17573038647E-02  0.53997494723E-02 -0.25066535786E-01  0.10182283147E+01  0.10179038875E+01 0.  0.
     999903    2    3    3    0    0 -0.11807428038E+00  0.29341451066E-01 -0.40056749155E-01  0.12965782219E+00  0.20103513728E-01 0.  0.
         14    1    1    2    0    0 -0.17573038647E-02 -0.53997494723E-02  0.25066535786E-01  0.25701685306E-01  0.00000000000E+00 0. -1.
     999901    1    3    3    0    0  0.11983158424E+00 -0.23941701594E-01  0.14990213369E-01  0.88857049251E+00  0.88000000000E+00 0.  1.
        -11    1    4    4    0    0 -0.99533655778E-01  0.17174720387E-01 -0.35080759387E-01  0.10692446143E+00  0.51100000000E-03 0.  1.
         11    1    4    4    0    0 -0.18540624599E-01  0.12166730679E-01 -0.49759897682E-02  0.22733360753E-01  0.51100000000E-03 0. -1.
</event>
<event>
 8    1  0.1199892E+005  0.1043930E+01  0.7957747E-01            NaN
         13   -1    0    0    0    0  0.00000000000E+00  0.00000000000E+00  0.74505805969E-08  0.10566000000E+00  0.10566000000E+00 0. -1.
     999900   -1    0    0    0    0 -0.00000000000E+00 -0.00000000000E+00 -0.74505805969E-08  0.93827000000E+00  0.93827000000E+00 0. -1.
     999902    2    1    2    0    0  0.12168557957E-01 -0.87241338970E-02  0.18050505645E-01  0.10204778131E+01  0.10202082934E+01 0.  0.
     999903    2    3    3    0    0 -0.11214555624E+00  0.60311438747E-01  0.12571053859E-02  0.12890508611E+00  0.20021125901E-01 0.  0.
         14    1    1    2    0    0 -0.12168557957E-01  0.87241338970E-02 -0.18050505645E-01  0.23452186871E-01  0.00000000000E+00 0. -1.
     999901    1    3    3    0    0  0.12431411420E+00 -0.69035572644E-01  0.16793400259E-01  0.89157272702E+00  0.88000000000E+00 0.  1.
        -11    1    4    4    0    0 -0.54727849582E-01  0.39271159180E-01  0.56217312144E-02  0.67596053480E-01  0.51100000000E-03 0. -1.
         11    1    4    4    0    0 -0.57417706656E-01  0.21040279567E-01 -0.43646258285E-02  0.61309032626E-01  0.51100000000E-03 0.  1.
</event>
<event>
 8    1  0.1199892E+005  0.1043930E+01  0.7957747E-01            NaN
         13   -1    0    0    0    0  0.00000000000E+00  0.00000000000E+00  0.74505805969E-08  0.10566000000E+00  0.10566000000E+00 0. -1.
     999900   -1    0    0    0    0 -0.00000000000E+00 -0.00000000000E+00 -0.74505805969E-08  0.93827000000E+00  0.93827000000E+00 0.  1.
     999902    2    1    2    0    0 -0.47718598826E-02  0.79371737238E-02  0.17602548311E-01  0.10240398245E+01  0.10238466404E+01 0.  0.
     999903    2    3    3    0    0 -0.10115128975E+00  0.86991810399E-01  0.87119345902E-02  0.13521044096E+00  0.20169458218E-01 0.  0.
         14    1    1    2    0    0  0.47718598826E-02 -0.79371737238E-02 -0.17602548311E-01  0.19890175477E-01  0.00000000000E+00 0.  1.
     999901    1    3    3    0    0  0.96379429865E-01 -0.79054636676E-01  0.88906137209E-02  0.88882938357E+00  0.88000000000E+00 0. -1.
        -11    1    4    4    0    0 -0.68225769718E-01  0.45836897825E-01  0.66247000237E-02  0.82461655497E-01  0.51100000000E-03 0. -1.
         11    1    4    4    0    0 -0.32925520030E-01  0.41154912574E-01  0.20872345665E-02  0.52748785458E-01  0.51100000000E-03 0.  1.
</event>
<event>
 8    1  0.1199892E+005  0.1043930E+01  0.7957747E-01            NaN
         13   -1    0    0    0    0  0.00000000000E+00  0.00000000000E+00  0.74505805969E-08  0.10566000000E+00  0.10566000000E+00 0.  1.
     999900   -1    0    0    0    0 -0.00000000000E+00 -0.00000000000E+00 -0.74505805969E-08  0.93827000000E+00  0.93827000000E+00 0. -1.
     999902    2    1    2    0    0 -0.18021526939E-01 -0.21390209160E-01 -0.98301175118E-02  0.10142829480E+01  0.10138495702E+01 0.  0.
     999903    2    3    3    0    0  0.33226641297E-01 -0.11943403356E+00 -0.24001850951E-01  0.12724303669E+00  0.15690872256E-01 0.  0.
         14    1    1    2    0    0  0.18021526939E-01  0.21390209160E-01  0.98301175118E-02  0.29647051985E-01  0.00000000000E+00 0.  1.
     999901    1    3    3    0    0 -0.51248168235E-01  0.98043824404E-01  0.14171733439E-01  0.88703991132E+00  0.88000000000E+00 0. -1.
        -11    1    4    4    0    0  0.57767051415E-02 -0.47718622551E-01 -0.11697209685E-01  0.49472447846E-01  0.51100000000E-03 0. -1.
         11    1    4    4    0    0  0.27449936155E-01 -0.71715411013E-01 -0.12304641266E-01  0.77770588846E-01  0.51100000000E-03 0.  1.
</event>
<event>
 8    1  0.1199892E+005  0.1043930E+01  0.7957747E-01            NaN
         13   -1    0    0    0    0  0.00000000000E+00  0.00000000000E+00  0.74505805969E-08  0.10566000000E+00  0.10566000000E+00 0.  1.
     999900   -1    0    0    0    0 -0.00000000000E+00 -0.00000000000E+00 -0.74505805969E-08  0.93827000000E+00  0.93827000000E+00 0. -1.
     999902    2    1    2    0    0  0.20684366777E-01  0.10046078196E-01  0.17607615210E-02  0.10208677582E+01  0.10206072274E+01 0.  0.
     999903    2    3    3    0    0 -0.67757610208E-01  0.84256039995E-01 -0.70263770843E-01  0.13040909268E+00  0.19477164675E-01 0.  0.
         14    1    1    2    0    0 -0.20684366777E-01 -0.10046078196E-01 -0.17607615210E-02  0.23062241808E-01  0.00000000000E+00 0.  1.
     999901    1    3    3    0    0  0.88441976985E-01 -0.74209961799E-01  0.72024532364E-01  0.89045866551E+00  0.88000000000E+00 0.  1.
        -11    1    4    4    0    0 -0.12094416862E-01  0.20908029362E-01 -0.24723790652E-01  0.34568013484E-01  0.51100000000E-03 0. -1.
         11    1    4    4    0    0 -0.55663193346E-01  0.63348010633E-01 -0.45539980191E-01  0.95841079195E-01  0.51100000000E-03 0.  1.
</event>
<event>
 8    1  0.1199892E+005  0.1043930E+01  0.7957747E-01            NaN
         13   -1    0    0    0    0  0.00000000000E+00  0.00000000000E+00  0.74505805969E-08  0.10566000000E+00  0.10566000000E+00 0.  1.
     999900   -1    0    0    0    0 -0.00000000000E+00 -0.00000000000E+00 -0.74505805969E-08  0.93827000000E+00  0.93827000000E+00 0.  1.
     999902    2    1    2    0    0  0.23740661474E-02 -0.19852150534E-01  0.12775311272E-01  0.10202033768E+01  0.10199274373E+01 0.  0.
     999903    2    3    3    0    0  0.44513916923E-01 -0.12368531508E+00 -0.51487511261E-02  0.13291629523E+00  0.18991733293E-01 0.  0.
         14    1    1    2    0    0 -0.23740661474E-02  0.19852150534E-01 -0.12775311272E-01  0.23726623211E-01  0.00000000000E+00 0. -1.
     999901    1    3    3    0    0 -0.42139850776E-01  0.10383316455E+00  0.17924062399E-01  0.88728708156E+00  0.88000000000E+00 0.  1.
        -11    1    4    4    0    0  0.31337791510E-01 -0.74783242289E-01 -0.11401637641E-01  0.81883142135E-01  0.51100000000E-03 0. -1.
         11    1    4    4    0    0  0.13176125413E-01 -0.48902072793E-01  0.62528865148E-02  0.51033153098E-01  0.51100000000E-03 0.  1.
</event>
<event>
 8    1  0.1199892E+005  0.1043930E+01  0.7957747E-01            NaN
         13   -1    0    0    0    0  0.00000000000E+00  0.00000000000E+00  0.74505805969E-08  0.10566000000E+00  0.10566000000E+00 0.  1.
     999900   -1    0    0    0    0 -0.00000000000E+00 -0.00000000000E+00 -0.74505805969E-08  0.93827000000E+00  0.93827000000E+00 0. -1.
     999902    2    1    2    0    0 -0.91375560391E-02  0.28164631579E-02  0.21498016798E-01  0.10204014616E+01  0.10201301636E+01 0.  0.
     999903    2    3    3    0    0 -0.42729728762E-01  0.11935331652E+00 -0.25719074961E-01  0.13082924638E+00  0.19590227358E-01 0.  0.
         14    1    1    2    0    0  0.91375560391E-02 -0.28164631579E-02 -0.21498016798E-01  0.23528538445E-01  0.00000000000E+00 0. -1.
     999901    1    3    3    0    0  0.33592172723E-01 -0.11653685336E+00  0.47217091760E-01  0.88957221518E+00  0.88000000000E+00 0.  1.
        -11    1    4    4    0    0 -0.96882561082E-02  0.18985588793E-01  0.24771919727E-02  0.21464214155E-01  0.51100000000E-03 0. -1.
         11    1    4    4    0    0 -0.33041472654E-01  0.10036772772E+00 -0.28196266934E-01  0.10936503222E+00  0.51100000000E-03 0.  1.
</event>
<event>
 8    1  0.1199892E+005  0.1043930E+01  0.7957747E-01            NaN
         13   -1    0    0    0    0  0.00000000000E+00  0.00000000000E+00  0.74505805969E-08  0.10566000000E+00  0.10566000000E+00 0.  1.
     999900   -1    0    0    0    0 -0.00000000000E+00 -0.00000000000E+00 -0.74505805969E-08  0.93827000000E+00  0.93827000000E+00 0.  1.
     999902    2    1    2    0    0  0.11425485383E-01 -0.18003672709E-01 -0.10642193558E-01  0.10200987132E+01  0.10198203050E+01 0.  0.
     999903    2    3    3    0    0  0.25502255199E-01  0.14457205787E-01  0.12365302940E+00  0.12920754644E+00  0.23348288097E-01 0.  0.
         14    1    1    2    0    0 -0.11425485383E-01  0.18003672709E-01  0.10642193558E-01  0.23831286809E-01  0.00000000000E+00 0. -1.
     999901    1    3    3    0    0 -0.14076769815E-01 -0.32460878496E-01 -0.13429522296E+00  0.89089116675E+00  0.88000000000E+00 0.  1.
        -11    1    4    4    0    0  0.23791628738E-01  0.91208941153E-02  0.58477867667E-01  0.63789924246E-01  0.51100000000E-03 0.  1.
         11    1    4    4    0    0  0.17106264609E-02  0.53363116720E-02  0.65175161738E-01  0.65417622195E-01  0.51100000000E-03 0. -1.
</event>
<event>
 8    1  0.1199892E+005  0.1043930E+01  0.7957747E-01            NaN
         13   -1    0    0    0    0  0.00000000000E+00  0.00000000000E+00  0.74505805969E-08  0.10566000000E+00  0.10566000000E+00 0.  1.
     999900   -1    0    0    0    0 -0.00000000000E+00 -0.00000000000E+00 -0.74505805969E-08  0.93827000000E+00  0.93827000000E+00 0.  1.
     999902    2    1    2    0    0 -0.20595648871E-01  0.10406380667E-01  0.35710139821E-02  0.10205799325E+01  0.10203127819E+01 0.  0.
     999903    2    3    3    0    0  0.63384366973E-01 -0.10859408583E+00 -0.17396840423E-01  0.12836168286E+00  0.19074016811E-01 0.  0.
         14    1    1    2    0    0  0.20595648871E-01 -0.10406380667E-01 -0.35710139821E-02  0.23350067491E-01  0.00000000000E+00 0.  1.
     999901    1    3    3    0    0 -0.83980015844E-01  0.11900046649E+00  0.20967854406E-01  0.89221824965E+00  0.88000000000E+00 0. -1.
        -11    1    4    4    0    0  0.25504034722E-01 -0.45644718960E-01 -0.16691180486E-01  0.54888548742E-01  0.51100000000E-03 0.  1.
         11    1    4    4    0    0  0.37880332251E-01 -0.62949366866E-01 -0.70565993697E-03  0.73473134118E-01  0.51100000000E-03 0. -1.
</event>
<event>
 8    1  0.1199892E+005  0.1043930E+01  0.7957747E-01            NaN
         13   -1    0    0    0    0  0.00000000000E+00  0.00000000000E+00  0.74505805969E-08  0.10566000000E+00  0.10566000000E+00 0.  1.
     999900   -1    0    0    0    0 -0.00000000000E+00 -0.00000000000E+00 -0.74505805969E-08  0.93827000000E+00  0.93827000000E+00 0. -1.
     999902    2    1    2    0    0  0.17895084466E-01  0.11017949440E-01  0.14618436417E-03  0.10229145146E+01  0.10226986132E+01 0.  0.
     999903    2    3    3    0    0  0.81724837702E-01  0.10352991444E+00  0.24060082131E-01  0.13544362740E+00  0.19201467937E-01 0.  0.
         14    1    1    2    0    0 -0.17895084466E-01 -0.11017949440E-01 -0.14618436417E-03  0.21015485428E-01  0.00000000000E+00 0.  1.
     999901    1    3    3    0    0 -0.63829753236E-01 -0.92511964999E-01 -0.23913897767E-01  0.88747088717E+00  0.88000000000E+00 0. -1.
        -11    1    4    4    0    0  0.19108431757E-01  0.38485240630E-01  0.91191972508E-02  0.43927972752E-01  0.51100000000E-03 0.  1.
         11    1    4    4    0    0  0.62616405945E-01  0.65044673808E-01  0.14940884880E-01  0.91515654652E-01  0.51100000000E-03 0. -1.
</event>
<event>
 8    1  0.1199892E+005  0.1043930E+01  0.7957747E-01            NaN
         13   -1    0    0    0    0  0.00000000000E+00  0.00000000000E+00  0.74505805969E-08  0.10566000000E+00  0.10566000000E+00 0.  1.
     999900   -1    0    0    0    0 -0.00000000000E+00 -0.00000000000E+00 -0.74505805969E-08  0.93827000000E+00  0.93827000000E+00 0.  1.
     999902    2    1    2    0    0  0.18754380729E-02  0.70110082376E-02 -0.22203539606E-01  0.10205704479E+01  0.10203030777E+01 0.  0.
     999903    2    3    3    0    0  0.87739632685E-01  0.85475612648E-01  0.41093372818E-01  0.13066266996E+00  0.19487034956E-01 0.  0.
         14    1    1    2    0    0 -0.18754380729E-02 -0.70110082376E-02  0.22203539606E-01  0.23359552126E-01  0.00000000000E+00 0.  1.
     999901    1    3    3    0    0 -0.85864194612E-01 -0.78464604410E-01 -0.63296912425E-01  0.88990777791E+00  0.88000000000E+00 0.  1.
        -11    1    4    4    0    0  0.49964112533E-01  0.38461460898E-01  0.14244326521E-01  0.64644090795E-01  0.51100000000E-03 0.  1.
         11    1    4    4    0    0  0.37775520152E-01  0.47014151750E-01  0.26849046297E-01  0.66018579169E-01  0.51100000000E-03 0. -1.
</event>
<event>
 8    1  0.1199892E+005  0.1043930E+01  0.7957747E-01            NaN
         13   -1    0    0    0    0  0.00000000000E+00  0.00000000000E+00  0.74505805969E-08  0.10566000000E+00  0.10566000000E+00 0. -1.
     999900   -1    0    0    0    0 -0.00000000000E+00 -0.00000000000E+00 -0.74505805969E-08  0.93827000000E+00  0.93827000000E+00 0.  1.
     999902    2    1    2    0    0 -0.17953637266E-01  0.30997550219E-02  0.14933195369E-01  0.10203727952E+01  0.10201008280E+01 0.  0.
     999903    2    3    3    0    0  0.26485339605E-02  0.10557284666E+00  0.76624262524E-01  0.13204235462E+00  0.20279672621E-01 0.  0.
         14    1    1    2    0    0  0.17953637266E-01 -0.30997550219E-02 -0.14933195369E-01  0.23557204762E-01  0.00000000000E+00 0. -1.
     999901    1    3    3    0    0 -0.20602171227E-01 -0.10247309164E+00 -0.61691067155E-01  0.88833044062E+00  0.88000000000E+00 0.  1.
        -11    1    4    4    0    0  0.66308896117E-02  0.78008491148E-01  0.46707941178E-01  0.91165707798E-01  0.51100000000E-03 0.  1.
         11    1    4    4    0    0 -0.39823556512E-02  0.27564355510E-01  0.29916321346E-01  0.40876646818E-01  0.51100000000E-03 0. -1.
</event>
<event>
 8    1  0.1199892E+005  0.1043930E+01  0.7957747E-01            NaN
         13   -1    0    0    0    0  0.00000000000E+00  0.00000000000E+00  0.74505805969E-08  0.10566000000E+00  0.10566000000E+00 0.  1.
     999900   -1    0    0    0    0 -0.00000000000E+00 -0.00000000000E+00 -0.74505805969E-08  0.93827000000E+00  0.93827000000E+00 0. -1.
     999902    2    1    2    0    0  0.48319063963E-02 -0.19371186237E-01  0.14949659029E-01  0.10189884186E+01  0.10186831278E+01 0.  0.
     999903    2    3    3    0    0 -0.47937084565E-01  0.11470618978E+00 -0.14915524172E-01  0.12677026239E+00  0.19817984646E-01 0.  0.
         14    1    1    2    0    0 -0.48319063963E-02  0.19371186237E-01 -0.14949659029E-01  0.24941581360E-01  0.00000000000E+00 0. -1.
     999901    1    3    3    0    0  0.52768990961E-01 -0.13407737602E+00  0.29865183202E-01  0.89221815625E+00  0.88000000000E+00 0.  1.
        -11    1    4    4    0    0 -0.21989973105E-01  0.30532210941E-01 -0.75391439332E-02  0.38378048861E-01  0.51100000000E-03 0. -1.
         11    1    4    4    0    0 -0.25947111459E-01  0.84173978840E-01 -0.73763802391E-02  0.88392213533E-01  0.51100000000E-03 0.  1.
</event>
<event>
 8    1  0.1199892E+005  0.1043930E+01  0.7957747E-01            NaN
         13   -1    0    0    0    0  0.00000000000E+00  0.00000000000E+00  0.74505805969E-08  0.10566000000E+00  0.10566000000E+00 0. -1.
     999900   -1    0    0    0    0 -0.00000000000E+00 -0.00000000000E+00 -0.74505805969E-08  0.93827000000E+00  0.93827000000E+00 0. -1.
     999902    2    1    2    0    0 -0.21664018824E-01  0.92874192231E-02  0.82544244929E-02  0.10189555853E+01  0.10186494801E+01 0.  0.
     999903    2    3    3    0    0 -0.41898381846E-02 -0.45536474566E-01  0.12004287295E+00  0.13001933135E+00  0.20090045285E-01 0.  0.
         14    1    1    2    0    0  0.21664018824E-01 -0.92874192231E-02 -0.82544244929E-02  0.24974414730E-01  0.00000000000E+00 0.  1.
     999901    1    3    3    0    0 -0.17474180639E-01  0.54823893789E-01 -0.11178844846E+00  0.88893625392E+00  0.88000000000E+00 0. -1.
        -11    1    4    4    0    0 -0.12289331691E-01 -0.25413818337E-01  0.69499675731E-01  0.75015704247E-01  0.51100000000E-03 0. -1.
         11    1    4    4    0    0  0.80994935067E-02 -0.20122656229E-01  0.50543197218E-01  0.55003627106E-01  0.51100000000E-03 0.  1.
</event>
<event>
 8    1  0.1199892E+005  0.1043930E+01  0.7957747E-01            NaN
         13   -1    0    0    0    0  0.00000000000E+00  0.00000000000E+00  0.74505805969E-08  0.10566000000E+00  0.10566000000E+00 0.  1.
     999900   -1    0    0    0    0 -0.00000000000E+00 -0.00000000000E+00 -0.74505805969E-08  0.93827000000E+00  0.93827000000E+00 0. -1.
     999902    2    1    2    0    0  0.10548787965E-01  0.16781476583E-01  0.11303120124E-01  0.10211121252E+01  0.10208571481E+01 0.  0.
     999903    2    3    3    0    0 -0.54104760835E-01 -0.13125986262E-01 -0.11492509508E+00  0.12925557847E+00  0.19990258309E-01 0.  0.
         14    1    1    2    0    0 -0.10548787965E-01 -0.16781476583E-01 -0.11303120124E-01  0.22817874756E-01  0.00000000000E+00 0.  1.
     999901    1    3    3    0    0  0.64653548800E-01  0.29907462845E-01  0.12622821520E+00  0.89185654677E+00  0.88000000000E+00 0.  1.
        -11    1    4    4    0    0 -0.34341353404E-01 -0.12495954505E-01 -0.54043634589E-01  0.65241497479E-01  0.51100000000E-03 0. -1.
         11    1    4    4    0    0 -0.19763407431E-01 -0.63003175705E-03 -0.60881460489E-01  0.64014080994E-01  0.51100000000E-03 0.  1.
</event>
<event>
 8    1  0.1199892E+005  0.1043930E+01  0.7957747E-01            NaN
         13   -1    0    0    0    0  0.00000000000E+00  0.00000000000E+00  0.74505805969E-08  0.10566000000E+00  0.10566000000E+00 0.  1.
     999900   -1    0    0    0    0 -0.00000000000E+00 -0.00000000000E+00 -0.74505805969E-08  0.93827000000E+00  0.93827000000E+00 0.  1.
     999902    2    1    2    0    0  0.21314127835E-01  0.11163262214E-02 -0.11780508183E-01  0.10195513494E+01  0.10192598469E+01 0.  0.
     999903    2    3    3    0    0 -0.31905276290E-02  0.10110316998E-01 -0.12942180541E+00  0.13133918739E+00  0.19687063094E-01 0.  0.
         14    1    1    2    0    0 -0.21314127835E-01 -0.11163262214E-02  0.11780508183E-01  0.24378650550E-01  0.00000000000E+00 0.  1.
     999901    1    3    3    0    0  0.24504655464E-01 -0.89939907766E-02  0.11764129723E+00  0.88821216206E+00  0.88000000000E+00 0. -1.
        -11    1    4    4    0    0 -0.14952644390E-02  0.85451781737E-02 -0.19009880630E-01  0.20901975226E-01  0.51100000000E-03 0. -1.
         11    1    4    4    0    0 -0.16952631901E-02  0.15651388242E-02 -0.11041192478E+00  0.11043721217E+00  0.51100000000E-03 0.  1.
</event>
<event>
 8    1  0.1199892E+005  0.1043930E+01  0.7957747E-01            NaN
         13   -1    0    0    0    0  0.00000000000E+00  0.00000000000E+00  0.74505805969E-08  0.10566000000E+00  0.10566000000E+00 0. -1.
     999900   -1    0    0    0    0 -0.00000000000E+00 -0.00000000000E+00 -0.74505805969E-08  0.93827000000E+00  0.93827000000E+00 0. -1.
     999902    2    1    2    0    0  0.18129294318E-01 -0.69062881744E-02  0.11731120332E-01  0.10212587117E+01  0.10210070367E+01 0.  0.
     999903    2    3    3    0    0  0.22278477540E-01 -0.12176872619E+00  0.44746804029E-01  0.13317052309E+00  0.20202933199E-01 0.  0.
         14    1    1    2    0    0 -0.18129294318E-01  0.69062881744E-02 -0.11731120332E-01  0.22671288297E-01  0.00000000000E+00 0. -1.
     999901    1    3    3    0    0 -0.41491832220E-02  0.11486243801E+00 -0.33015683697E-01  0.88808818862E+00  0.88000000000E+00 0. -1.
        -11    1    4    4    0    0  0.19527467363E-01 -0.12031160062E+00  0.41804995433E-01  0.12885698269E+00  0.51100000000E-03 0.  1.
         11    1    4    4    0    0  0.27510101762E-02 -0.14571255700E-02  0.29418085956E-02  0.43135403939E-02  0.51100000000E-03 0. -1.
</event>
<event>
 8    1  0.1199892E+005  0.1043930E+01  0.7957747E-01            NaN
         13   -1    0    0    0    0  0.00000000000E+00  0.00000000000E+00  0.74505805969E-08  0.10566000000E+00  0.10566000000E+00 0.  1.
     999900   -1    0    0    0    0 -0.00000000000E+00 -0.00000000000E+00 -0.74505805969E-08  0.93827000000E+00  0.93827000000E+00 0.  1.
     999902    2    1    2    0    0 -0.23278146250E-01  0.45104284282E-03 -0.38496421014E-02  0.10203313713E+01  0.10200584356E+01 0.  0.
     999903    2    3    3    0    0  0.10360998428E+00  0.33978367886E-01 -0.65077885671E-01  0.12849417931E+00  0.19648526307E-01 0.  0.
         14    1    1    2    0    0  0.23278146250E-01 -0.45104284282E-03  0.38496421014E-02  0.23598628705E-01  0.00000000000E+00 0.  1.
     999901    1    3    3    0    0 -0.12688813053E+00 -0.33527325043E-01  0.61228243570E-01  0.89183719198E+00  0.88000000000E+00 0. -1.
        -11    1    4    4    0    0  0.17831849607E-01 -0.15579759407E-02 -0.92803195857E-02  0.20168976227E-01  0.51100000000E-03 0. -1.
         11    1    4    4    0    0  0.85778134676E-01  0.35536343826E-01 -0.55797566085E-01  0.10832520308E+00  0.51100000000E-03 0.  1.
</event>
<event>
 8    1  0.1199892E+005  0.1043930E+01  0.7957747E-01            NaN
         13   -1    0    0    0    0  0.00000000000E+00  0.00000000000E+00  0.74505805969E-08  0.10566000000E+00  0.10566000000E+00 0.  1.
     999900   -1    0    0    0    0 -0.00000000000E+00 -0.00000000000E+00 -0.74505805969E-08  0.93827000000E+00  0.93827000000E+00 0. -1.
     999902    2    1    2    0    0 -0.14917430412E-01 -0.16996831742E-01  0.55554979130E-02  0.10206429741E+01  0.10203772807E+01 0.  0.
     999903    2    3    3    0    0 -0.98307456772E-01  0.48716359072E-01 -0.69001793483E-01  0.13113136109E+00  0.19913479307E-01 0.  0.
         14    1    1    2    0    0  0.14917430412E-01  0.16996831742E-01 -0.55554979130E-02  0.23287025925E-01  0.00000000000E+00 0. -1.
     999901    1    3    3    0    0  0.83390026360E-01 -0.65713190814E-01  0.74557291396E-01  0.88951161299E+00  0.88000000000E+00 0.  1.
        -11    1    4    4    0    0 -0.32693755301E-01  0.82271676281E-02 -0.27865740167E-01  0.43741610841E-01  0.51100000000E-03 0.  1.
         11    1    4    4    0    0 -0.65613701470E-01  0.40489191444E-01 -0.41136053315E-01  0.87389750244E-01  0.51100000000E-03 0. -1.
</event>
<event>
 8    1  0.1199892E+005  0.1043930E+01  0.7957747E-01            NaN
         13   -1    0    0    0    0  0.00000000000E+00  0.00000000000E+00  0.74505805969E-08  0.10566000000E+00  0.10566000000E+00 0.  1.
     999900   -1    0    0    0    0 -0.00000000000E+00 -0.00000000000E+00 -0.74505805969E-08  0.93827000000E+00  0.93827000000E+00 0.  1.
     999902    2    1    2    0    0 -0.11076128095E-01 -0.19495806609E-01 -0.99591287002E-02  0.10193953035E+01  0.10191000115E+01 0.  0.
     999903    2    3    3    0    0  0.11751509352E+00  0.45338704188E-01  0.42186833748E-02  0.12757680938E+00  0.19815390477E-01 0.  0.
         14    1    1    2    0    0  0.11076128095E-01  0.19495806609E-01  0.99591287002E-02  0.24534696521E-01  0.00000000000E+00 0.  1.
     999901    1    3    3    0    0 -0.12859122161E+00 -0.64834510797E-01 -0.14177812075E-01  0.89181849410E+00  0.88000000000E+00 0.  1.
        -11    1    4    4    0    0  0.39636104516E-01  0.19987267330E-01  0.98761743524E-02  0.45478693663E-01  0.51100000000E-03 0. -1.
         11    1    4    4    0    0  0.77878989002E-01  0.25351436858E-01 -0.56574909776E-02  0.82098115715E-01  0.51100000000E-03 0.  1.
</event>
<event>
 8    1  0.1199892E+005  0.1043930E+01  0.7957747E-01            NaN
         13   -1    0    0    0    0  0.00000000000E+00  0.00000000000E+00  0.74505805969E-08  0.10566000000E+00  0.10566000000E+00 0. -1.
     999900   -1    0    0    0    0 -0.00000000000E+00 -0.00000000000E+00 -0.74505805969E-08  0.93827000000E+00  0.93827000000E+00 0.  1.
     999902    2    1    2    0    0  0.12459706255E-01 -0.11672509123E-01 -0.18464227269E-01  0.10187820490E+01  0.10184716216E+01 0.  0.
     999903    2    3    3    0    0  0.27905246096E-01 -0.10043164512E+00  0.74045939189E-01  0.12935814570E+00  0.19634425047E-01 0.  0.
         14    1    1    2    0    0 -0.12459706255E-01  0.11672509123E-01  0.18464227269E-01  0.25147950967E-01  0.00000000000E+00 0. -1.
     999901    1    3    3    0    0 -0.15445539841E-01  0.88759135997E-01 -0.92510166458E-01  0.88942390333E+00  0.88000000000E+00 0.  1.
        -11    1    4    4    0    0  0.12841649380E-01 -0.77185031569E-01  0.51979825626E-01  0.93939344527E-01  0.51100000000E-03 0.  1.
         11    1    4    4    0    0  0.15063596716E-01 -0.23246613552E-01  0.22066113563E-01  0.35418801171E-01  0.51100000000E-03 0. -1.
</event>
<event>
 8    1  0.1199892E+005  0.1043930E+01  0.7957747E-01            NaN
         13   -1    0    0    0    0  0.00000000000E+00  0.00000000000E+00  0.74505805969E-08  0.10566000000E+00  0.10566000000E+00 0.  1.
     999900   -1    0    0    0    0 -0.00000000000E+00 -0.00000000000E+00 -0.74505805969E-08  0.93827000000E+00  0.93827000000E+00 0.  1.
     999902    2    1    2    0    0 -0.62151187099E-02 -0.76866118073E-02  0.21007610112E-01  0.10207129506E+01  0.10204488699E+01 0.  0.
     999903    2    3    3    0    0 -0.85840008431E-01  0.93285790907E-01 -0.22610184962E-01  0.13029840598E+00  0.19892418252E-01 0.  0.
         14    1    1    2    0    0  0.62151187099E-02  0.76866118073E-02 -0.21007610112E-01  0.23217049431E-01  0.00000000000E+00 0. -1.
     999901    1    3    3    0    0  0.79624889721E-01 -0.10097240271E+00  0.43617795074E-01  0.89041454459E+00  0.88000000000E+00 0.  1.
        -11    1    4    4    0    0 -0.60857268991E-01  0.60071714491E-01 -0.66352314174E-02  0.85770073382E-01  0.51100000000E-03 0.  1.
         11    1    4    4    0    0 -0.24982739440E-01  0.33214076415E-01 -0.15974953544E-01  0.44528332596E-01  0.51100000000E-03 0. -1.
</event>
<event>
 8    1  0.1199892E+005  0.1043930E+01  0.7957747E-01            NaN
         13   -1    0    0    0    0  0.00000000000E+00  0.00000000000E+00  0.74505805969E-08  0.10566000000E+00  0.10566000000E+00 0.  1.
     999900   -1    0    0    0    0 -0.00000000000E+00 -0.00000000000E+00 -0.74505805969E-08  0.93827000000E+00  0.93827000000E+00 0. -1.
     999902    2    1    2    0    0 -0.22526590761E-01 -0.17851755522E-03 -0.67195117498E-02  0.10204218951E+01  0.10201510736E+01 0.  0.
     999903    2    3    3    0    0 -0.11263935585E+00 -0.47996232582E-01  0.47726440483E-01  0.13285713347E+00  0.19543335505E-01 0.  0.
         14    1    1    2    0    0  0.22526590761E-01  0.17851755522E-03  0.67195117498E-02  0.23508104943E-01  0.00000000000E+00 0.  1.
     999901    1    3    3    0    0  0.90112765092E-01  0.47817715027E-01 -0.54445952233E-01  0.88756476159E+00  0.88000000000E+00 0.  1.
        -11    1    4    4    0    0 -0.52242401049E-01 -0.27448560353E-01  0.32062932525E-01  0.67163864510E-01  0.51100000000E-03 0.  1.
         11    1    4    4    0    0 -0.60396954804E-01 -0.20547672229E-01  0.15663507958E-01  0.65693268956E-01  0.51100000000E-03 0. -1.
</event>
<event>
 8    1  0.1199892E+005  0.1043930E+01  0.7957747E-01            NaN
         13   -1    0    0    0    0  0.00000000000E+00  0.00000000000E+00  0.74505805969E-08  0.10566000000E+00  0.10566000000E+00 0.  1.
     999900   -1    0    0    0    0 -0.00000000000E+00 -0.00000000000E+00 -0.74505805969E-08  0.93827000000E+00  0.93827000000E+00 0.  1.
     999902    2    1    2    0    0 -0.79754981374E-03 -0.45437814919E-02 -0.23109185235E-01  0.10203648461E+01  0.10200926932E+01 0.  0.
     999903    2    3    3    0    0 -0.19495485633E-01 -0.76255439237E-01  0.10014291822E+00  0.12869043486E+00  0.18375472300E-01 0.  0.
         14    1    1    2    0    0  0.79754981374E-03  0.45437814919E-02  0.23109185235E-01  0.23565153897E-01  0.00000000000E+00 0.  1.
     999901    1    3    3    0    0  0.18697935819E-01  0.71711657745E-01 -0.12325210345E+00  0.89167441124E+00  0.88000000000E+00 0.  1.
        -11    1    4    4    0    0 -0.11236683582E-01 -0.43398774109E-01  0.42208673024E-01  0.61575562129E-01  0.51100000000E-03 0. -1.
         11    1    4    4    0    0 -0.82588020514E-02 -0.32856665128E-01  0.57934245193E-01  0.67114872731E-01  0.51100000000E-03 0.  1.
</event>
<event>
 8    1  0.1199892E+005  0.1043930E+01  0.7957747E-01            NaN
         13   -1    0    0    0    0  0.00000000000E+00  0.00000000000E+00  0.74505805969E-08  0.10566000000E+00  0.10566000000E+00 0.  1.
     999900   -1    0    0    0    0 -0.00000000000E+00 -0.00000000000E+00 -0.74505805969E-08  0.93827000000E+00  0.93827000000E+00 0.  1.
     999902    2    1    2    0    0  0.25423597947E-02  0.79170007418E-02 -0.24815004545E-01  0.10177588910E+01  0.10174223476E+01 0.  0.
     999903    2    3    3    0    0  0.61592512306E-01 -0.83607567156E-01 -0.74945024172E-01  0.12962788386E+00  0.20069099799E-01 0.  0.
         14    1    1    2    0    0 -0.25423597947E-02 -0.79170007418E-02  0.24815004545E-01  0.26171108968E-01  0.00000000000E+00 0.  1.
     999901    1    3    3    0    0 -0.59050152511E-01  0.91524567898E-01  0.50130019627E-01  0.88813100718E+00  0.88000000000E+00 0.  1.
        -11    1    4    4    0    0  0.20445620573E-01 -0.38716679334E-01 -0.40600382521E-01  0.59713121180E-01  0.51100000000E-03 0. -1.
         11    1    4    4    0    0  0.41146891733E-01 -0.44890887822E-01 -0.34344641651E-01  0.69914762675E-01  0.51100000000E-03 0.  1.
</event>
<event>
 8    1  0.1199892E+005  0.1043930E+01  0.7957747E-01            NaN
         13   -1    0    0    0    0  0.00000000000E+00  0.00000000000E+00  0.74505805969E-08  0.10566000000E+00  0.10566000000E+00 0. -1.
     999900   -1    0    0    0    0 -0.00000000000E+00 -0.00000000000E+00 -0.74505805969E-08  0.93827000000E+00  0.93827000000E+00 0. -1.
     999902    2    1    2    0    0  0.13338719345E-01  0.14585053857E-01 -0.13988942278E-01  0.10197156296E+01  0.10194280894E+01 0.  0.
     999903    2    3    3    0    0 -0.53603605620E-02  0.12043623454E+00  0.47331935854E-01  0.13105687721E+00  0.20049260728E-01 0.  0.
         14    1    1    2    0    0 -0.13338719345E-01 -0.14585053857E-01  0.13988942278E-01  0.24214370440E-01  0.00000000000E+00 0. -1.
     999901    1    3    3    0    0  0.18699079907E-01 -0.10585118068E+00 -0.61320878131E-01  0.88865875235E+00  0.88000000000E+00 0. -1.
        -11    1    4    4    0    0 -0.86690369885E-02  0.46181099686E-01  0.26104850389E-01  0.53754725424E-01  0.51100000000E-03 0. -1.
         11    1    4    4    0    0  0.33086764265E-02  0.74255134853E-01  0.21227085465E-01  0.77302151782E-01  0.51100000000E-03 0.  1.
</event>
<event>
 8    1  0.1199892E+005  0.1043930E+01  0.7957747E-01            NaN
         13   -1    0    0    0    0  0.00000000000E+00  0.00000000000E+00  0.74505805969E-08  0.10566000000E+00  0.10566000000E+00 0.  1.
     999900   -1    0    0    0    0 -0.00000000000E+00 -0.00000000000E+00 -0.74505805969E-08  0.93827000000E+00  0.93827000000E+00 0. -1.
     999902    2    1    2    0    0 -0.22249223995E-01 -0.67814278393E-03  0.23402936672E-02  0.10215477566E+01  0.10213025282E+01 0.  0.
     999903    2    3    3    0    0  0.68411943244E-01  0.48949658175E-01 -0.97100506859E-01  0.12993638458E+00  0.19460025473E-01 0.  0.
         14    1    1    2    0    0  0.22249223995E-01  0.67814278393E-03 -0.23402936672E-02  0.22382243419E-01  0.00000000000E+00 0. -1.
     999901    1    3    3    0    0 -0.90661167240E-01 -0.49627800959E-01  0.99440800526E-01  0.89161137200E+00  0.88000000000E+00 0.  1.
        -11    1    4    4    0    0  0.59359073072E-01  0.48590505985E-01 -0.81766370340E-01  0.11211840735E+00  0.51100000000E-03 0. -1.
         11    1    4    4    0    0  0.90528701723E-02  0.35915218989E-03 -0.15334136519E-01  0.17817977226E-01  0.51100000000E-03 0.  1.
</event>
<event>
 8    1  0.1199892E+005  0.1043930E+01  0.7957747E-01            NaN
         13   -1    0    0    0    0  0.00000000000E+00  0.00000000000E+00  0.74505805969E-08  0.10566000000E+00  0.10566000000E+00 0. -1.
     999900   -1    0    0    0    0 -0.00000000000E+00 -0.00000000000E+00 -0.74505805969E-08  0.93827000000E+00  0.93827000000E+00 0.  1.
     999902    2    1    2    0    0  0.22155736359E-01  0.46988823678E-03  0.10894725891E-01  0.10192360230E+01  0.10189368371E+01 0.  0.
     999903    2    3    3    0    0  0.30872097034E-01 -0.12421942924E+00 -0.11829969375E-01  0.13011296479E+00  0.20146524661E-01 0.  0.
         14    1    1    2    0    0 -0.22155736359E-01 -0.46988823678E-03 -0.10894725891E-01  0.24693977015E-01  0.00000000000E+00 0.  1.
     999901    1    3    3    0    0 -0.87163606747E-02  0.12468931748E+00  0.22724695266E-01  0.88912305819E+00  0.88000000000E+00 0. -1.
        -11    1    4    4    0    0  0.14546049097E-01 -0.38333327671E-01 -0.11871121824E-01  0.42687424483E-01  0.51100000000E-03 0.  1.
         11    1    4    4    0    0  0.16326047937E-01 -0.85886101568E-01  0.41152449270E-04  0.87425540309E-01  0.51100000000E-03 0. -1.
</event>
<event>
 8    1  0.1199892E+005  0.1043930E+01  0.7957747E-01            NaN
         13   -1    0    0    0    0  0.00000000000E+00  0.00000000000E+00  0.74505805969E-08  0.10566000000E+00  0.10566000000E+00 0.  1.
     999900   -1    0    0    0    0 -0.00000000000E+00 -0.00000000000E+00 -0.74505805969E-08  0.93827000000E+00  0.93827000000E+00 0. -1.
     999902    2    1    2    0    0  0.70432615216E-02  0.13417365165E-01  0.14049404039E-01  0.10232655626E+01  0.10230568863E+01 0.  0.
     999903    2    3    3    0    0  0.11609480424E+00  0.22713186605E-01  0.62379407730E-01  0.13516959898E+00  0.19640202759E-01 0.  0.
         14    1    1    2    0    0 -0.70432615216E-02 -0.13417365165E-01 -0.14049404039E-01  0.20664437439E-01  0.00000000000E+00 0. -1.
     999901    1    3    3    0    0 -0.10905154271E+00 -0.92958214394E-02 -0.48330003692E-01  0.88809596358E+00  0.88000000000E+00 0. -1.
        -11    1    4    4    0    0  0.45253145290E-01  0.55693167530E-02  0.14045234454E-01  0.47711572806E-01  0.51100000000E-03 0. -1.
         11    1    4    4    0    0  0.70841658945E-01  0.17143869852E-01  0.48334173276E-01  0.87458026178E-01  0.51100000000E-03 0.  1.
</event>
<event>
 8    1  0.1199892E+005  0.1043930E+01  0.7957747E-01            NaN
         13   -1    0    0    0    0  0.00000000000E+00  0.00000000000E+00  0.74505805969E-08  0.10566000000E+00  0.10566000000E+00 0.  1.
     999900   -1    0    0    0    0 -0.00000000000E+00 -0.00000000000E+00 -0.74505805969E-08  0.93827000000E+00  0.93827000000E+00 0. -1.
     999902    2    1    2    0    0 -0.18198693055E-01  0.11155316709E-01 -0.10148194486E-01  0.10202948700E+01  0.10200210794E+01 0.  0.
     999903    2    3    3    0    0  0.93372476743E-02  0.26211847065E-01  0.12493701366E+00  0.12943408366E+00  0.19227051555E-01 0.  0.
         14    1    1    2    0    0  0.18198693055E-01 -0.11155316709E-01  0.10148194486E-01  0.23635130021E-01  0.00000000000E+00 0. -1.
     999901    1    3    3    0    0 -0.27535940729E-01 -0.15056530356E-01 -0.13508520814E+00  0.89086078632E+00  0.88000000000E+00 0. -1.
        -11    1    4    4    0    0  0.31575571180E-02 -0.27189554994E-02  0.17596383413E-01  0.18090238145E-01  0.51100000000E-03 0.  1.
         11    1    4    4    0    0  0.61796905563E-02  0.28930802564E-01  0.10734063024E+00  0.11134384552E+00  0.51100000000E-03 0. -1.
</event>
<event>
 8    1  0.1199892E+005  0.1043930E+01  0.7957747E-01            NaN
         13   -1    0    0    0    0  0.00000000000E+00  0.00000000000E+00  0.74505805969E-08  0.10566000000E+00  0.10566000000E+00 0. -1.
     999900   -1    0    0    0    0 -0.00000000000E+00 -0.00000000000E+00 -0.74505805969E-08  0.93827000000E+00  0.93827000000E+00 0. -1.
     999902    2    1    2    0    0 -0.10619421798E-01 -0.12639262330E-01 -0.27857795336E-01  0.10115482176E+01  0.10110297803E+01 0.  0.
     999903    2    3    3    0    0 -0.82010430555E-01  0.17177749733E-01  0.84878451308E-01  0.12098929665E+00  0.20329107269E-01 0.  0.
         14    1    1    2    0    0  0.10619421798E-01  0.12639262330E-01  0.27857795336E-01  0.32381782418E-01  0.00000000000E+00 0. -1.
     999901    1    3    3    0    0  0.71391008757E-01 -0.29817012063E-01 -0.11273624664E+00  0.89055892093E+00  0.88000000000E+00 0. -1.
        -11    1    4    4    0    0 -0.56846418340E-01  0.51455986372E-02  0.66226043290E-01  0.87430786307E-01  0.51100000000E-03 0. -1.
         11    1    4    4    0    0 -0.25164012214E-01  0.12032151096E-01  0.18652408018E-01  0.33558510346E-01  0.51100000000E-03 0.  1.
</event>
<event>
 8    1  0.1199892E+005  0.1043930E+01  0.7957747E-01            NaN
         13   -1    0    0    0    0  0.00000000000E+00  0.00000000000E+00  0.74505805969E-08  0.10566000000E+00  0.10566000000E+00 0. -1.
     999900   -1    0    0    0    0 -0.00000000000E+00 -0.00000000000E+00 -0.74505805969E-08  0.93827000000E+00  0.93827000000E+00 0. -1.
     999902    2    1    2    0    0 -0.18948221462E-01  0.66139271563E-02 -0.19207635772E-02  0.10237689370E+01  0.10235704020E+01 0.  0.
     999903    2    3    3    0    0  0.11087418660E-02 -0.22392166634E-01  0.12981238499E+00  0.13326500231E+00  0.20141179423E-01 0.  0.
         14    1    1    2    0    0  0.18948221462E-01 -0.66139271563E-02  0.19207635772E-02  0.20161063011E-01  0.00000000000E+00 0.  1.
     999901    1    3    3    0    0 -0.20056963328E-01  0.29006093790E-01 -0.13173314856E+00  0.89050393468E+00  0.88000000000E+00 0. -1.
        -11    1    4    4    0    0  0.81363219100E-02 -0.20175139628E-02  0.43297407906E-01  0.44104384694E-01  0.51100000000E-03 0.  1.
         11    1    4    4    0    0 -0.70275800440E-02 -0.20374652671E-01  0.86514977081E-01  0.89160617613E-01  0.51100000000E-03 0. -1.
</event>
<event>
 8    1  0.1199892E+005  0.1043930E+01  0.7957747E-01            NaN
         13   -1    0    0    0    0  0.00000000000E+00  0.00000000000E+00  0.74505805969E-08  0.10566000000E+00  0.10566000000E+00 0.  1.
     999900   -1    0    0    0    0 -0.00000000000E+00 -0.00000000000E+00 -0.74505805969E-08  0.93827000000E+00  0.93827000000E+00 0.  1.
     999902    2    1    2    0    0 -0.19801304893E-01  0.82148226036E-02  0.10984265046E-01  0.10198420556E+01  0.10195575459E+01 0.  0.
     999903    2    3    3    0    0 -0.63570173977E-01 -0.10799621135E+00  0.32276615108E-01  0.13086844382E+00  0.19504384592E-01 0.  0.
         14    1    1    2    0    0  0.19801304893E-01 -0.82148226036E-02 -0.10984265046E-01  0.24087944380E-01  0.00000000000E+00 0.  1.
     999901    1    3    3    0    0  0.43768869084E-01  0.11621103395E+00 -0.21292350063E-01  0.88897361180E+00  0.88000000000E+00 0.  1.
        -11    1    4    4    0    0 -0.28392050745E-01 -0.65335484440E-01  0.22546631810E-01  0.74722458468E-01  0.51100000000E-03 0. -1.
         11    1    4    4    0    0 -0.35178123232E-01 -0.42660726910E-01  0.97299832987E-02  0.56145985347E-01  0.51100000000E-03 0.  1.
</event>
<event>
 8    1  0.1199892E+005  0.1043930E+01  0.7957747E-01            NaN
         13   -1    0    0    0    0  0.00000000000E+00  0.00000000000E+00  0.74505805969E-08  0.10566000000E+00  0.10566000000E+00 0. -1.
     999900   -1    0    0    0    0 -0.00000000000E+00 -0.00000000000E+00 -0.74505805969E-08  0.93827000000E+00  0.93827000000E+00 0.  1.
     999902    2    1    2    0    0 -0.19454787161E-01 -0.10241788504E-01 -0.53638326383E-02  0.10212991875E+01  0.10210484203E+01 0.  0.
     999903    2    3    3    0    0 -0.94075599109E-01 -0.44134698223E-01  0.80686631422E-01  0.13331175666E+00  0.21531419811E-01 0.  0.
         14    1    1    2    0    0  0.19454787161E-01  0.10241788504E-01  0.53638326383E-02  0.22630812531E-01  0.00000000000E+00 0. -1.
     999901    1    3    3    0    0  0.74620811948E-01  0.33892909719E-01 -0.86050464061E-01  0.88798743081E+00  0.88000000000E+00 0.  1.
        -11    1    4    4    0    0 -0.31834720685E-02 -0.68118175183E-02  0.32487801022E-02  0.82067682717E-02  0.51100000000E-03 0. -1.
         11    1    4    4    0    0 -0.90892127041E-01 -0.37322880705E-01  0.77437851320E-01  0.12510498839E+00  0.51100000000E-03 0.  1.
</event>
<event>
 8    1  0.1199892E+005  0.1043930E+01  0.7957747E-01            NaN
         13   -1    0    0    0    0  0.00000000000E+00  0.00000000000E+00  0.74505805969E-08  0.10566000000E+00  0.10566000000E+00 0. -1.
     999900   -1    0    0    0    0 -0.00000000000E+00 -0.00000000000E+00 -0.74505805969E-08  0.93827000000E+00  0.93827000000E+00 0.  1.
     999902    2    1    2    0    0 -0.22226228490E-01 -0.64432748998E-03  0.31681720902E-02  0.10214698641E+01  0.10212229069E+01 0.  0.
     999903    2    3    3    0    0  0.72146839885E-01 -0.34067971464E-01 -0.10144745180E+00  0.12963588583E+00  0.12168986557E-01 0.  0.
         14    1    1    2    0    0  0.22226228490E-01  0.64432748998E-03 -0.31681720902E-02  0.22460135912E-01  0.00000000000E+00 0. -1.
     999901    1    3    3    0    0 -0.94373068375E-01  0.33423643974E-01  0.10461562389E+00  0.89183397826E+00  0.88000000000E+00 0. -1.
        -11    1    4    4    0    0  0.10813933589E-01 -0.18894857253E-02 -0.95492720516E-02  0.14558881608E-01  0.51100000000E-03 0. -1.
         11    1    4    4    0    0  0.61332906296E-01 -0.32178485738E-01 -0.91898179747E-01  0.11507700422E+00  0.51100000000E-03 0.  1.
</event>
<event>
 8    1  0.1199892E+005  0.1043930E+01  0.7957747E-01            NaN
         13   -1    0    0    0    0  0.00000000000E+00  0.00000000000E+00  0.74505805969E-08  0.10566000000E+00  0.10566000000E+00 0. -1.
     999900   -1    0    0    0    0 -0.00000000000E+00 -0.00000000000E+00 -0.74505805969E-08  0.93827000000E+00  0.93827000000E+00 0. -1.
     999902    2    1    2    0    0 -0.19451421110E-01 -0.44466082064E-02 -0.91152982954E-02  0.10219933008E+01  0.10217578422E+01 0.  0.
     999903    2    3    3    0    0 -0.23923901661E-01  0.12691785107E+00  0.18475040003E-01  0.13180351712E+00  0.18717532728E-01 0.  0.
         14    1    1    2    0    0  0.19451421110E-01  0.44466082064E-02  0.91152982954E-02  0.21936699176E-01  0.00000000000E+00 0. -1.
     999901    1    3    3    0    0  0.44724805514E-02 -0.13136445928E+00 -0.27590338298E-01  0.89018978370E+00  0.88000000000E+00 0.  1.
        -11    1    4    4    0    0 -0.23482453287E-01  0.80269448454E-01  0.82362827513E-02  0.84039915767E-01  0.51100000000E-03 0. -1.
         11    1    4    4    0    0 -0.44144837427E-03  0.46648402615E-01  0.10238757252E-01  0.47763601353E-01  0.51100000000E-03 0.  1.
</event>
<event>
 8    1  0.1199892E+005  0.1043930E+01  0.7957747E-01            NaN
         13   -1    0    0    0    0  0.00000000000E+00  0.00000000000E+00  0.74505805969E-08  0.10566000000E+00  0.10566000000E+00 0. -1.
     999900   -1    0    0    0    0 -0.00000000000E+00 -0.00000000000E+00 -0.74505805969E-08  0.93827000000E+00  0.93827000000E+00 0. -1.
     999902    2    1    2    0    0  0.67024085762E-02  0.22606916032E-01  0.53963658426E-02  0.10197408351E+01  0.10194539004E+01 0.  0.
     999903    2    3    3    0    0 -0.60608662333E-01  0.88816304691E-01  0.73875203542E-01  0.13204504566E+00  0.20410841641E-01 0.  0.
         14    1    1    2    0    0 -0.67024085762E-02 -0.22606916032E-01 -0.53963658426E-02  0.24189164878E-01  0.00000000000E+00 0. -1.
     999901    1    3    3    0    0  0.67311070909E-01 -0.66209388660E-01 -0.68478837700E-01  0.88769578946E+00  0.88000000000E+00 0. -1.
        -11    1    4    4    0    0 -0.57715485259E-01  0.78022291832E-01  0.71663200000E-01  0.12064174492E+00  0.51100000000E-03 0. -1.
         11    1    4    4    0    0 -0.28931770732E-02  0.10794012860E-01  0.22120035422E-02  0.11403300744E-01  0.51100000000E-03 0.  1.
</event>
<event>
 8    1  0.1199892E+005  0.1043930E+01  0.7957747E-01            NaN
         13   -1    0    0    0    0  0.00000000000E+00  0.00000000000E+00  0.74505805969E-08  0.10566000000E+00  0.10566000000E+00 0.  1.
     999900   -1    0    0    0    0 -0.00000000000E+00 -0.00000000000E+00 -0.74505805969E-08  0.93827000000E+00  0.93827000000E+00 0.  1.
     999902    2    1    2    0    0 -0.22888239665E-01 -0.26185939258E-03 -0.61725865327E-02  0.10202225980E+01  0.10199471107E+01 0.  0.
     999903    2    3    3    0    0  0.76027409727E-01 -0.10018804484E+00 -0.20066605564E-01  0.12895238532E+00  0.20204892078E-01 0.  0.
         14    1    1    2    0    0  0.22888239665E-01  0.26185939258E-03  0.61725865327E-02  0.23707402005E-01  0.00000000000E+00 0.  1.
     999901    1    3    3    0    0 -0.98915649393E-01  0.99926185443E-01  0.13894019031E-01  0.89127021267E+00  0.88000000000E+00 0. -1.
        -11    1    4    4    0    0  0.28160502831E-01 -0.29518100312E-01  0.18011080934E-02  0.40839163521E-01  0.51100000000E-03 0. -1.
         11    1    4    4    0    0  0.47866906897E-01 -0.70669944523E-01 -0.21867713657E-01  0.88113221802E-01  0.51100000000E-03 0.  1.
</event>
<event>
 8    1  0.1199892E+005  0.1043930E+01  0.7957747E-01            NaN
         13   -1    0    0    0    0  0.00000000000E+00  0.00000000000E+00  0.74505805969E-08  0.10566000000E+00  0.10566000000E+00 0.  1.
     999900   -1    0    0    0    0 -0.00000000000E+00 -0.00000000000E+00 -0.74505805969E-08  0.93827000000E+00  0.93827000000E+00 0. -1.
     999902    2    1    2    0    0 -0.13557517788E-01  0.19273703011E-01 -0.12904547862E-02  0.10203302714E+01  0.10200573099E+01 0.  0.
     999903    2    3    3    0    0  0.86131533176E-01  0.96794734487E-01 -0.36592704043E-02  0.13131225781E+00  0.21015640835E-01 0.  0.
         14    1    1    2    0    0  0.13557517788E-01 -0.19273703011E-01  0.12904547862E-02  0.23599728597E-01  0.00000000000E+00 0. -1.
     999901    1    3    3    0    0 -0.99689050964E-01 -0.77521031476E-01  0.23688156181E-02  0.88901801359E+00  0.88000000000E+00 0. -1.
        -11    1    4    4    0    0  0.67018844424E-01  0.60764552879E-01 -0.31175928177E-02  0.90519814960E-01  0.51100000000E-03 0. -1.
         11    1    4    4    0    0  0.19112688752E-01  0.36030181609E-01 -0.54167758660E-03  0.40792442850E-01  0.51100000000E-03 0.  1.
</event>
<event>
 8    1  0.1199892E+005  0.1043930E+01  0.7957747E-01            NaN
         13   -1    0    0    0    0  0.00000000000E+00  0.00000000000E+00  0.74505805969E-08  0.10566000000E+00  0.10566000000E+00 0.  1.
     999900   -1    0    0    0    0 -0.00000000000E+00 -0.00000000000E+00 -0.74505805969E-08  0.93827000000E+00  0.93827000000E+00 0. -1.
     999902    2    1    2    0    0  0.26982198858E-02 -0.11560015141E-01 -0.19425919615E-01  0.10211642210E+01  0.10209104199E+01 0.  0.
     999903    2    3    3    0    0  0.57658372557E-01 -0.21964472048E-02 -0.11904203386E+00  0.13379075678E+00  0.19991209743E-01 0.  0.
         14    1    1    2    0    0 -0.26982198858E-02  0.11560015141E-01  0.19425919615E-01  0.22765779000E-01  0.00000000000E+00 0.  1.
     999901    1    3    3    0    0 -0.54960152671E-01 -0.93635679361E-02  0.99616114248E-01  0.88737346422E+00  0.88000000000E+00 0.  1.
        -11    1    4    4    0    0  0.22186406465E-01 -0.10369338693E-01 -0.52763608596E-01  0.58172324432E-01  0.51100000000E-03 0.  1.
         11    1    4    4    0    0  0.35471966092E-01  0.81728914880E-02 -0.66278425266E-01  0.75618432346E-01  0.51100000000E-03 0. -1.
</event>
<event>
 7    1  0.1199892E+005  0.1043930E+01  0.7957747E-01            NaN
         13   -1    0    0    0    0  0.00000000000E+00  0.00000000000E+00  0.74505805969E-08  0.10566000000E+00  0.10566000000E+00 0. -1.
     999900   -1    0    0    0    0 -0.00000000000E+00 -0.00000000000E+00 -0.74505805969E-08  0.93827000000E+00  0.93827000000E+00 0.  1.
     999902    2    1    2    0    0  0.10193138939E-01 -0.14205410252E-01  0.16640558852E-01  0.10197928510E+01  0.10195071638E+01 0.  0.
         14    1    1    2    0    0 -0.10193138939E-01  0.14205410252E-01 -0.16640558852E-01  0.24137148978E-01  0.00000000000E+00 0.  1.
     999901    1    3    3    0    0  0.76926293488E-01 -0.57790569753E-01  0.10977002277E+00  0.89202402573E+00  0.88000000000E+00 0. -1.
        -11    1    3    3    0    0 -0.19458879776E-01  0.22398046781E-01 -0.58071962129E-01  0.65214526052E-01  0.51100000000E-03 0.  1.
         11    1    3    3    0    0 -0.47274274773E-01  0.21187112719E-01 -0.35057501788E-01  0.62554299239E-01  0.51100000000E-03 0. -1.
</event>
<event>
 8    1  0.1199892E+005  0.1043930E+01  0.7957747E-01            NaN
         13   -1    0    0    0    0  0.00000000000E+00  0.00000000000E+00  0.74505805969E-08  0.10566000000E+00  0.10566000000E+00 0.  1.
     999900   -1    0    0    0    0 -0.00000000000E+00 -0.00000000000E+00 -0.74505805969E-08  0.93827000000E+00  0.93827000000E+00 0.  1.
     999902    2    1    2    0    0  0.17690027498E-02  0.31016762603E-02 -0.23613338546E-01  0.10200482177E+01  0.10197686144E+01 0.  0.
     999903    2    3    3    0    0 -0.54802542250E-01  0.98015524915E-01  0.63011529733E-01  0.12891812277E+00  0.62504189708E-02 0.  0.
         14    1    1    2    0    0 -0.17690027498E-02 -0.31016762603E-02  0.23613338546E-01  0.23881782255E-01  0.00000000000E+00 0.  1.
     999901    1    3    3    0    0  0.56571545000E-01 -0.94913848654E-01 -0.86624868279E-01  0.89113009498E+00  0.88000000000E+00 0.  1.
        -11    1    4    4    0    0 -0.25522004142E-01  0.50312877724E-01  0.34012393064E-01  0.65877631737E-01  0.51100000000E-03 0.  1.
         11    1    4    4    0    0 -0.29280538108E-01  0.47702647191E-01  0.28999136668E-01  0.63040491031E-01  0.51100000000E-03 0. -1.
</event>
<event>
 8    1  0.1199892E+005  0.1043930E+01  0.7957747E-01            NaN
         13   -1    0    0    0    0  0.00000000000E+00  0.00000000000E+00  0.74505805969E-08  0.10566000000E+00  0.10566000000E+00 0.  1.
     999900   -1    0    0    0    0 -0.00000000000E+00 -0.00000000000E+00 -0.74505805969E-08  0.93827000000E+00  0.93827000000E+00 0. -1.
     999902    2    1    2    0    0  0.85192495302E-02 -0.20463423260E-01 -0.69463544936E-02  0.10207011140E+01  0.10204367609E+01 0.  0.
     999903    2    3    3    0    0  0.81808436269E-01 -0.92959928151E-01  0.44804576400E-01  0.13317353304E+00  0.19838632757E-01 0.  0.
         14    1    1    2    0    0 -0.85192495302E-02  0.20463423260E-01  0.69463544936E-02  0.23228886000E-01  0.00000000000E+00 0.  1.
     999901    1    3    3    0    0 -0.73289186739E-01  0.72496504891E-01 -0.51750930894E-01  0.88752758096E+00  0.88000000000E+00 0. -1.
        -11    1    4    4    0    0  0.46415240587E-01 -0.46164222963E-01  0.14167226866E-01  0.66981202428E-01  0.51100000000E-03 0. -1.
         11    1    4    4    0    0  0.35393195681E-01 -0.46795705188E-01  0.30637349534E-01  0.66192330613E-01  0.51100000000E-03 0.  1.
</event>
<event>
 8    1  0.1199892E+005  0.1043930E+01  0.7957747E-01            NaN
         13   -1    0    0    0    0  0.00000000000E+00  0.00000000000E+00  0.74505805969E-08  0.10566000000E+00  0.10566000000E+00 0.  1.
     999900   -1    0    0    0    0 -0.00000000000E+00 -0.00000000000E+00 -0.74505805969E-08  0.93827000000E+00  0.93827000000E+00 0. -1.
     999902    2    1    2    0    0 -0.64134798239E-02  0.13267908350E-01 -0.18182771371E-01  0.10205252293E+01  0.10202568110E+01 0.  0.
     999903    2    3    3    0    0 -0.31508809030E-01 -0.11325422903E+00 -0.52891248393E-01  0.13044528619E+00  0.19979066422E-01 0.  0.
         14    1    1    2    0    0  0.64134798239E-02 -0.13267908350E-01  0.18182771371E-01  0.23404770671E-01  0.00000000000E+00 0.  1.
     999901    1    3    3    0    0  0.25095329207E-01  0.12652213737E+00  0.34708477021E-01  0.89007994313E+00  0.88000000000E+00 0.  1.
        -11    1    4    4    0    0 -0.29873870620E-01 -0.72176056810E-01 -0.33788565132E-01  0.85110278916E-01  0.51100000000E-03 0. -1.
         11    1    4    4    0    0 -0.16349384104E-02 -0.41078172215E-01 -0.19102683260E-01  0.45335007278E-01  0.51100000000E-03 0.  1.
</event>
<event>
 8    1  0.1199892E+005  0.1043930E+01  0.7957747E-01            NaN
         13   -1    0    0    0    0  0.00000000000E+00  0.00000000000E+00  0.74505805969E-08  0.10566000000E+00  0.10566000000E+00 0.  1.
     999900   -1    0    0    0    0 -0.00000000000E+00 -0.00000000000E+00 -0.74505805969E-08  0.93827000000E+00  0.93827000000E+00 0.  1.
     999902    2    1    2    0    0  0.47883594055E-02  0.19421459962E-01  0.12941530827E-01  0.10201055438E+01  0.10198272970E+01 0.  0.
     999903    2    3    3    0    0 -0.49830535989E-02 -0.45718789806E-01 -0.11728818541E+00  0.12808619892E+00  0.23119631353E-01 0.  0.
         14    1    1    2    0    0 -0.47883594055E-02 -0.19421459962E-01 -0.12941530827E-01  0.23824456195E-01  0.00000000000E+00 0. -1.
     999901    1    3    3    0    0  0.97714130044E-02  0.65140249767E-01  0.13022971624E+00  0.89201934488E+00  0.88000000000E+00 0. -1.
        -11    1    4    4    0    0 -0.13934199704E-02 -0.36772576594E-01 -0.63126818037E-01  0.73071336959E-01  0.51100000000E-03 0. -1.
         11    1    4    4    0    0 -0.35896336286E-02 -0.89462132117E-02 -0.54161367371E-01  0.55014861964E-01  0.51100000000E-03 0.  1.
</event>
<event>
 8    1  0.1199892E+005  0.1043930E+01  0.7957747E-01            NaN
         13   -1    0    0    0    0  0.00000000000E+00  0.00000000000E+00  0.74505805969E-08  0.10566000000E+00  0.10566000000E+00 0.  1.
     999900   -1    0    0    0    0 -0.00000000000E+00 -0.00000000000E+00 -0.74505805969E-08  0.93827000000E+00  0.93827000000E+00 0.  1.
     999902    2    1    2    0    0  0.96677379027E-02  0.45032848553E-02  0.17871284820E-01  0.10231182833E+01  0.10229065911E+01 0.  0.
     999903    2    3    3    0    0 -0.11841166236E+00  0.16457194343E-01 -0.50125650943E-01  0.13117052026E+00  0.20024072383E-01 0.  0.
         14    1    1    2    0    0 -0.96677379027E-02 -0.45032848553E-02 -0.17871284820E-01  0.20811716694E-01  0.00000000000E+00 0. -1.
     999901    1    3    3    0    0  0.12807940026E+00 -0.11953909487E-01  0.67996935763E-01  0.89194776304E+00  0.88000000000E+00 0.  1.
        -11    1    4    4    0    0 -0.49826642844E-01  0.26733247007E-02 -0.30609832277E-01  0.58541130456E-01  0.51100000000E-03 0.  1.
         11    1    4    4    0    0 -0.68585019517E-01  0.13783869642E-01 -0.19515818666E-01  0.72629389807E-01  0.51100000000E-03 0. -1.
</event>
<event>
 8    1  0.1199892E+005  0.1043930E+01  0.7957747E-01            NaN
         13   -1    0    0    0    0  0.00000000000E+00  0.00000000000E+00  0.74505805969E-08  0.10566000000E+00  0.10566000000E+00 0. -1.
     999900   -1    0    0    0    0 -0.00000000000E+00 -0.00000000000E+00 -0.74505805969E-08  0.93827000000E+00  0.93827000000E+00 0. -1.
     999902    2    1    2    0    0 -0.78268926853E-02 -0.27336807371E-02 -0.20926793742E-01  0.10214208029E+01  0.10211727535E+01 0.  0.
     999903    2    3    3    0    0  0.43956802837E-02 -0.77580803590E-02  0.12709295712E+00  0.12896100964E+00  0.19970288974E-01 0.  0.
         14    1    1    2    0    0  0.78268926853E-02  0.27336807371E-02  0.20926793742E-01  0.22509197138E-01  0.00000000000E+00 0.  1.
     999901    1    3    3    0    0 -0.12222572969E-01  0.50243996219E-02 -0.14801975086E+00  0.89245979323E+00  0.88000000000E+00 0. -1.
        -11    1    4    4    0    0  0.19571243521E-02  0.53985920369E-02  0.14977404132E-01  0.16048641289E-01  0.51100000000E-03 0.  1.
         11    1    4    4    0    0  0.24385559316E-02 -0.13156672396E-01  0.11211555298E+00  0.11291236835E+00  0.51100000000E-03 0. -1.
</event>
<event>
 8    1  0.1199892E+005  0.1043930E+01  0.7957747E-01            NaN
         13   -1    0    0    0    0  0.00000000000E+00  0.00000000000E+00  0.74505805969E-08  0.10566000000E+00  0.10566000000E+00 0.  1.
     999900   -1    0    0    0    0 -0.00000000000E+00 -0.00000000000E+00 -0.74505805969E-08  0.93827000000E+00  0.93827000000E+00 0. -1.
     999902    2    1    2    0    0 -0.99604653250E-02 -0.19226369673E-01 -0.60972908024E-03  0.10222681457E+01  0.10220386127E+01 0.  0.
     999903    2    3    3    0    0 -0.28534499296E-01 -0.12086600262E+00  0.48625172783E-01  0.13485635560E+00  0.19975509454E-01 0.  0.
         14    1    1    2    0    0  0.99604653250E-02  0.19226369673E-01  0.60972908024E-03  0.21661854257E-01  0.00000000000E+00 0.  1.
     999901    1    3    3    0    0  0.18574033971E-01  0.10163963295E+00 -0.49234901863E-01  0.88741179014E+00  0.88000000000E+00 0. -1.
        -11    1    4    4    0    0 -0.11945024487E-02 -0.46997303623E-01  0.17800103626E-01  0.50272041872E-01  0.51100000000E-03 0. -1.
         11    1    4    4    0    0 -0.27339996847E-01 -0.73868698998E-01  0.30825069157E-01  0.84584313728E-01  0.51100000000E-03 0.  1.
</event>
<event>
 8    1  0.1199892E+005  0.1043930E+01  0.7957747E-01            NaN
         13   -1    0    0    0    0  0.00000000000E+00  0.00000000000E+00  0.74505805969E-08  0.10566000000E+00  0.10566000000E+00 0. -1.
     999900   -1    0    0    0    0 -0.00000000000E+00 -0.00000000000E+00 -0.74505805969E-08  0.93827000000E+00  0.93827000000E+00 0.  1.
     999902    2    1    2    0    0  0.19523967734E-01  0.13592347894E-01 -0.43749458705E-02  0.10197416270E+01  0.10194547113E+01 0.  0.
     999903    2    3    3    0    0 -0.76195294569E-01 -0.96121448219E-01 -0.28569599121E-01  0.12744981627E+00  0.19549372161E-01 0.  0.
         14    1    1    2    0    0 -0.19523967734E-01 -0.13592347894E-01  0.43749458705E-02  0.24188373007E-01  0.00000000000E+00 0. -1.
     999901    1    3    3    0    0  0.95719262303E-01  0.10971379611E+00  0.24194653250E-01  0.89229181072E+00  0.88000000000E+00 0. -1.
        -11    1    4    4    0    0 -0.27641579056E-01 -0.27636746743E-01 -0.10583838999E-02  0.39105344401E-01  0.51100000000E-03 0. -1.
         11    1    4    4    0    0 -0.48553715513E-01 -0.68484701475E-01 -0.27511215221E-01  0.88344471871E-01  0.51100000000E-03 0.  1.
</event>
<event>
 8    1  0.1199892E+005  0.1043930E+01  0.7957747E-01            NaN
         13   -1    0    0    0    0  0.00000000000E+00  0.00000000000E+00  0.74505805969E-08  0.10566000000E+00  0.10566000000E+00 0. -1.
     999900   -1    0    0    0    0 -0.00000000000E+00 -0.00000000000E+00 -0.74505805969E-08  0.93827000000E+00  0.93827000000E+00 0. -1.
     999902    2    1    2    0    0  0.68143232359E-02 -0.18166050176E-01 -0.15673491607E-01  0.10189880931E+01  0.10186827942E+01 0.  0.
     999903    2    3    3    0    0  0.36996658144E-01  0.34913058949E-01 -0.11882252904E+00  0.13086192578E+00  0.20454237024E-01 0.  0.
         14    1    1    2    0    0 -0.68143232359E-02  0.18166050176E-01  0.15673491607E-01  0.24941906889E-01  0.00000000000E+00 0. -1.
     999901    1    3    3    0    0 -0.30182334908E-01 -0.53079109125E-01  0.10314903744E+00  0.88812616733E+00  0.88000000000E+00 0.  1.
        -11    1    4    4    0    0  0.19331612816E-01  0.18616614992E-01 -0.37891904518E-01  0.46436485190E-01  0.51100000000E-03 0. -1.
         11    1    4    4    0    0  0.17665045328E-01  0.16296443957E-01 -0.80930624527E-01  0.84425440594E-01  0.51100000000E-03 0.  1.
</event>
<event>
 8    1  0.1199892E+005  0.1043930E+01  0.7957747E-01            NaN
         13   -1    0    0    0    0  0.00000000000E+00  0.00000000000E+00  0.74505805969E-08  0.10566000000E+00  0.10566000000E+00 0. -1.
     999900   -1    0    0    0    0 -0.00000000000E+00 -0.00000000000E+00 -0.74505805969E-08  0.93827000000E+00  0.93827000000E+00 0.  1.
     999902    2    1    2    0    0  0.14592209520E-01 -0.10297606430E-01 -0.19828351789E-01  0.10172441084E+01  0.10168940157E+01 0.  0.
     999903    2    3    3    0    0 -0.74706864022E-01 -0.18354127366E-01  0.96429962612E-01  0.12508087907E+00  0.20700219720E-01 0.  0.
         14    1    1    2    0    0 -0.14592209520E-01  0.10297606430E-01  0.19828351789E-01  0.26685891620E-01  0.00000000000E+00 0. -1.
     999901    1    3    3    0    0  0.89299073542E-01  0.80565209360E-02 -0.11625831440E+00  0.89216322931E+00  0.88000000000E+00 0.  1.
        -11    1    4    4    0    0 -0.34839304376E-01 -0.18602043687E-01  0.42608208442E-01  0.58099343425E-01  0.51100000000E-03 0. -1.
         11    1    4    4    0    0 -0.39867559646E-01  0.24791632070E-03  0.53821754170E-01  0.66981535646E-01  0.51100000000E-03 0.  1.
</event>
<event>
 8    1  0.1199892E+005  0.1043930E+01  0.7957747E-01            NaN
         13   -1    0    0    0    0  0.00000000000E+00  0.00000000000E+00  0.74505805969E-08  0.10566000000E+00  0.10566000000E+00 0.  1.
     999900   -1    0    0    0    0 -0.00000000000E+00 -0.00000000000E+00 -0.74505805969E-08  0.93827000000E+00  0.93827000000E+00 0.  1.
     999902    2    1    2    0    0 -0.76237372979E-02 -0.22035914529E-01  0.36674331036E-02  0.10203259121E+01  0.10200528486E+01 0.  0.
     999903    2    3    3    0    0 -0.82084617959E-01  0.82316112476E-01  0.53061618018E-01  0.12966685625E+00  0.22002986703E-01 0.  0.
         14    1    1    2    0    0  0.76237372979E-02  0.22035914529E-01 -0.36674331036E-02  0.23604087889E-01  0.00000000000E+00 0.  1.
     999901    1    3    3    0    0  0.74460880661E-01 -0.10435202700E+00 -0.49394184914E-01  0.89065905586E+00  0.88000000000E+00 0.  1.
        -11    1    4    4    0    0 -0.50411893726E-01  0.59589422780E-01  0.26247320938E-01  0.82349507064E-01  0.51100000000E-03 0. -1.
         11    1    4    4    0    0 -0.31672724233E-01  0.22726689696E-01  0.26814297079E-01  0.47317349183E-01  0.51100000000E-03 0.  1.
</event>
<event>
 8    1  0.1199892E+005  0.1043930E+01  0.7957747E-01            NaN
         13   -1    0    0    0    0  0.00000000000E+00  0.00000000000E+00  0.74505805969E-08  0.10566000000E+00  0.10566000000E+00 0.  1.
     999900   -1    0    0    0    0 -0.00000000000E+00 -0.00000000000E+00 -0.74505805969E-08  0.93827000000E+00  0.93827000000E+00 0. -1.
     999902    2    1    2    0    0 -0.23424254390E-01  0.28503469356E-02 -0.36746241414E-02  0.10200485630E+01  0.10197689679E+01 0.  0.
     999903    2    3    3    0    0  0.50480834234E-01 -0.33808464914E-01 -0.11205786691E+00  0.12956961437E+00  0.23237738832E-01 0.  0.
         14    1    1    2    0    0  0.23424254390E-01 -0.28503469356E-02  0.36746241414E-02  0.23881437017E-01  0.00000000000E+00 0. -1.
     999901    1    3    3    0    0 -0.73905088624E-01  0.36658811850E-01  0.10838324277E+00  0.89047894861E+00  0.88000000000E+00 0.  1.
        -11    1    4    4    0    0  0.42279464512E-01 -0.18782410773E-01 -0.93475294674E-01  0.10429872439E+00  0.51100000000E-03 0.  1.
         11    1    4    4    0    0  0.82013697223E-02 -0.15026054142E-01 -0.18582572239E-01  0.25270889981E-01  0.51100000000E-03 0. -1.
</event>
<event>
 8    1  0.1199892E+005  0.1043930E+01  0.7957747E-01            NaN
         13   -1    0    0    0    0  0.00000000000E+00  0.00000000000E+00  0.74505805969E-08  0.10566000000E+00  0.10566000000E+00 0. -1.
     999900   -1    0    0    0    0 -0.00000000000E+00 -0.00000000000E+00 -0.74505805969E-08  0.93827000000E+00  0.93827000000E+00 0. -1.
     999902    2    1    2    0    0 -0.21952382206E-01 -0.89831885953E-02 -0.14902453594E-02  0.10201639403E+01  0.10198870719E+01 0.  0.
     999903    2    3    3    0    0 -0.10216509394E+00 -0.57804259534E-01  0.59455209453E-01  0.13307210484E+00  0.19855082916E-01 0.  0.
         14    1    1    2    0    0  0.21952382206E-01  0.89831885953E-02  0.14902453594E-02  0.23766059688E-01  0.00000000000E+00 0.  1.
     999901    1    3    3    0    0  0.80212711729E-01  0.48821070939E-01 -0.60945454813E-01  0.88709183547E+00  0.88000000000E+00 0.  1.
        -11    1    4    4    0    0 -0.87077978377E-01 -0.43225387408E-01  0.42539885808E-01  0.10611744173E+00  0.51100000000E-03 0. -1.
         11    1    4    4    0    0 -0.15087115558E-01 -0.14578872126E-01  0.16915323645E-01  0.26954663110E-01  0.51100000000E-03 0.  1.
</event>
<event>
 8    1  0.1199892E+005  0.1043930E+01  0.7957747E-01            NaN
         13   -1    0    0    0    0  0.00000000000E+00  0.00000000000E+00  0.74505805969E-08  0.10566000000E+00  0.10566000000E+00 0. -1.
     999900   -1    0    0    0    0 -0.00000000000E+00 -0.00000000000E+00 -0.74505805969E-08  0.93827000000E+00  0.93827000000E+00 0. -1.
     999902    2    1    2    0    0 -0.13883419877E-01 -0.24742529695E-01 -0.13233069960E-01  0.10126241497E+01  0.10121401149E+01 0.  0.
     999903    2    3    3    0    0  0.54893623220E-01  0.62728913594E-01  0.83644671089E-01  0.12034233784E+00  0.23186651410E-01 0.  0.
         14    1    1    2    0    0  0.13883419877E-01  0.24742529695E-01  0.13233069960E-01  0.31305850312E-01  0.00000000000E+00 0.  1.
     999901    1    3    3    0    0 -0.68777043097E-01 -0.87471443290E-01 -0.96877741050E-01  0.89228181185E+00  0.88000000000E+00 0. -1.
        -11    1    4    4    0    0  0.16108845146E-01  0.35846928553E-01  0.39437715369E-01  0.55678467051E-01  0.51100000000E-03 0. -1.
         11    1    4    4    0    0  0.38784778074E-01  0.26881985041E-01  0.44206955721E-01  0.64663870787E-01  0.51100000000E-03 0.  1.
</event>
<event>
 8    1  0.1199892E+005  0.1043930E+01  0.7957747E-01            NaN
         13   -1    0    0    0    0  0.00000000000E+00  0.00000000000E+00  0.74505805969E-08  0.10566000000E+00  0.10566000000E+00 0. -1.
     999900   -1    0    0    0    0 -0.00000000000E+00 -0.00000000000E+00 -0.74505805969E-08  0.93827000000E+00  0.93827000000E+00 0.  1.
     999902    2    1    2    0    0  0.16691528097E-01  0.11306919025E-01  0.95983310076E-02  0.10216010617E+01  0.10213570129E+01 0.  0.
     999903    2    3    3    0    0 -0.10161824215E+00  0.46927004925E-01  0.65308736674E-01  0.13122493804E+00  0.20648059246E-01 0.  0.
         14    1    1    2    0    0 -0.16691528097E-01 -0.11306919025E-01 -0.95983310076E-02  0.22328938313E-01  0.00000000000E+00 0.  1.
     999901    1    3    3    0    0  0.11830977024E+00 -0.35620085900E-01 -0.55710405666E-01  0.89037612364E+00  0.88000000000E+00 0.  1.
        -11    1    4    4    0    0 -0.61153555238E-01  0.38930596372E-01  0.39353860335E-01  0.82488399769E-01  0.51100000000E-03 0. -1.
         11    1    4    4    0    0 -0.40464686908E-01  0.79964085534E-02  0.25954876338E-01  0.48736538275E-01  0.51100000000E-03 0.  1.
</event>
<event>
 8    1  0.1199892E+005  0.1043930E+01  0.7957747E-01            NaN
         13   -1    0    0    0    0  0.00000000000E+00  0.00000000000E+00  0.74505805969E-08  0.10566000000E+00  0.10566000000E+00 0. -1.
     999900   -1    0    0    0    0 -0.00000000000E+00 -0.00000000000E+00 -0.74505805969E-08  0.93827000000E+00  0.93827000000E+00 0. -1.
     999902    2    1    2    0    0  0.19606760507E-01  0.12900601369E-01  0.10659569288E-03  0.10204595519E+01  0.10201896074E+01 0.  0.
     999903    2    3    3    0    0  0.11261836013E+00  0.68164024437E-01 -0.12887948654E-01  0.13373859137E+00  0.19765685799E-01 0.  0.
         14    1    1    2    0    0 -0.19606760507E-01 -0.12900601369E-01 -0.10659569288E-03  0.23470448140E-01  0.00000000000E+00 0.  1.
     999901    1    3    3    0    0 -0.93011599622E-01 -0.55263423068E-01  0.12994544346E-01  0.88672096049E+00  0.88000000000E+00 0.  1.
        -11    1    4    4    0    0  0.78557545537E-01  0.57064113966E-01 -0.62225243191E-02  0.97296361665E-01  0.51100000000E-03 0.  1.
         11    1    4    4    0    0  0.34060814592E-01  0.11099910471E-01 -0.66654243344E-02  0.36442229702E-01  0.51100000000E-03 0. -1.
</event>
<event>
 7    1  0.1199892E+005  0.1043930E+01  0.7957747E-01            NaN
         13   -1    0    0    0    0  0.00000000000E+00  0.00000000000E+00  0.74505805969E-08  0.10566000000E+00  0.10566000000E+00 0. -1.
     999900   -1    0    0    0    0 -0.00000000000E+00 -0.00000000000E+00 -0.74505805969E-08  0.93827000000E+00  0.93827000000E+00 0.  1.
     999903    2    1    2    0    0  0.11525276130E-01  0.70467397610E-01 -0.71873978721E-01  0.10326150687E+00  0.19964565324E-01 0.  0.
         14    1    1    2    0    0 -0.13932543688E-01 -0.20974378485E-01  0.53447475885E-01  0.59081917750E-01  0.00000000000E+00 0. -1.
     999901    1    1    2    0    0  0.24072675581E-02 -0.49493019125E-01  0.18426502836E-01  0.88158657538E+00  0.88000000000E+00 0. -1.
        -11    1    3    3    0    0  0.26034900470E-02  0.10807008418E-01 -0.23262174623E-01  0.25786808266E-01  0.51100000000E-03 0. -1.
         11    1    3    3    0    0  0.89217860832E-02  0.59660389192E-01 -0.48611804099E-01  0.77474698607E-01  0.51100000000E-03 0.  1.
</event>
<event>
 8    1  0.1199892E+005  0.1043930E+01  0.7957747E-01            NaN
         13   -1    0    0    0    0  0.00000000000E+00  0.00000000000E+00  0.74505805969E-08  0.10566000000E+00  0.10566000000E+00 0. -1.
     999900   -1    0    0    0    0 -0.00000000000E+00 -0.00000000000E+00 -0.74505805969E-08  0.93827000000E+00  0.93827000000E+00 0.  1.
     999902    2    1    2    0    0 -0.94214602030E-02  0.10666468826E-01  0.17241965225E-01  0.10215732821E+01  0.10213286190E+01 0.  0.
     999903    2    3    3    0    0 -0.92756946745E-01 -0.32621438510E-01  0.88380035850E-01  0.13372235357E+00  0.20065584638E-01 0.  0.
         14    1    1    2    0    0  0.94214602030E-02 -0.10666468826E-01 -0.17241965225E-01  0.22356717880E-01  0.00000000000E+00 0.  1.
     999901    1    3    3    0    0  0.83335486542E-01  0.43287907336E-01 -0.71138070625E-01  0.88785092855E+00  0.88000000000E+00 0.  1.
        -11    1    4    4    0    0 -0.36577601949E-01 -0.23164855199E-01  0.35501650858E-01  0.55992497849E-01  0.51100000000E-03 0. -1.
         11    1    4    4    0    0 -0.56179344796E-01 -0.94565833105E-02  0.52878384992E-01  0.77729855719E-01  0.51100000000E-03 0.  1.
</event>
<event>
 8    1  0.1199892E+005  0.1043930E+01  0.7957747E-01            NaN
         13   -1    0    0    0    0  0.00000000000E+00  0.00000000000E+00  0.74505805969E-08  0.10566000000E+00  0.10566000000E+00 0. -1.
     999900   -1    0    0    0    0 -0.00000000000E+00 -0.00000000000E+00 -0.74505805969E-08  0.93827000000E+00  0.93827000000E+00 0.  1.
     999902    2    1    2    0    0 -0.15855356663E-01  0.11676318329E-01  0.11959733240E-01  0.10208916849E+01  0.10206317006E+01 0.  0.
     999903    2    3    3    0    0 -0.60246337231E-01  0.90245460746E-01  0.76070369547E-01  0.13395660101E+00  0.19590954471E-01 0.  0.
         14    1    1    2    0    0  0.15855356663E-01 -0.11676318329E-01 -0.11959733240E-01  0.23038315125E-01  0.00000000000E+00 0. -1.
     999901    1    3    3    0    0  0.44390980568E-01 -0.78569142417E-01 -0.64110636307E-01  0.88693508386E+00  0.88000000000E+00 0.  1.
        -11    1    4    4    0    0 -0.23556238462E-01  0.35001375022E-01  0.18250674116E-01  0.45971087115E-01  0.51100000000E-03 0. -1.
         11    1    4    4    0    0 -0.36690098769E-01  0.55244085725E-01  0.57819695431E-01  0.87985513898E-01  0.51100000000E-03 0.  1.
</event>
<event>
 8    1  0.1199892E+005  0.1043930E+01  0.7957747E-01            NaN
         13   -1    0    0    0    0  0.00000000000E+00  0.00000000000E+00  0.74505805969E-08  0.10566000000E+00  0.10566000000E+00 0. -1.
     999900   -1    0    0    0    0 -0.00000000000E+00 -0.00000000000E+00 -0.74505805969E-08  0.93827000000E+00  0.93827000000E+00 0. -1.
     999902    2    1    2    0    0 -0.15136795474E-01 -0.91886187111E-02  0.15058241250E-01  0.10206855615E+01  0.10204208502E+01 0.  0.
     999903    2    3    3    0    0 -0.66911421623E-03  0.12592985437E+00  0.26558642137E-01  0.13018088730E+00  0.19568495373E-01 0.  0.
         14    1    1    2    0    0  0.15136795474E-01  0.91886187111E-02 -0.15058241250E-01  0.23244438487E-01  0.00000000000E+00 0.  1.
     999901    1    3    3    0    0 -0.14467681258E-01 -0.13511847308E+00 -0.11500400887E-01  0.89050467421E+00  0.88000000000E+00 0. -1.
        -11    1    4    4    0    0  0.86544116251E-02  0.36195284642E-01  0.82704899551E-02  0.38126888097E-01  0.51100000000E-03 0.  1.
         11    1    4    4    0    0 -0.93235258413E-02  0.89734569729E-01  0.18288152182E-01  0.92053999206E-01  0.51100000000E-03 0. -1.
</event>
<event>
 8    1  0.1199892E+005  0.1043930E+01  0.7957747E-01            NaN
         13   -1    0    0    0    0  0.00000000000E+00  0.00000000000E+00  0.74505805969E-08  0.10566000000E+00  0.10566000000E+00 0.  1.
     999900   -1    0    0    0    0 -0.00000000000E+00 -0.00000000000E+00 -0.74505805969E-08  0.93827000000E+00  0.93827000000E+00 0.  1.
     999902    2    1    2    0    0 -0.22205940612E-02 -0.23668315678E-01 -0.33304127336E-02  0.10199255868E+01  0.10196430703E+01 0.  0.
     999903    2    3    3    0    0  0.27685656918E-01  0.12272129680E+00  0.26714149117E-02  0.12731126669E+00  0.19339335069E-01 0.  0.
         14    1    1    2    0    0  0.22205940612E-02  0.23668315678E-01  0.33304127336E-02  0.24004413219E-01  0.00000000000E+00 0. -1.
     999901    1    3    3    0    0 -0.29906250979E-01 -0.14638961248E+00 -0.60018276453E-02  0.89261432009E+00  0.88000000000E+00 0.  1.
        -11    1    4    4    0    0  0.67055788507E-02  0.50616029737E-01  0.93790279221E-02  0.51915070450E-01  0.51100000000E-03 0.  1.
         11    1    4    4    0    0  0.20980078067E-01  0.72105267068E-01 -0.67076130104E-02  0.75396196243E-01  0.51100000000E-03 0. -1.
</event>
<event>
 8    1  0.1199892E+005  0.1043930E+01  0.7957747E-01            NaN
         13   -1    0    0    0    0  0.00000000000E+00  0.00000000000E+00  0.74505805969E-08  0.10566000000E+00  0.10566000000E+00 0.  1.
     999900   -1    0    0    0    0 -0.00000000000E+00 -0.00000000000E+00 -0.74505805969E-08  0.93827000000E+00  0.93827000000E+00 0.  1.
     999902    2    1    2    0    0 -0.19392955984E-01 -0.32141882666E-02 -0.14267997530E-01  0.10196402182E+01  0.10193508626E+01 0.  0.
     999903    2    3    3    0    0  0.26115177572E-01  0.73982349629E-01 -0.10264586911E+00  0.13068524525E+00  0.19674052060E-01 0.  0.
         14    1    1    2    0    0  0.19392955984E-01  0.32141882666E-02  0.14267997530E-01  0.24289781834E-01  0.00000000000E+00 0. -1.
     999901    1    3    3    0    0 -0.45508133556E-01 -0.77196537896E-01  0.88377871583E-01  0.88895497291E+00  0.88000000000E+00 0. -1.
        -11    1    4    4    0    0  0.67556498192E-02  0.10394664531E-01 -0.28627866966E-01  0.31201021509E-01  0.51100000000E-03 0.  1.
         11    1    4    4    0    0  0.19359527753E-01  0.63587685098E-01 -0.74018002147E-01  0.99484223744E-01  0.51100000000E-03 0. -1.
</event>
<event>
 8    1  0.1199892E+005  0.1043930E+01  0.7957747E-01            NaN
         13   -1    0    0    0    0  0.00000000000E+00  0.00000000000E+00  0.74505805969E-08  0.10566000000E+00  0.10566000000E+00 0. -1.
     999900   -1    0    0    0    0 -0.00000000000E+00 -0.00000000000E+00 -0.74505805969E-08  0.93827000000E+00  0.93827000000E+00 0. -1.
     999902    2    1    2    0    0  0.96278399359E-02  0.30085250023E-02  0.21720702293E-01  0.10199814002E+01  0.10197002115E+01 0.  0.
     999903    2    3    3    0    0  0.47641327852E-02  0.11025449742E+00 -0.64326463899E-01  0.12929095506E+00  0.19987644647E-01 0.  0.
         14    1    1    2    0    0 -0.96278399359E-02 -0.30085250023E-02 -0.21720702293E-01  0.23948599805E-01  0.00000000000E+00 0.  1.
     999901    1    3    3    0    0  0.48637071507E-02 -0.10724597242E+00  0.86047166193E-01  0.89069044514E+00  0.88000000000E+00 0.  1.
        -11    1    4    4    0    0  0.94799600006E-02  0.94463347987E-01 -0.59761838243E-01  0.11218258415E+00  0.51100000000E-03 0. -1.
         11    1    4    4    0    0 -0.47158272153E-02  0.15791149437E-01 -0.45646256565E-02  0.17108370912E-01  0.51100000000E-03 0.  1.
</event>
<event>
 8    1  0.1199892E+005  0.1043930E+01  0.7957747E-01            NaN
         13   -1    0    0    0    0  0.00000000000E+00  0.00000000000E+00  0.74505805969E-08  0.10566000000E+00  0.10566000000E+00 0.  1.
     999900   -1    0    0    0    0 -0.00000000000E+00 -0.00000000000E+00 -0.74505805969E-08  0.93827000000E+00  0.93827000000E+00 0. -1.
     999902    2    1    2    0    0  0.22798992689E-01  0.81297246630E-02  0.22342291544E-02  0.10196220122E+01  0.10193322174E+01 0.  0.
     999903    2    3    3    0    0  0.66250527117E-01  0.12045130621E-01 -0.11096752122E+00  0.13129887137E+00  0.19783461330E-01 0.  0.
         14    1    1    2    0    0 -0.22798992689E-01 -0.81297246630E-02 -0.22342291544E-02  0.24307987795E-01  0.00000000000E+00 0.  1.
     999901    1    3    3    0    0 -0.43451534427E-01 -0.39154059582E-02  0.11320175038E+00  0.88832314083E+00  0.88000000000E+00 0.  1.
        -11    1    4    4    0    0  0.36993417028E-01 -0.32491966028E-02 -0.56965037657E-01  0.68002550086E-01  0.51100000000E-03 0.  1.
         11    1    4    4    0    0  0.29257110089E-01  0.15294327224E-01 -0.54002483568E-01  0.63296321287E-01  0.51100000000E-03 0. -1.
</event>
<event>
 8    1  0.1199892E+005  0.1043930E+01  0.7957747E-01            NaN
         13   -1    0    0    0    0  0.00000000000E+00  0.00000000000E+00  0.74505805969E-08  0.10566000000E+00  0.10566000000E+00 0. -1.
     999900   -1    0    0    0    0 -0.00000000000E+00 -0.00000000000E+00 -0.74505805969E-08  0.93827000000E+00  0.93827000000E+00 0. -1.
     999902    2    1    2    0    0  0.21310605072E-01  0.79138308681E-02  0.19834933676E-01  0.10137605585E+01  0.10133115388E+01 0.  0.
     999903    2    3    3    0    0 -0.91717381261E-02  0.66979885157E-01  0.10554226111E+00  0.12710182030E+00  0.21101612469E-01 0.  0.
         14    1    1    2    0    0 -0.21310605072E-01 -0.79138308681E-02 -0.19834933676E-01  0.30169441517E-01  0.00000000000E+00 0.  1.
     999901    1    3    3    0    0  0.30482343198E-01 -0.59066054289E-01 -0.85707327431E-01  0.88665873818E+00  0.88000000000E+00 0.  1.
        -11    1    4    4    0    0 -0.79580134515E-02  0.55875791365E-01  0.99494941053E-01  0.11438941583E+00  0.51100000000E-03 0. -1.
         11    1    4    4    0    0 -0.12137246746E-02  0.11104093792E-01  0.60473200533E-02  0.12712404468E-01  0.51100000000E-03 0.  1.
</event>
<event>
 8    1  0.1199892E+005  0.1043930E+01  0.7957747E-01            NaN
         13   -1    0    0    0    0  0.00000000000E+00  0.00000000000E+00  0.74505805969E-08  0.10566000000E+00  0.10566000000E+00 0.  1.
     999900   -1    0    0    0    0 -0.00000000000E+00 -0.00000000000E+00 -0.74505805969E-08  0.93827000000E+00  0.93827000000E+00 0. -1.
     999902    2    1    2    0    0  0.21024028067E-01  0.13256241424E-01  0.23394738386E-02  0.10189658090E+01  0.10186599576E+01 0.  0.
     999903    2    3    3    0    0  0.29544941508E-01  0.11864366827E+00  0.44425607837E-01  0.13163815907E+00  0.20143155235E-01 0.  0.
         14    1    1    2    0    0 -0.21024028067E-01 -0.13256241424E-01 -0.23394738386E-02  0.24964190968E-01  0.00000000000E+00 0. -1.
     999901    1    3    3    0    0 -0.85209134409E-02 -0.10538742685E+00 -0.42086133998E-01  0.88732764996E+00  0.88000000000E+00 0. -1.
        -11    1    4    4    0    0  0.24189729196E-01  0.73392883161E-01  0.19513855666E-01  0.79703889374E-01  0.51100000000E-03 0.  1.
         11    1    4    4    0    0  0.53552123112E-02  0.45250785112E-01  0.24911752171E-01  0.51934269701E-01  0.51100000000E-03 0. -1.
</event>
<event>
 8    1  0.1199892E+005  0.1043930E+01  0.7957747E-01            NaN
         13   -1    0    0    0    0  0.00000000000E+00  0.00000000000E+00  0.74505805969E-08  0.10566000000E+00  0.10566000000E+00 0. -1.
     999900   -1    0    0    0    0 -0.00000000000E+00 -0.00000000000E+00 -0.74505805969E-08  0.93827000000E+00  0.93827000000E+00 0.  1.
     999902    2    1    2    0    0  0.11397991963E-01 -0.18534923305E-01 -0.13598597371E-01  0.10182710941E+01  0.10179477597E+01 0.  0.
     999903    2    3    3    0    0  0.25896816177E-01  0.64838151101E-01 -0.10799044448E+00  0.12918667388E+00  0.12354338562E-01 0.  0.
         14    1    1    2    0    0 -0.11397991963E-01  0.18534923305E-01  0.13598597371E-01  0.25658905924E-01  0.00000000000E+00 0. -1.
     999901    1    3    3    0    0 -0.14498824213E-01 -0.83373074406E-01  0.94391847113E-01  0.88908442020E+00  0.88000000000E+00 0. -1.
        -11    1    4    4    0    0  0.11338245368E-01  0.41245067924E-01 -0.72061814786E-01  0.83802611578E-01  0.51100000000E-03 0. -1.
         11    1    4    4    0    0  0.14558570808E-01  0.23593083177E-01 -0.35928629699E-01  0.45384062299E-01  0.51100000000E-03 0.  1.
</event>
<event>
 8    1  0.1199892E+005  0.1043930E+01  0.7957747E-01            NaN
         13   -1    0    0    0    0  0.00000000000E+00  0.00000000000E+00  0.74505805969E-08  0.10566000000E+00  0.10566000000E+00 0. -1.
     999900   -1    0    0    0    0 -0.00000000000E+00 -0.00000000000E+00 -0.74505805969E-08  0.93827000000E+00  0.93827000000E+00 0.  1.
     999902    2    1    2    0    0  0.55143402241E-02 -0.52148439963E-02  0.26423961927E-01  0.10164376682E+01  0.10160657975E+01 0.  0.
     999903    2    3    3    0    0 -0.81555444047E-01 -0.94449489262E-01  0.18801369980E-01  0.12761706019E+00  0.18990156991E-01 0.  0.
         14    1    1    2    0    0 -0.55143402241E-02  0.52148439963E-02 -0.26423961927E-01  0.27492331839E-01  0.00000000000E+00 0.  1.
     999901    1    3    3    0    0  0.87069784271E-01  0.89234645265E-01  0.76225919475E-02  0.88882060797E+00  0.88000000000E+00 0. -1.
        -11    1    4    4    0    0 -0.30597785192E-01 -0.45771413053E-01  0.16367237740E-02  0.55083452118E-01  0.51100000000E-03 0.  1.
         11    1    4    4    0    0 -0.50957658855E-01 -0.48678076209E-01  0.17164646206E-01  0.72533608071E-01  0.51100000000E-03 0. -1.
</event>
<event>
 8    1  0.1199892E+005  0.1043930E+01  0.7957747E-01            NaN
         13   -1    0    0    0    0  0.00000000000E+00  0.00000000000E+00  0.74505805969E-08  0.10566000000E+00  0.10566000000E+00 0. -1.
     999900   -1    0    0    0    0 -0.00000000000E+00 -0.00000000000E+00 -0.74505805969E-08  0.93827000000E+00  0.93827000000E+00 0. -1.
     999902    2    1    2    0    0  0.82125474163E-02  0.71802551129E-02 -0.18415928492E-01  0.10225255981E+01  0.10223015457E+01 0.  0.
     999903    2    3    3    0    0 -0.71608032929E-01  0.10168450408E+00 -0.44429197802E-01  0.13349293936E+00  0.19466959001E-01 0.  0.
         14    1    1    2    0    0 -0.82125474163E-02 -0.71802551129E-02  0.18415928492E-01  0.21404401902E-01  0.00000000000E+00 0. -1.
     999901    1    3    3    0    0  0.79820580345E-01 -0.94504248965E-01  0.26013269310E-01  0.88903265874E+00  0.88000000000E+00 0.  1.
        -11    1    4    4    0    0 -0.69000816443E-01  0.93038598625E-01 -0.36456206659E-01  0.12143561928E+00  0.51100000000E-03 0.  1.
         11    1    4    4    0    0 -0.26072164853E-02  0.86459054536E-02 -0.79729911426E-02  0.12057320087E-01  0.51100000000E-03 0. -1.
</event>
<event>
 8    1  0.1199892E+005  0.1043930E+01  0.7957747E-01            NaN
         13   -1    0    0    0    0  0.00000000000E+00  0.00000000000E+00  0.74505805969E-08  0.10566000000E+00  0.10566000000E+00 0.  1.
     999900   -1    0    0    0    0 -0.00000000000E+00 -0.00000000000E+00 -0.74505805969E-08  0.93827000000E+00  0.93827000000E+00 0.  1.
     999902    2    1    2    0    0 -0.16419867686E-01  0.94168422340E-02  0.14519540891E-01  0.10200740565E+01  0.10197950651E+01 0.  0.
     999903    2    3    3    0    0  0.12371584284E+00  0.83997852960E-02 -0.24735202039E-01  0.12812115045E+00  0.20664772204E-01 0.  0.
         14    1    1    2    0    0  0.16419867686E-01 -0.94168422340E-02 -0.14519540891E-01  0.23855943497E-01  0.00000000000E+00 0. -1.
     999901    1    3    3    0    0 -0.14013571053E+00  0.10170569380E-02  0.39254742929E-01  0.89195290605E+00  0.88000000000E+00 0.  1.
        -11    1    4    4    0    0  0.58511668968E-01  0.33142152398E-02 -0.22188811205E-01  0.62667406934E-01  0.51100000000E-03 0. -1.
         11    1    4    4    0    0  0.65204173873E-01  0.50855700562E-02 -0.25463908341E-02  0.65453743518E-01  0.51100000000E-03 0.  1.
</event>
<event>
 8    1  0.1199892E+005  0.1043930E+01  0.7957747E-01            NaN
         13   -1    0    0    0    0  0.00000000000E+00  0.00000000000E+00  0.74505805969E-08  0.10566000000E+00  0.10566000000E+00 0. -1.
     999900   -1    0    0    0    0 -0.00000000000E+00 -0.00000000000E+00 -0.74505805969E-08  0.93827000000E+00  0.93827000000E+00 0. -1.
     999902    2    1    2    0    0 -0.55965006780E-02  0.21751062588E-01 -0.99904482206E-02  0.10193487348E+01  0.10190523071E+01 0.  0.
     999903    2    3    3    0    0 -0.10358634753E+00  0.76897862603E-01 -0.20276175555E-01  0.13213456909E+00  0.20124820151E-01 0.  0.
         14    1    1    2    0    0  0.55965006780E-02 -0.21751062588E-01  0.99904482206E-02  0.24581265208E-01  0.00000000000E+00 0. -1.
     999901    1    3    3    0    0  0.97989846851E-01 -0.55146800014E-01  0.10285727335E-01  0.88721416570E+00  0.88000000000E+00 0.  1.
        -11    1    4    4    0    0 -0.14158419071E-01  0.20227802318E-01 -0.36726804146E-02  0.24967469227E-01  0.51100000000E-03 0.  1.
         11    1    4    4    0    0 -0.89427928458E-01  0.56670060285E-01 -0.16603495141E-01  0.10716709986E+00  0.51100000000E-03 0. -1.
</event>
<event>
 8    1  0.1199892E+005  0.1043930E+01  0.7957747E-01            NaN
         13   -1    0    0    0    0  0.00000000000E+00  0.00000000000E+00  0.74505805969E-08  0.10566000000E+00  0.10566000000E+00 0.  1.
     999900   -1    0    0    0    0 -0.00000000000E+00 -0.00000000000E+00 -0.74505805969E-08  0.93827000000E+00  0.93827000000E+00 0. -1.
     999902    2    1    2    0    0  0.14682176692E-01  0.12794399810E-02  0.13139955168E-01  0.10241850842E+01  0.10239947387E+01 0.  0.
     999903    2    3    3    0    0  0.83143265087E-01  0.11339646094E-01  0.10601035594E+00  0.13659675634E+00  0.19470186760E-01 0.  0.
         14    1    1    2    0    0 -0.14682176692E-01 -0.12794399810E-02 -0.13139955168E-01  0.19744915824E-01  0.00000000000E+00 0.  1.
     999901    1    3    3    0    0 -0.68461088395E-01 -0.10060206113E-01 -0.92870400775E-01  0.88758832784E+00  0.88000000000E+00 0. -1.
        -11    1    4    4    0    0  0.59259402673E-01  0.13615946340E-01  0.64456935567E-01  0.88611672276E-01  0.51100000000E-03 0. -1.
         11    1    4    4    0    0  0.23883862414E-01 -0.22763002466E-02  0.41553420376E-01  0.47985084064E-01  0.51100000000E-03 0.  1.
</event>
<event>
 8    1  0.1199892E+005  0.1043930E+01  0.7957747E-01            NaN
         13   -1    0    0    0    0  0.00000000000E+00  0.00000000000E+00  0.74505805969E-08  0.10566000000E+00  0.10566000000E+00 0. -1.
     999900   -1    0    0    0    0 -0.00000000000E+00 -0.00000000000E+00 -0.74505805969E-08  0.93827000000E+00  0.93827000000E+00 0.  1.
     999902    2    1    2    0    0  0.19489370997E-02  0.22749301094E-01  0.66272333611E-02  0.10201550283E+01  0.10198779498E+01 0.  0.
     999903    2    3    3    0    0  0.11943166296E+00  0.52501035575E-01 -0.48112081984E-03  0.13182069640E+00  0.18872828820E-01 0.  0.
         14    1    1    2    0    0 -0.19489370997E-02 -0.22749301094E-01 -0.66272333611E-02  0.23774971674E-01  0.00000000000E+00 0. -1.
     999901    1    3    3    0    0 -0.11748272586E+00 -0.29751734482E-01  0.71083541810E-02  0.88833433193E+00  0.88000000000E+00 0.  1.
        -11    1    4    4    0    0  0.54835398806E-01  0.19161642055E-01  0.79838581315E-02  0.58635250490E-01  0.51100000000E-03 0.  1.
         11    1    4    4    0    0  0.64596264156E-01  0.33339393521E-01 -0.84649789514E-02  0.73185445909E-01  0.51100000000E-03 0. -1.
</event>
<event>
 8    1  0.1199892E+005  0.1043930E+01  0.7957747E-01            NaN
         13   -1    0    0    0    0  0.00000000000E+00  0.00000000000E+00  0.74505805969E-08  0.10566000000E+00  0.10566000000E+00 0.  1.
     999900   -1    0    0    0    0 -0.00000000000E+00 -0.00000000000E+00 -0.74505805969E-08  0.93827000000E+00  0.93827000000E+00 0.  1.
     999902    2    1    2    0    0 -0.54213887457E-02 -0.22439808434E-01 -0.23787841326E-02  0.10207223488E+01  0.10204584844E+01 0.  0.
     999903    2    3    3    0    0 -0.67006337892E-01 -0.87555434597E-01 -0.72348531944E-01  0.13340700673E+00  0.20182069394E-01 0.  0.
         14    1    1    2    0    0  0.54213887457E-02  0.22439808434E-01  0.23787841326E-02  0.23207651162E-01  0.00000000000E+00 0. -1.
     999901    1    3    3    0    0  0.61584949146E-01  0.65115626163E-01  0.69969747812E-01  0.88731534211E+00  0.88000000000E+00 0. -1.
        -11    1    4    4    0    0 -0.45498711777E-01 -0.43189362658E-01 -0.42339994776E-01  0.75686128841E-01  0.51100000000E-03 0. -1.
         11    1    4    4    0    0 -0.21507626114E-01 -0.44366071939E-01 -0.30008537168E-01  0.57720877890E-01  0.51100000000E-03 0.  1.
</event>
<event>
 8    1  0.1199892E+005  0.1043930E+01  0.7957747E-01            NaN
         13   -1    0    0    0    0  0.00000000000E+00  0.00000000000E+00  0.74505805969E-08  0.10566000000E+00  0.10566000000E+00 0.  1.
     999900   -1    0    0    0    0 -0.00000000000E+00 -0.00000000000E+00 -0.74505805969E-08  0.93827000000E+00  0.93827000000E+00 0. -1.
     999902    2    1    2    0    0 -0.23405233420E-02  0.88169100235E-03 -0.22608445206E-01  0.10211836327E+01  0.10209302692E+01 0.  0.
     999903    2    3    3    0    0 -0.11007499665E+00 -0.59724287425E-01 -0.38297316952E-01  0.13240585284E+00  0.19522550658E-01 0.  0.
         14    1    1    2    0    0  0.23405233420E-02 -0.88169100235E-03  0.22608445206E-01  0.22746367252E-01  0.00000000000E+00 0.  1.
     999901    1    3    3    0    0  0.10773447331E+00  0.60605978427E-01  0.15688871747E-01  0.88877777991E+00  0.88000000000E+00 0. -1.
        -11    1    4    4    0    0 -0.74897443932E-01 -0.47173978930E-01 -0.33935630560E-01  0.94799259164E-01  0.51100000000E-03 0.  1.
         11    1    4    4    0    0 -0.35177552721E-01 -0.12550308495E-01 -0.43616863924E-02  0.37606593676E-01  0.51100000000E-03 0. -1.
</event>
<event>
 8    1  0.1199892E+005  0.1043930E+01  0.7957747E-01            NaN
         13   -1    0    0    0    0  0.00000000000E+00  0.00000000000E+00  0.74505805969E-08  0.10566000000E+00  0.10566000000E+00 0.  1.
     999900   -1    0    0    0    0 -0.00000000000E+00 -0.00000000000E+00 -0.74505805969E-08  0.93827000000E+00  0.93827000000E+00 0.  1.
     999902    2    1    2    0    0 -0.61619351873E-02  0.73902460626E-02  0.21842004106E-01  0.10200624839E+01  0.10197832185E+01 0.  0.
     999903    2    3    3    0    0  0.40559978380E-01 -0.11601874809E+00 -0.31410395102E-01  0.12863187241E+00  0.21309245061E-01 0.  0.
         14    1    1    2    0    0  0.61619351873E-02 -0.73902460626E-02 -0.21842004106E-01  0.23867516115E-01  0.00000000000E+00 0. -1.
     999901    1    3    3    0    0 -0.46721913568E-01  0.12340899416E+00  0.53252399208E-01  0.89143061147E+00  0.88000000000E+00 0. -1.
        -11    1    4    4    0    0  0.28140351087E-01 -0.10179592415E+00 -0.23775447508E-01  0.10825812929E+00  0.51100000000E-03 0.  1.
         11    1    4    4    0    0  0.12419627293E-01 -0.14222823943E-01 -0.76349475936E-02  0.20373743121E-01  0.51100000000E-03 0. -1.
</event>
<event>
 8    1  0.1199892E+005  0.1043930E+01  0.7957747E-01            NaN
         13   -1    0    0    0    0  0.00000000000E+00  0.00000000000E+00  0.74505805969E-08  0.10566000000E+00  0.10566000000E+00 0. -1.
     999900   -1    0    0    0    0 -0.00000000000E+00 -0.00000000000E+00 -0.74505805969E-08  0.93827000000E+00  0.93827000000E+00 0.  1.
     999902    2    1    2    0    0  0.20408975182E-02  0.11911510574E-01  0.20515755951E-01  0.10201193807E+01  0.10198414609E+01 0.  0.
     999903    2    3    3    0    0  0.49795177911E-01 -0.51019603879E-01 -0.10424739579E+00  0.12781526191E+00  0.19663721023E-01 0.  0.
         14    1    1    2    0    0 -0.20408975182E-02 -0.11911510574E-01 -0.20515755951E-01  0.23810619250E-01  0.00000000000E+00 0.  1.
     999901    1    3    3    0    0 -0.47754280393E-01  0.62931114453E-01  0.12476315175E+00  0.89230411884E+00  0.88000000000E+00 0. -1.
        -11    1    4    4    0    0  0.97081178181E-02 -0.56145817379E-02 -0.69472506779E-02  0.13202139699E-01  0.51100000000E-03 0.  1.
         11    1    4    4    0    0  0.40087060093E-01 -0.45405022141E-01 -0.97300145117E-01  0.11461312221E+00  0.51100000000E-03 0. -1.
</event>
<event>
 8    1  0.1199892E+005  0.1043930E+01  0.7957747E-01            NaN
         13   -1    0    0    0    0  0.00000000000E+00  0.00000000000E+00  0.74505805969E-08  0.10566000000E+00  0.10566000000E+00 0.  1.
     999900   -1    0    0    0    0 -0.00000000000E+00 -0.00000000000E+00 -0.74505805969E-08  0.93827000000E+00  0.93827000000E+00 0.  1.
     999902    2    1    2    0    0  0.55016294768E-04  0.14033909318E-01  0.22432543145E-01  0.10174692247E+01  0.10171250909E+01 0.  0.
     999903    2    3    3    0    0  0.11391729470E+00  0.56949181237E-01  0.23460755256E-02  0.12886931181E+00  0.19530391218E-01 0.  0.
         14    1    1    2    0    0 -0.55016294768E-04 -0.14033909318E-01 -0.22432543145E-01  0.26460775301E-01  0.00000000000E+00 0. -1.
     999901    1    3    3    0    0 -0.11386227840E+00 -0.42915271919E-01  0.20086467620E-01  0.88859991289E+00  0.88000000000E+00 0.  1.
        -11    1    4    4    0    0  0.73083634122E-01  0.27082468378E-01 -0.29640300615E-02  0.77998232448E-01  0.51100000000E-03 0. -1.
         11    1    4    4    0    0  0.40833660576E-01  0.29866712858E-01  0.53101055871E-02  0.50871079361E-01  0.51100000000E-03 0.  1.
</event>
<event>
 8    1  0.1199892E+005  0.1043930E+01  0.7957747E-01            NaN
         13   -1    0    0    0    0  0.00000000000E+00  0.00000000000E+00  0.74505805969E-08  0.10566000000E+00  0.10566000000E+00 0. -1.
     999900   -1    0    0    0    0 -0.00000000000E+00 -0.00000000000E+00 -0.74505805969E-08  0.93827000000E+00  0.93827000000E+00 0.  1.
     999902    2    1    2    0    0  0.26848865412E-03  0.92579840579E-02  0.21370157691E-01  0.10206391006E+01  0.10203733178E+01 0.  0.
     999903    2    3    3    0    0  0.18252677742E-01 -0.43509022499E-01  0.12294081304E+00  0.13304438111E+00  0.18978107185E-01 0.  0.
         14    1    1    2    0    0 -0.26848865412E-03 -0.92579840579E-02 -0.21370157691E-01  0.23290899397E-01  0.00000000000E+00 0.  1.
     999901    1    3    3    0    0 -0.17984189088E-01  0.52767006557E-01 -0.10157065535E+00  0.88759471949E+00  0.88000000000E+00 0.  1.
        -11    1    4    4    0    0  0.15040648177E-01 -0.39967106630E-01  0.12008185127E+00  0.12745000131E+00  0.51100000000E-03 0.  1.
         11    1    4    4    0    0  0.32120295649E-02 -0.35419158688E-02  0.28589617676E-02  0.55943797991E-02  0.51100000000E-03 0. -1.
</event>
<event>
 8    1  0.1199892E+005  0.1043930E+01  0.7957747E-01            NaN
         13   -1    0    0    0    0  0.00000000000E+00  0.00000000000E+00  0.74505805969E-08  0.10566000000E+00  0.10566000000E+00 0.  1.
     999900   -1    0    0    0    0 -0.00000000000E+00 -0.00000000000E+00 -0.74505805969E-08  0.93827000000E+00  0.93827000000E+00 0. -1.
     999902    2    1    2    0    0  0.17841478175E-01 -0.10235000191E-01  0.14443093587E-01  0.10187968242E+01  0.10184867660E+01 0.  0.
     999903    2    3    3    0    0 -0.10989408040E+00 -0.41510237677E-02  0.62790128856E-01  0.12824035576E+00  0.20224951385E-01 0.  0.
         14    1    1    2    0    0 -0.17841478175E-01  0.10235000191E-01 -0.14443093587E-01  0.25133175779E-01  0.00000000000E+00 0. -1.
     999901    1    3    3    0    0  0.12773555858E+00 -0.60839764230E-02 -0.48347035269E-01  0.89055646846E+00  0.88000000000E+00 0.  1.
        -11    1    4    4    0    0 -0.35507663368E-01 -0.48142324201E-02  0.30835981813E-01  0.47276737271E-01  0.51100000000E-03 0.  1.
         11    1    4    4    0    0 -0.74386417035E-01  0.66320865236E-03  0.31954147043E-01  0.80963618492E-01  0.51100000000E-03 0. -1.
</event>
<event>
 8    1  0.1199892E+005  0.1043930E+01  0.7957747E-01            NaN
         13   -1    0    0    0    0  0.00000000000E+00  0.00000000000E+00  0.74505805969E-08  0.10566000000E+00  0.10566000000E+00 0.  1.
     999900   -1    0    0    0    0 -0.00000000000E+00 -0.00000000000E+00 -0.74505805969E-08  0.93827000000E+00  0.93827000000E+00 0. -1.
     999902    2    1    2    0    0  0.63566105582E-02 -0.10702037360E-01  0.20137028876E-01  0.10202563853E+01  0.10199816918E+01 0.  0.
     999903    2    3    3    0    0 -0.53265426857E-01 -0.11842546817E+00  0.83978466834E-02  0.13160744826E+00  0.19702776398E-01 0.  0.
         14    1    1    2    0    0 -0.63566105582E-02  0.10702037360E-01 -0.20137028876E-01  0.23673614709E-01  0.00000000000E+00 0. -1.
     999901    1    3    3    0    0  0.59622037415E-01  0.10772343081E+00  0.11739182192E-01  0.88864893703E+00  0.88000000000E+00 0. -1.
        -11    1    4    4    0    0 -0.46792266250E-01 -0.10163395383E+00  0.35663264067E-03  0.11188996854E+00  0.51100000000E-03 0. -1.
         11    1    4    4    0    0 -0.64731606072E-02 -0.16791514346E-01  0.80412140427E-02  0.19717479721E-01  0.51100000000E-03 0.  1.
</event>
<event>
 8    1  0.1199892E+005  0.1043930E+01  0.7957747E-01            NaN
         13   -1    0    0    0    0  0.00000000000E+00  0.00000000000E+00  0.74505805969E-08  0.10566000000E+00  0.10566000000E+00 0.  1.
     999900   -1    0    0    0    0 -0.00000000000E+00 -0.00000000000E+00 -0.74505805969E-08  0.93827000000E+00  0.93827000000E+00 0.  1.
     999902    2    1    2    0    0  0.11481492788E-01  0.45749018780E-02  0.20196251850E-01  0.10202520991E+01  0.10199773050E+01 0.  0.
     999903    2    3    3    0    0 -0.34286502512E-01  0.12383204480E+00 -0.10648696551E-01  0.13049461167E+00  0.20137263073E-01 0.  0.
         14    1    1    2    0    0 -0.11481492788E-01 -0.45749018780E-02 -0.20196251850E-01  0.23677900934E-01  0.00000000000E+00 0. -1.
     999901    1    3    3    0    0  0.45767995300E-01 -0.11925714292E+00  0.30844948401E-01  0.88975748739E+00  0.88000000000E+00 0. -1.
        -11    1    4    4    0    0 -0.23061845747E-01  0.78763155805E-01  0.28607908646E-02  0.82121426479E-01  0.51100000000E-03 0. -1.
         11    1    4    4    0    0 -0.11224656765E-01  0.45068888993E-01 -0.13509487415E-01  0.48373185193E-01  0.51100000000E-03 0.  1.
</event>
<event>
 8    1  0.1199892E+005  0.1043930E+01  0.7957747E-01            NaN
         13   -1    0    0    0    0  0.00000000000E+00  0.00000000000E+00  0.74505805969E-08  0.10566000000E+00  0.10566000000E+00 0. -1.
     999900   -1    0    0    0    0 -0.00000000000E+00 -0.00000000000E+00 -0.74505805969E-08  0.93827000000E+00  0.93827000000E+00 0.  1.
     999902    2    1    2    0    0 -0.23884501968E-01  0.42258609080E-02  0.52265983639E-03  0.10196689096E+01  0.10193802454E+01 0.  0.
     999903    2    3    3    0    0  0.12247489518E+00 -0.84382671621E-03 -0.28364680511E-01  0.12709888248E+00  0.18675085864E-01 0.  0.
         14    1    1    2    0    0  0.23884501968E-01 -0.42258609080E-02 -0.52265983639E-03  0.24261090412E-01  0.00000000000E+00 0.  1.
     999901    1    3    3    0    0 -0.14635939715E+00  0.50696876242E-02  0.28887340348E-01  0.89257002711E+00  0.88000000000E+00 0. -1.
        -11    1    4    4    0    0  0.11202083341E+00 -0.24918493504E-02 -0.30843495353E-01  0.11621729113E+00  0.51100000000E-03 0.  1.
         11    1    4    4    0    0  0.10454061777E-01  0.16480226342E-02  0.24788148414E-02  0.10881591348E-01  0.51100000000E-03 0. -1.
</event>
<event>
 8    1  0.1199892E+005  0.1043930E+01  0.7957747E-01            NaN
         13   -1    0    0    0    0  0.00000000000E+00  0.00000000000E+00  0.74505805969E-08  0.10566000000E+00  0.10566000000E+00 0. -1.
     999900   -1    0    0    0    0 -0.00000000000E+00 -0.00000000000E+00 -0.74505805969E-08  0.93827000000E+00  0.93827000000E+00 0. -1.
     999902    2    1    2    0    0  0.14862145784E-01 -0.18709426546E-01  0.89660217367E-02  0.10184091151E+01  0.10180892938E+01 0.  0.
     999903    2    3    3    0    0  0.11582216525E+00 -0.57586035565E-01 -0.16881263954E-01  0.13140719944E+00  0.15872918337E-01 0.  0.
         14    1    1    2    0    0 -0.14862145784E-01  0.18709426546E-01 -0.89660217367E-02  0.25520884874E-01  0.00000000000E+00 0.  1.
     999901    1    3    3    0    0 -0.10096001946E+00  0.38876609019E-01  0.25847285691E-01  0.88700191569E+00  0.88000000000E+00 0.  1.
        -11    1    4    4    0    0  0.67069104244E-01 -0.41785877583E-01 -0.11900560410E-01  0.79913758319E-01  0.51100000000E-03 0.  1.
         11    1    4    4    0    0  0.48753061003E-01 -0.15800157981E-01 -0.49807035438E-02  0.51493441118E-01  0.51100000000E-03 0. -1.
</event>
<event>
 8    1  0.1199892E+005  0.1043930E+01  0.7957747E-01            NaN
         13   -1    0    0    0    0  0.00000000000E+00  0.00000000000E+00  0.74505805969E-08  0.10566000000E+00  0.10566000000E+00 0. -1.
     999900   -1    0    0    0    0 -0.00000000000E+00 -0.00000000000E+00 -0.74505805969E-08  0.93827000000E+00  0.93827000000E+00 0.  1.
     999902    2    1    2    0    0  0.11821626183E-01  0.18780064669E-01  0.36923697865E-02  0.10214338832E+01  0.10211861253E+01 0.  0.
     999903    2    3    3    0    0 -0.66250137477E-01 -0.46040738173E-01  0.10020436462E+00  0.13036065286E+00  0.21074981315E-01 0.  0.
         14    1    1    2    0    0 -0.11821626183E-01 -0.18780064669E-01 -0.36923697865E-02  0.22496116758E-01  0.00000000000E+00 0.  1.
     999901    1    3    3    0    0  0.78071763659E-01  0.64820802842E-01 -0.96511994832E-01  0.89107323038E+00  0.88000000000E+00 0.  1.
        -11    1    4    4    0    0 -0.26640883321E-01 -0.29487683673E-01  0.56680150636E-01  0.69225434268E-01  0.51100000000E-03 0. -1.
         11    1    4    4    0    0 -0.39609254155E-01 -0.16553054500E-01  0.43524213983E-01  0.61135218589E-01  0.51100000000E-03 0.  1.
</event>
<event>
 8    1  0.1199892E+005  0.1043930E+01  0.7957747E-01            NaN
         13   -1    0    0    0    0  0.00000000000E+00  0.00000000000E+00  0.74505805969E-08  0.10566000000E+00  0.10566000000E+00 0.  1.
     999900   -1    0    0    0    0 -0.00000000000E+00 -0.00000000000E+00 -0.74505805969E-08  0.93827000000E+00  0.93827000000E+00 0. -1.
     999902    2    1    2    0    0  0.20912755525E-01 -0.99872145482E-02  0.25675673904E-02  0.10206130491E+01  0.10203466645E+01 0.  0.
     999903    2    3    3    0    0  0.69998861578E-01 -0.21767308957E-01 -0.10899673890E+00  0.13213411805E+00  0.14334563206E-01 0.  0.
         14    1    1    2    0    0 -0.20912755525E-01  0.99872145482E-02 -0.25675673904E-02  0.23316950924E-01  0.00000000000E+00 0. -1.
     999901    1    3    3    0    0 -0.49086106053E-01  0.11780094409E-01  0.11156430629E+00  0.88847893102E+00  0.88000000000E+00 0.  1.
        -11    1    4    4    0    0  0.10461893571E-01 -0.86012983971E-02 -0.23339185183E-01  0.26989113309E-01  0.51100000000E-03 0. -1.
         11    1    4    4    0    0  0.59536968008E-01 -0.13166010560E-01 -0.85657553714E-01  0.10514500475E+00  0.51100000000E-03 0.  1.
</event>
<event>
 8    1  0.1199892E+005  0.1043930E+01  0.7957747E-01            NaN
         13   -1    0    0    0    0  0.00000000000E+00  0.00000000000E+00  0.74505805969E-08  0.10566000000E+00  0.10566000000E+00 0. -1.
     999900   -1    0    0    0    0 -0.00000000000E+00 -0.00000000000E+00 -0.74505805969E-08  0.93827000000E+00  0.93827000000E+00 0. -1.
     999902    2    1    2    0    0  0.87660324438E-02  0.12279633759E-01  0.19389138319E-01  0.10193623095E+01  0.10190662131E+01 0.  0.
     999903    2    3    3    0    0  0.41142661625E-01 -0.33581647208E-01 -0.11421151474E+00  0.12750994636E+00  0.19851213733E-01 0.  0.
         14    1    1    2    0    0 -0.87660324438E-02 -0.12279633759E-01 -0.19389138319E-01  0.24567690466E-01  0.00000000000E+00 0. -1.
     999901    1    3    3    0    0 -0.32376629181E-01  0.45861280967E-01  0.13360065306E+00  0.89185236318E+00  0.88000000000E+00 0.  1.
        -11    1    4    4    0    0  0.27479824701E-01 -0.13726534925E-01 -0.79667218701E-01  0.85385510382E-01  0.51100000000E-03 0. -1.
         11    1    4    4    0    0  0.13662836924E-01 -0.19855112284E-01 -0.34544296035E-01  0.42124435975E-01  0.51100000000E-03 0.  1.
</event>
<event>
 8    1  0.1199892E+005  0.1043930E+01  0.7957747E-01            NaN
         13   -1    0    0    0    0  0.00000000000E+00  0.00000000000E+00  0.74505805969E-08  0.10566000000E+00  0.10566000000E+00 0. -1.
     999900   -1    0    0    0    0 -0.00000000000E+00 -0.00000000000E+00 -0.74505805969E-08  0.93827000000E+00  0.93827000000E+00 0. -1.
     999902    2    1    2    0    0 -0.22021253428E-01  0.40856026099E-02  0.78775452672E-02  0.10201879809E+01  0.10199116790E+01 0.  0.
     999903    2    3    3    0    0 -0.61519784095E-02  0.10676761365E+00  0.73965660580E-01  0.13161436647E+00  0.20353190271E-01 0.  0.
         14    1    1    2    0    0  0.22021253428E-01 -0.40856026099E-02 -0.78775452672E-02  0.23742019094E-01  0.00000000000E+00 0.  1.
     999901    1    3    3    0    0 -0.15869275018E-01 -0.10268201104E+00 -0.66088115312E-01  0.88857361443E+00  0.88000000000E+00 0. -1.
        -11    1    4    4    0    0 -0.26960602837E-02  0.84788512819E-01  0.67582481395E-01  0.10846203741E+00  0.51100000000E-03 0. -1.
         11    1    4    4    0    0 -0.34559181258E-02  0.21979100831E-01  0.63831791851E-02  0.23152329061E-01  0.51100000000E-03 0.  1.
</event>
<event>
 8    1  0.1199892E+005  0.1043930E+01  0.7957747E-01            NaN
         13   -1    0    0    0    0  0.00000000000E+00  0.00000000000E+00  0.74505805969E-08  0.10566000000E+00  0.10566000000E+00 0.  1.
     999900   -1    0    0    0    0 -0.00000000000E+00 -0.00000000000E+00 -0.74505805969E-08  0.93827000000E+00  0.93827000000E+00 0. -1.
     999902    2    1    2    0    0 -0.93128544811E-02 -0.21377937851E-01  0.18682730563E-02  0.10205369256E+01  0.10202687786E+01 0.  0.
     999903    2    3    3    0    0  0.55256850876E-01 -0.92888540972E-01  0.73727026247E-01  0.13236650636E+00  0.20090221380E-01 0.  0.
         14    1    1    2    0    0  0.93128544811E-02  0.21377937851E-01 -0.18682730563E-02  0.23393074393E-01  0.00000000000E+00 0.  1.
     999901    1    3    3    0    0 -0.64569705357E-01  0.71510603120E-01 -0.71858753191E-01  0.88817041924E+00  0.88000000000E+00 0. -1.
        -11    1    4    4    0    0  0.39254428606E-01 -0.79892773343E-01  0.55945603760E-01  0.10513770541E+00  0.51100000000E-03 0. -1.
         11    1    4    4    0    0  0.16002422269E-01 -0.12995767629E-01  0.17781422488E-01  0.27228800955E-01  0.51100000000E-03 0.  1.
</event>
<event>
 8    1  0.1199892E+005  0.1043930E+01  0.7957747E-01            NaN
         13   -1    0    0    0    0  0.00000000000E+00  0.00000000000E+00  0.74505805969E-08  0.10566000000E+00  0.10566000000E+00 0.  1.
     999900   -1    0    0    0    0 -0.00000000000E+00 -0.00000000000E+00 -0.74505805969E-08  0.93827000000E+00  0.93827000000E+00 0.  1.
     999902    2    1    2    0    0 -0.12232265919E-01  0.17069254395E-01 -0.12196385957E-01  0.10196454451E+01  0.10193562155E+01 0.  0.
     999903    2    3    3    0    0 -0.68922232294E-01  0.86303169777E-01  0.68473282581E-01  0.13143675188E+00  0.19710862490E-01 0.  0.
         14    1    1    2    0    0  0.12232265919E-01 -0.17069254395E-01  0.12196385957E-01  0.24284554876E-01  0.00000000000E+00 0.  1.
     999901    1    3    3    0    0  0.56689966375E-01 -0.69233915382E-01 -0.80669668538E-01  0.88820869324E+00  0.88000000000E+00 0.  1.
        -11    1    4    4    0    0 -0.24465623351E-01  0.35785186650E-01  0.16415301945E-01  0.46355901119E-01  0.51100000000E-03 0. -1.
         11    1    4    4    0    0 -0.44456608942E-01  0.50517983127E-01  0.52057980636E-01  0.85080850764E-01  0.51100000000E-03 0.  1.
</event>
<event>
 8    1  0.1199892E+005  0.1043930E+01  0.7957747E-01            NaN
         13   -1    0    0    0    0  0.00000000000E+00  0.00000000000E+00  0.74505805969E-08  0.10566000000E+00  0.10566000000E+00 0. -1.
     999900   -1    0    0    0    0 -0.00000000000E+00 -0.00000000000E+00 -0.74505805969E-08  0.93827000000E+00  0.93827000000E+00 0. -1.
     999902    2    1    2    0    0 -0.44343730580E-02  0.22529886371E-01 -0.74035795951E-02  0.10198038226E+01  0.10195183982E+01 0.  0.
     999903    2    3    3    0    0 -0.12506670292E+00 -0.72306263594E-02  0.28719793255E-01  0.13034176879E+00  0.21683819572E-01 0.  0.
         14    1    1    2    0    0  0.44343730580E-02 -0.22529886371E-01  0.74035795951E-02  0.24126177383E-01  0.00000000000E+00 0.  1.
     999901    1    3    3    0    0  0.12063232986E+00  0.29760512730E-01 -0.36123372850E-01  0.88946205382E+00  0.88000000000E+00 0.  1.
        -11    1    4    4    0    0 -0.10170098961E+00 -0.12616553374E-01  0.28445376784E-01  0.10635633168E+00  0.51100000000E-03 0.  1.
         11    1    4    4    0    0 -0.23365713311E-01  0.53859270142E-02  0.27441647056E-03  0.23985437117E-01  0.51100000000E-03 0. -1.
</event>
<event>
 8    1  0.1199892E+005  0.1043930E+01  0.7957747E-01            NaN
         13   -1    0    0    0    0  0.00000000000E+00  0.00000000000E+00  0.74505805969E-08  0.10566000000E+00  0.10566000000E+00 0.  1.
     999900   -1    0    0    0    0 -0.00000000000E+00 -0.00000000000E+00 -0.74505805969E-08  0.93827000000E+00  0.93827000000E+00 0.  1.
     999902    2    1    2    0    0  0.13410920688E-01  0.16491984208E-01  0.11775794784E-01  0.10196296362E+01  0.10193400254E+01 0.  0.
     999903    2    3    3    0    0  0.70579558546E-02 -0.33888772715E-01 -0.12164937582E+00  0.12812480899E+00  0.20472722928E-01 0.  0.
         14    1    1    2    0    0 -0.13410920688E-01 -0.16491984208E-01 -0.11775794784E-01  0.24300363776E-01  0.00000000000E+00 0. -1.
     999901    1    3    3    0    0  0.63529648336E-02  0.50380756923E-01  0.13342517061E+00  0.89150482723E+00  0.88000000000E+00 0. -1.
        -11    1    4    4    0    0 -0.64675687726E-02 -0.17687668137E-01 -0.64754555726E-01  0.67439577832E-01  0.51100000000E-03 0.  1.
         11    1    4    4    0    0  0.13525524627E-01 -0.16201104578E-01 -0.56894820096E-01  0.60685231158E-01  0.51100000000E-03 0. -1.
</event>
<event>
 8    1  0.1199892E+005  0.1043930E+01  0.7957747E-01            NaN
         13   -1    0    0    0    0  0.00000000000E+00  0.00000000000E+00  0.74505805969E-08  0.10566000000E+00  0.10566000000E+00 0. -1.
     999900   -1    0    0    0    0 -0.00000000000E+00 -0.00000000000E+00 -0.74505805969E-08  0.93827000000E+00  0.93827000000E+00 0.  1.
     999902    2    1    2    0    0 -0.19757268981E-01  0.12064304433E-01 -0.32174226640E-02  0.10205580312E+01  0.10202903734E+01 0.  0.
     999903    2    3    3    0    0 -0.76151919403E-01 -0.10364993704E+00 -0.14740980805E-01  0.13111835660E+00  0.20791888955E-01 0.  0.
         14    1    1    2    0    0  0.19757268981E-01 -0.12064304433E-01  0.32174226640E-02  0.23371968844E-01  0.00000000000E+00 0. -1.
     999901    1    3    3    0    0  0.56394650422E-01  0.11571424147E+00  0.11523558141E-01  0.88943967455E+00  0.88000000000E+00 0. -1.
        -11    1    4    4    0    0 -0.28415252859E-01 -0.50240467378E-01 -0.14363804767E-01  0.59482023888E-01  0.51100000000E-03 0. -1.
         11    1    4    4    0    0 -0.47736666544E-01 -0.53409469661E-01 -0.37717603861E-03  0.71636332716E-01  0.51100000000E-03 0.  1.
</event>
<event>
 8    1  0.1199892E+005  0.1043930E+01  0.7957747E-01            NaN
         13   -1    0    0    0    0  0.00000000000E+00  0.00000000000E+00  0.74505805969E-08  0.10566000000E+00  0.10566000000E+00 0. -1.
     999900   -1    0    0    0    0 -0.00000000000E+00 -0.00000000000E+00 -0.74505805969E-08  0.93827000000E+00  0.93827000000E+00 0. -1.
     999902    2    1    2    0    0 -0.15815067728E-01  0.12035038070E-01  0.13681939502E-01  0.10198021328E+01  0.10195166678E+01 0.  0.
     999903    2    3    3    0    0  0.11863290192E+00 -0.36709280868E-01 -0.87956115356E-02  0.12797395118E+00  0.29641738816E-01 0.  0.
         14    1    1    2    0    0  0.15815067728E-01 -0.12035038070E-01 -0.13681939502E-01  0.24127867231E-01  0.00000000000E+00 0.  1.
     999901    1    3    3    0    0 -0.13444796965E+00  0.48744318938E-01  0.22477551037E-01  0.89182818159E+00  0.88000000000E+00 0.  1.
        -11    1    4    4    0    0  0.10144100384E+00 -0.41826161466E-01 -0.76016119798E-02  0.10998977529E+00  0.51100000000E-03 0.  1.
         11    1    4    4    0    0  0.17191898080E-01  0.51168805980E-02 -0.11939995558E-02  0.17984175894E-01  0.51100000000E-03 0. -1.
</event>
<event>
 8    1  0.1199892E+005  0.1043930E+01  0.7957747E-01            NaN
         13   -1    0    0    0    0  0.00000000000E+00  0.00000000000E+00  0.74505805969E-08  0.10566000000E+00  0.10566000000E+00 0. -1.
     999900   -1    0    0    0    0 -0.00000000000E+00 -0.00000000000E+00 -0.74505805969E-08  0.93827000000E+00  0.93827000000E+00 0. -1.
     999902    2    1    2    0    0  0.96703969080E-03  0.20736617731E-01  0.19394331051E-01  0.10155208015E+01  0.10151233500E+01 0.  0.
     999903    2    3    3    0    0 -0.51969175092E-01 -0.56079736949E-01  0.99195143966E-01  0.12699890258E+00  0.21054990215E-01 0.  0.
         14    1    1    2    0    0 -0.96703969080E-03 -0.20736617731E-01 -0.19394331051E-01  0.28409198469E-01  0.00000000000E+00 0.  1.
     999901    1    3    3    0    0  0.52936214783E-01  0.76816354681E-01 -0.79800812914E-01  0.88852189896E+00  0.88000000000E+00 0. -1.
        -11    1    4    4    0    0 -0.37075807664E-01 -0.31768392885E-01  0.75552656180E-01  0.89957274733E-01  0.51100000000E-03 0.  1.
         11    1    4    4    0    0 -0.14893367428E-01 -0.24311344064E-01  0.23642487785E-01  0.37041627843E-01  0.51100000000E-03 0. -1.
</event>
<event>
 8    1  0.1199892E+005  0.1043930E+01  0.7957747E-01            NaN
         13   -1    0    0    0    0  0.00000000000E+00  0.00000000000E+00  0.74505805969E-08  0.10566000000E+00  0.10566000000E+00 0. -1.
     999900   -1    0    0    0    0 -0.00000000000E+00 -0.00000000000E+00 -0.74505805969E-08  0.93827000000E+00  0.93827000000E+00 0.  1.
     999902    2    1    2    0    0  0.83682767804E-02 -0.11140562300E-01 -0.18416109030E-01  0.10208368569E+01  0.10205756196E+01 0.  0.
     999903    2    3    3    0    0 -0.43412182935E-01 -0.54800061481E-02 -0.12408547707E+00  0.13298592731E+00  0.19323642200E-01 0.  0.
         14    1    1    2    0    0 -0.83682767804E-02  0.11140562300E-01  0.18416109030E-01  0.23093143061E-01  0.00000000000E+00 0. -1.
     999901    1    3    3    0    0  0.51780459716E-01 -0.56605561523E-02  0.10566936804E+00  0.88785092963E+00  0.88000000000E+00 0. -1.
        -11    1    4    4    0    0 -0.40574659693E-01 -0.10504010535E-01 -0.11193062400E+00  0.11952139121E+00  0.51100000000E-03 0. -1.
         11    1    4    4    0    0 -0.28375232424E-02  0.50240043864E-02 -0.12154853071E-01  0.13464536100E-01  0.51100000000E-03 0.  1.
</event>
<event>
 8    1  0.1199892E+005  0.1043930E+01  0.7957747E-01            NaN
         13   -1    0    0    0    0  0.00000000000E+00  0.00000000000E+00  0.74505805969E-08  0.10566000000E+00  0.10566000000E+00 0. -1.
     999900   -1    0    0    0    0 -0.00000000000E+00 -0.00000000000E+00 -0.74505805969E-08  0.93827000000E+00  0.93827000000E+00 0. -1.
     999902    2    1    2    0    0  0.11799183215E-01  0.16506222802E-01  0.10985126550E-01  0.10208573079E+01  0.10205965383E+01 0.  0.
     999903    2    3    3    0    0  0.31777580568E-01  0.49490773349E-01  0.11846279847E+00  0.13347995474E+00  0.18008676253E-01 0.  0.
         14    1    1    2    0    0 -0.11799183215E-01 -0.16506222802E-01 -0.10985126550E-01  0.23072692107E-01  0.00000000000E+00 0. -1.
     999901    1    3    3    0    0 -0.19978397353E-01 -0.32984550547E-01 -0.10747767192E+00  0.88737735316E+00  0.88000000000E+00 0. -1.
        -11    1    4    4    0    0  0.27251089258E-01  0.39866320988E-01  0.78873534757E-01  0.92483733818E-01  0.51100000000E-03 0. -1.
         11    1    4    4    0    0  0.45264913097E-02  0.96244523610E-02  0.39589263717E-01  0.40996220917E-01  0.51100000000E-03 0.  1.
</event>
<event>
 8    1  0.1199892E+005  0.1043930E+01  0.7957747E-01            NaN
         13   -1    0    0    0    0  0.00000000000E+00  0.00000000000E+00  0.74505805969E-08  0.10566000000E+00  0.10566000000E+00 0. -1.
     999900   -1    0    0    0    0 -0.00000000000E+00 -0.00000000000E+00 -0.74505805969E-08  0.93827000000E+00  0.93827000000E+00 0. -1.
     999902    2    1    2    0    0 -0.54640253888E-02  0.11158208939E-01 -0.20057064478E-01  0.10203366315E+01  0.10200638189E+01 0.  0.
     999903    2    3    3    0    0 -0.52848475859E-01 -0.75459296461E-01 -0.92273564495E-01  0.13187554557E+00  0.19740364555E-01 0.  0.
         14    1    1    2    0    0  0.54640253888E-02 -0.11158208939E-01  0.20057064478E-01  0.23593368468E-01  0.00000000000E+00 0. -1.
     999901    1    3    3    0    0  0.47384450471E-01  0.86617505401E-01  0.72216500017E-01  0.88846108596E+00  0.88000000000E+00 0. -1.
        -11    1    4    4    0    0 -0.18177565280E-01 -0.23748377505E-01 -0.17806338124E-01  0.34810000172E-01  0.51100000000E-03 0.  1.
         11    1    4    4    0    0 -0.34670910580E-01 -0.51710918956E-01 -0.74467226371E-01  0.97065545402E-01  0.51100000000E-03 0. -1.
</event>
<event>
 8    1  0.1199892E+005  0.1043930E+01  0.7957747E-01            NaN
         13   -1    0    0    0    0  0.00000000000E+00  0.00000000000E+00  0.74505805969E-08  0.10566000000E+00  0.10566000000E+00 0.  1.
     999900   -1    0    0    0    0 -0.00000000000E+00 -0.00000000000E+00 -0.74505805969E-08  0.93827000000E+00  0.93827000000E+00 0. -1.
     999902    2    1    2    0    0 -0.65023450012E-02 -0.22754521410E-01  0.44500981719E-02  0.10198498815E+01  0.10195655588E+01 0.  0.
     999903    2    3    3    0    0  0.56972771266E-01 -0.54781266520E-01 -0.10187147946E+00  0.13060352602E+00  0.20799010895E-01 0.  0.
         14    1    1    2    0    0  0.65023450012E-02  0.22754521410E-01 -0.44500981719E-02  0.24080118539E-01  0.00000000000E+00 0. -1.
     999901    1    3    3    0    0 -0.63475116268E-01  0.32026745110E-01  0.10632157764E+00  0.88924635544E+00  0.88000000000E+00 0.  1.
        -11    1    4    4    0    0  0.83698151485E-02 -0.13648812683E-01 -0.33740279837E-01  0.37349852714E-01  0.51100000000E-03 0. -1.
         11    1    4    4    0    0  0.48602956118E-01 -0.41132453837E-01 -0.68131199627E-01  0.93253673309E-01  0.51100000000E-03 0.  1.
</event>
<event>
 8    1  0.1199892E+005  0.1043930E+01  0.7957747E-01            NaN
         13   -1    0    0    0    0  0.00000000000E+00  0.00000000000E+00  0.74505805969E-08  0.10566000000E+00  0.10566000000E+00 0.  1.
     999900   -1    0    0    0    0 -0.00000000000E+00 -0.00000000000E+00 -0.74505805969E-08  0.93827000000E+00  0.93827000000E+00 0. -1.
     999902    2    1    2    0    0 -0.14848584113E-01  0.17459622242E-01  0.63760901314E-02  0.10201398049E+01  0.10198623672E+01 0.  0.
     999903    2    3    3    0    0  0.12246558822E+00 -0.14688454136E-01 -0.28224710867E-01  0.12823964444E+00  0.20861474530E-01 0.  0.
         14    1    1    2    0    0  0.14848584113E-01 -0.17459622242E-01 -0.63760901314E-02  0.23790195130E-01  0.00000000000E+00 0.  1.
     999901    1    3    3    0    0 -0.13731417234E+00  0.32148076378E-01  0.34600800999E-01  0.89190016043E+00  0.88000000000E+00 0. -1.
        -11    1    4    4    0    0  0.48673564674E-01 -0.81669619055E-02 -0.21556650422E-01  0.53858754750E-01  0.51100000000E-03 0. -1.
         11    1    4    4    0    0  0.73792023549E-01 -0.65214922306E-02 -0.66680604458E-02  0.74380889693E-01  0.51100000000E-03 0.  1.
</event>
<event>
 8    1  0.1199892E+005  0.1043930E+01  0.7957747E-01            NaN
         13   -1    0    0    0    0  0.00000000000E+00  0.00000000000E+00  0.74505805969E-08  0.10566000000E+00  0.10566000000E+00 0. -1.
     999900   -1    0    0    0    0 -0.00000000000E+00 -0.00000000000E+00 -0.74505805969E-08  0.93827000000E+00  0.93827000000E+00 0. -1.
     999902    2    1    2    0    0 -0.23324590066E-01 -0.50915711884E-02  0.40860314941E-02  0.10197090122E+01  0.10194213129E+01 0.  0.
     999903    2    3    3    0    0 -0.25547175249E-01 -0.90053649582E-01  0.90092282097E-01  0.13144071384E+00  0.19943018691E-01 0.  0.
         14    1    1    2    0    0  0.23324590066E-01  0.50915711884E-02 -0.40860314941E-02  0.24220987847E-01  0.00000000000E+00 0.  1.
     999901    1    3    3    0    0  0.22225851833E-02  0.84962078393E-01 -0.86006250603E-01  0.88826829832E+00  0.88000000000E+00 0. -1.
        -11    1    4    4    0    0 -0.22009342170E-01 -0.74128233001E-01  0.62697094139E-01  0.99551960327E-01  0.51100000000E-03 0. -1.
         11    1    4    4    0    0 -0.35378330797E-02 -0.15925416581E-01  0.27395187958E-01  0.31888753510E-01  0.51100000000E-03 0.  1.
</event>
<event>
 8    1  0.1199892E+005  0.1043930E+01  0.7957747E-01            NaN
         13   -1    0    0    0    0  0.00000000000E+00  0.00000000000E+00  0.74505805969E-08  0.10566000000E+00  0.10566000000E+00 0.  1.
     999900   -1    0    0    0    0 -0.00000000000E+00 -0.00000000000E+00 -0.74505805969E-08  0.93827000000E+00  0.93827000000E+00 0. -1.
     999902    2    1    2    0    0  0.16112222459E-01 -0.16363877338E-01  0.36355710584E-02  0.10206792458E+01  0.10204143890E+01 0.  0.
     999903    2    3    3    0    0  0.43221032508E-02 -0.10800990280E+00 -0.73969976693E-01  0.13244469235E+00  0.19627006918E-01 0.  0.
         14    1    1    2    0    0 -0.16112222459E-01  0.16363877338E-01 -0.36355710584E-02  0.23250754204E-01  0.00000000000E+00 0. -1.
     999901    1    3    3    0    0  0.11790119209E-01  0.91646025461E-01  0.77605547751E-01  0.88823455345E+00  0.88000000000E+00 0.  1.
        -11    1    4    4    0    0  0.81182934055E-03 -0.68469564578E-01 -0.57684931035E-01  0.89535203858E-01  0.51100000000E-03 0.  1.
         11    1    4    4    0    0  0.35102739103E-02 -0.39540338221E-01 -0.16285045658E-01  0.42909488492E-01  0.51100000000E-03 0. -1.
</event>
<event>
 8    1  0.1199892E+005  0.1043930E+01  0.7957747E-01            NaN
         13   -1    0    0    0    0  0.00000000000E+00  0.00000000000E+00  0.74505805969E-08  0.10566000000E+00  0.10566000000E+00 0.  1.
     999900   -1    0    0    0    0 -0.00000000000E+00 -0.00000000000E+00 -0.74505805969E-08  0.93827000000E+00  0.93827000000E+00 0. -1.
     999902    2    1    2    0    0 -0.14582722003E-01  0.54653548504E-02  0.22073422268E-01  0.10169158953E+01  0.10165570206E+01 0.  0.
     999903    2    3    3    0    0  0.93572589646E-01  0.54379759324E-01  0.64904677294E-01  0.12791381044E+00  0.20888705280E-01 0.  0.
         14    1    1    2    0    0  0.14582722003E-01 -0.54653548504E-02 -0.22073422268E-01  0.27014104747E-01  0.00000000000E+00 0. -1.
     999901    1    3    3    0    0 -0.10815531165E+00 -0.48914404473E-01 -0.42831255026E-01  0.88900208482E+00  0.88000000000E+00 0. -1.
        -11    1    4    4    0    0  0.29504960948E-01  0.28510918931E-01  0.26782938487E-01  0.49000021773E-01  0.51100000000E-03 0. -1.
         11    1    4    4    0    0  0.64067628698E-01  0.25868840393E-01  0.38121738808E-01  0.78913788662E-01  0.51100000000E-03 0.  1.
</event>
<event>
 8    1  0.1199892E+005  0.1043930E+01  0.7957747E-01            NaN
         13   -1    0    0    0    0  0.00000000000E+00  0.00000000000E+00  0.74505805969E-08  0.10566000000E+00  0.10566000000E+00 0. -1.
     999900   -1    0    0    0    0 -0.00000000000E+00 -0.00000000000E+00 -0.74505805969E-08  0.93827000000E+00  0.93827000000E+00 0. -1.
     999902    2    1    2    0    0  0.12850325456E-01  0.19421108365E-01 -0.72518726830E-02  0.10195394286E+01  0.10192476375E+01 0.  0.
     999903    2    3    3    0    0  0.40679403426E-01  0.11633043442E+00 -0.46070698511E-01  0.13293197530E+00  0.18995182551E-01 0.  0.
         14    1    1    2    0    0 -0.12850325456E-01 -0.19421108365E-01  0.72518726830E-02  0.24390571372E-01  0.00000000000E+00 0. -1.
     999901    1    3    3    0    0 -0.27829077970E-01 -0.96909326057E-01  0.38818825828E-01  0.88660745333E+00  0.88000000000E+00 0. -1.
        -11    1    4    4    0    0  0.36742165183E-01  0.91726491276E-01 -0.29956651615E-01  0.10325404593E+00  0.51100000000E-03 0. -1.
         11    1    4    4    0    0  0.39372382432E-02  0.24603943146E-01 -0.16114046896E-01  0.29677929370E-01  0.51100000000E-03 0.  1.
</event>
<event>
 8    1  0.1199892E+005  0.1043930E+01  0.7957747E-01            NaN
         13   -1    0    0    0    0  0.00000000000E+00  0.00000000000E+00  0.74505805969E-08  0.10566000000E+00  0.10566000000E+00 0. -1.
     999900   -1    0    0    0    0 -0.00000000000E+00 -0.00000000000E+00 -0.74505805969E-08  0.93827000000E+00  0.93827000000E+00 0. -1.
     999902    2    1    2    0    0 -0.19979265604E-01  0.91466018952E-02 -0.88686994896E-02  0.10202343208E+01  0.10199591091E+01 0.  0.
     999903    2    3    3    0    0 -0.51880735715E-01 -0.11159111933E+00 -0.40090598954E-01  0.13086931808E+00  0.19373529324E-01 0.  0.
         14    1    1    2    0    0  0.19979265604E-01 -0.91466018952E-02  0.88686994896E-02  0.23695679162E-01  0.00000000000E+00 0. -1.
     999901    1    3    3    0    0  0.31901470111E-01  0.12073772123E+00  0.31221899465E-01  0.88936500276E+00  0.88000000000E+00 0. -1.
        -11    1    4    4    0    0 -0.39898917807E-01 -0.63360972050E-01 -0.24119855174E-01  0.78667432626E-01  0.51100000000E-03 0. -1.
         11    1    4    4    0    0 -0.11981817908E-01 -0.48230147282E-01 -0.15970743780E-01  0.52201885456E-01  0.51100000000E-03 0.  1.
</event>
<event>
 8    1  0.1199892E+005  0.1043930E+01  0.7957747E-01            NaN
         13   -1    0    0    0    0  0.00000000000E+00  0.00000000000E+00  0.74505805969E-08  0.10566000000E+00  0.10566000000E+00 0. -1.
     999900   -1    0    0    0    0 -0.00000000000E+00 -0.00000000000E+00 -0.74505805969E-08  0.93827000000E+00  0.93827000000E+00 0.  1.
     999902    2    1    2    0    0 -0.68933530468E-02  0.14279516185E-01 -0.21628722826E-01  0.10171116378E+01  0.10167580141E+01 0.  0.
     999903    2    3    3    0    0  0.69490804306E-01 -0.10039631521E+00 -0.26798381500E-01  0.12637497013E+00  0.18549604683E-01 0.  0.
         14    1    1    2    0    0  0.68933530468E-02 -0.14279516185E-01  0.21628722826E-01  0.26818362176E-01  0.00000000000E+00 0. -1.
     999901    1    3    3    0    0 -0.76384157352E-01  0.11467583140E+00  0.51696586746E-02  0.89073666769E+00  0.88000000000E+00 0. -1.
        -11    1    4    4    0    0  0.11346476972E-01 -0.20188084995E-01 -0.12377274865E-01  0.26263270351E-01  0.51100000000E-03 0.  1.
         11    1    4    4    0    0  0.58144327334E-01 -0.80208230216E-01 -0.14421106635E-01  0.10011169978E+00  0.51100000000E-03 0. -1.
</event>
<event>
 8    1  0.1199892E+005  0.1043930E+01  0.7957747E-01            NaN
         13   -1    0    0    0    0  0.00000000000E+00  0.00000000000E+00  0.74505805969E-08  0.10566000000E+00  0.10566000000E+00 0. -1.
     999900   -1    0    0    0    0 -0.00000000000E+00 -0.00000000000E+00 -0.74505805969E-08  0.93827000000E+00  0.93827000000E+00 0.  1.
     999902    2    1    2    0    0 -0.19961602815E-01 -0.80832508894E-02  0.56683797765E-02  0.10216604005E+01  0.10214176614E+01 0.  0.
     999903    2    3    3    0    0 -0.36886029732E-01 -0.10435602390E+00  0.72019347787E-01  0.13376551146E+00  0.21346350710E-01 0.  0.
         14    1    1    2    0    0  0.19961602815E-01  0.80832508894E-02 -0.56683797765E-02  0.22269599484E-01  0.00000000000E+00 0.  1.
     999901    1    3    3    0    0  0.16924426918E-01  0.96272773007E-01 -0.66350968011E-01  0.88789488905E+00  0.88000000000E+00 0.  1.
        -11    1    4    4    0    0 -0.20469937899E-01 -0.28403862323E-01  0.22379869516E-01  0.41556196084E-01  0.51100000000E-03 0. -1.
         11    1    4    4    0    0 -0.16416091834E-01 -0.75952161574E-01  0.49639478272E-01  0.92209315380E-01  0.51100000000E-03 0.  1.
</event>
<event>
 8    1  0.1199892E+005  0.1043930E+01  0.7957747E-01            NaN
         13   -1    0    0    0    0  0.00000000000E+00  0.00000000000E+00  0.74505805969E-08  0.10566000000E+00  0.10566000000E+00 0.  1.
     999900   -1    0    0    0    0 -0.00000000000E+00 -0.00000000000E+00 -0.74505805969E-08  0.93827000000E+00  0.93827000000E+00 0. -1.
     999902    2    1    2    0    0  0.26724797967E-02  0.13623615485E-01 -0.17926316111E-01  0.10212562739E+01  0.10210045441E+01 0.  0.
     999903    2    3    3    0    0  0.69580383813E-01  0.51590715700E-02  0.10752524117E+00  0.12980441912E+00  0.20480817938E-01 0.  0.
         14    1    1    2    0    0 -0.26724797967E-02 -0.13623615485E-01  0.17926316111E-01  0.22673726127E-01  0.00000000000E+00 0.  1.
     999901    1    3    3    0    0 -0.66907904016E-01  0.84645439146E-02 -0.12545155728E+00  0.89145185476E+00  0.88000000000E+00 0. -1.
        -11    1    4    4    0    0  0.25584342091E-01 -0.20892776635E-02  0.56372466436E-01  0.61943843394E-01  0.51100000000E-03 0.  1.
         11    1    4    4    0    0  0.43996041722E-01  0.72483492335E-02  0.51152774731E-01  0.67860575724E-01  0.51100000000E-03 0. -1.
</event>
<event>
 8    1  0.1199892E+005  0.1043930E+01  0.7957747E-01            NaN
         13   -1    0    0    0    0  0.00000000000E+00  0.00000000000E+00  0.74505805969E-08  0.10566000000E+00  0.10566000000E+00 0.  1.
     999900   -1    0    0    0    0 -0.00000000000E+00 -0.00000000000E+00 -0.74505805969E-08  0.93827000000E+00  0.93827000000E+00 0. -1.
     999902    2    1    2    0    0 -0.58625316559E-02 -0.60797185304E-02 -0.22943070948E-01  0.10194817535E+01  0.10191885639E+01 0.  0.
     999903    2    3    3    0    0  0.20731023995E-01  0.23454391753E-01 -0.12698501279E+00  0.13246190782E+00  0.21001897598E-01 0.  0.
         14    1    1    2    0    0  0.58625316559E-02  0.60797185304E-02  0.22943070948E-01  0.24448246549E-01  0.00000000000E+00 0.  1.
     999901    1    3    3    0    0 -0.26593555651E-01 -0.29534110284E-01  0.10404194184E+00  0.88701984563E+00  0.88000000000E+00 0.  1.
        -11    1    4    4    0    0  0.49630797003E-03  0.14709035933E-01 -0.37194168791E-01  0.40003367017E-01  0.51100000000E-03 0.  1.
         11    1    4    4    0    0  0.20234716025E-01  0.87453558204E-02 -0.89790844000E-01  0.92458540807E-01  0.51100000000E-03 0. -1.
</event>
<event>
 8    1  0.1199892E+005  0.1043930E+01  0.7957747E-01            NaN
         13   -1    0    0    0    0  0.00000000000E+00  0.00000000000E+00  0.74505805969E-08  0.10566000000E+00  0.10566000000E+00 0. -1.
     999900   -1    0    0    0    0 -0.00000000000E+00 -0.00000000000E+00 -0.74505805969E-08  0.93827000000E+00  0.93827000000E+00 0.  1.
     999902    2    1    2    0    0  0.94261645097E-02 -0.21209820239E-01 -0.53312839205E-02  0.10201154742E+01  0.10198374621E+01 0.  0.
     999903    2    3    3    0    0 -0.10466904999E+00  0.58764879259E-02 -0.73682017447E-01  0.12970926978E+00  0.20132357889E-01 0.  0.
         14    1    1    2    0    0 -0.94261645097E-02  0.21209820239E-01  0.53312839205E-02  0.23814525823E-01  0.00000000000E+00 0.  1.
     999901    1    3    3    0    0  0.11409521450E+00 -0.27086308165E-01  0.68350733527E-01  0.89040620440E+00  0.88000000000E+00 0. -1.
        -11    1    4    4    0    0 -0.97278130707E-01  0.63714000295E-02 -0.60958000116E-01  0.11497725145E+00  0.51100000000E-03 0.  1.
         11    1    4    4    0    0 -0.73909192850E-02 -0.49491210367E-03 -0.12724017331E-01  0.14732018325E-01  0.51100000000E-03 0. -1.
</event>
<event>
 8    1  0.1199892E+005  0.1043930E+01  0.7957747E-01            NaN
         13   -1    0    0    0    0  0.00000000000E+00  0.00000000000E+00  0.74505805969E-08  0.10566000000E+00  0.10566000000E+00 0. -1.
     999900   -1    0    0    0    0 -0.00000000000E+00 -0.00000000000E+00 -0.74505805969E-08  0.93827000000E+00  0.93827000000E+00 0. -1.
     999902    2    1    2    0    0  0.94569943929E-02  0.10660998041E-02 -0.17431139517E-01  0.10240700922E+01  0.10238775014E+01 0.  0.
     999903    2    3    3    0    0  0.63466659451E-01  0.11254310114E+00  0.29469848797E-01  0.13415781091E+00  0.20877733688E-01 0.  0.
         14    1    1    2    0    0 -0.94569943929E-02 -0.10660998041E-02  0.17431139517E-01  0.19859907769E-01  0.00000000000E+00 0. -1.
     999901    1    3    3    0    0 -0.54009665058E-01 -0.11147700133E+00 -0.46900988314E-01  0.88991228132E+00  0.88000000000E+00 0. -1.
        -11    1    4    4    0    0  0.28034800687E-01  0.48161282915E-01  0.22014042768E-02  0.55772453087E-01  0.51100000000E-03 0. -1.
         11    1    4    4    0    0  0.35431858764E-01  0.64381818222E-01  0.27268444520E-01  0.78385357820E-01  0.51100000000E-03 0.  1.
</event>
<event>
 8    1  0.1199892E+005  0.1043930E+01  0.7957747E-01            NaN
         13   -1    0    0    0    0  0.00000000000E+00  0.00000000000E+00  0.74505805969E-08  0.10566000000E+00  0.10566000000E+00 0.  1.
     999900   -1    0    0    0    0 -0.00000000000E+00 -0.00000000000E+00 -0.74505805969E-08  0.93827000000E+00  0.93827000000E+00 0. -1.
     999902    2    1    2    0    0 -0.13057454614E-01 -0.16324146686E-01 -0.11676915280E-01  0.10199857891E+01  0.10197047047E+01 0.  0.
     999903    2    3    3    0    0  0.87145767775E-01  0.26189437554E-01  0.87189507708E-01  0.12778476901E+00  0.21134461341E-01 0.  0.
         14    1    1    2    0    0  0.13057454614E-01  0.16324146686E-01  0.11676915280E-01  0.23944210918E-01  0.00000000000E+00 0.  1.
     999901    1    3    3    0    0 -0.10020322239E+00 -0.42513584241E-01 -0.98866422988E-01  0.89220102007E+00  0.88000000000E+00 0. -1.
        -11    1    4    4    0    0  0.59354039323E-01  0.26843651484E-01  0.55065269346E-01  0.85299054028E-01  0.51100000000E-03 0. -1.
         11    1    4    4    0    0  0.27791728452E-01 -0.65421392957E-03  0.32124238363E-01  0.42485714983E-01  0.51100000000E-03 0.  1.
</event>
<event>
 8    1  0.1199892E+005  0.1043930E+01  0.7957747E-01            NaN
         13   -1    0    0    0    0  0.00000000000E+00  0.00000000000E+00  0.74505805969E-08  0.10566000000E+00  0.10566000000E+00 0.  1.
     999900   -1    0    0    0    0 -0.00000000000E+00 -0.00000000000E+00 -0.74505805969E-08  0.93827000000E+00  0.93827000000E+00 0.  1.
     999902    2    1    2    0    0 -0.62473174956E-02 -0.13771583723E-01 -0.15490173354E-01  0.10222821141E+01  0.10220528801E+01 0.  0.
     999903    2    3    3    0    0 -0.48687557002E-01 -0.45372983806E-01 -0.11536058299E+00  0.13505389027E+00  0.22412123987E-01 0.  0.
         14    1    1    2    0    0  0.62473174956E-02  0.13771583723E-01  0.15490173354E-01  0.21647885917E-01  0.00000000000E+00 0.  1.
     999901    1    3    3    0    0  0.42440239507E-01  0.31601400083E-01  0.99870409637E-01  0.88722822382E+00  0.88000000000E+00 0. -1.
        -11    1    4    4    0    0 -0.36136338331E-01 -0.18592250928E-01 -0.66239575342E-01  0.77713893257E-01  0.51100000000E-03 0. -1.
         11    1    4    4    0    0 -0.12551218671E-01 -0.26780732878E-01 -0.49121007649E-01  0.57339997009E-01  0.51100000000E-03 0.  1.
</event>
<event>
 8    1  0.1199892E+005  0.1043930E+01  0.7957747E-01            NaN
         13   -1    0    0    0    0  0.00000000000E+00  0.00000000000E+00  0.74505805969E-08  0.10566000000E+00  0.10566000000E+00 0. -1.
     999900   -1    0    0    0    0 -0.00000000000E+00 -0.00000000000E+00 -0.74505805969E-08  0.93827000000E+00  0.93827000000E+00 0. -1.
     999902    2    1    2    0    0  0.17158329052E-01 -0.15037009637E-01 -0.34890850735E-02  0.10208498434E+01  0.10205889031E+01 0.  0.
     999903    2    3    3    0    0  0.33426039471E-01 -0.20722853552E-01  0.12385962521E+00  0.13151601336E+00  0.20211834142E-01 0.  0.
         14    1    1    2    0    0 -0.17158329052E-01  0.15037009637E-01  0.34890850735E-02  0.23080156614E-01  0.00000000000E+00 0. -1.
     999901    1    3    3    0    0 -0.16267710419E-01  0.56858439156E-02 -0.12734871028E+00  0.88933383003E+00  0.88000000000E+00 0. -1.
        -11    1    4    4    0    0  0.27507845393E-01 -0.91885159380E-02  0.63998849976E-01  0.70265384811E-01  0.51100000000E-03 0.  1.
         11    1    4    4    0    0  0.59181940779E-02 -0.11534337614E-01  0.59860775229E-01  0.61250628547E-01  0.51100000000E-03 0. -1.
</event>
<event>
 8    1  0.1199892E+005  0.1043930E+01  0.7957747E-01            NaN
         13   -1    0    0    0    0  0.00000000000E+00  0.00000000000E+00  0.74505805969E-08  0.10566000000E+00  0.10566000000E+00 0.  1.
     999900   -1    0    0    0    0 -0.00000000000E+00 -0.00000000000E+00 -0.74505805969E-08  0.93827000000E+00  0.93827000000E+00 0. -1.
     999902    2    1    2    0    0  0.14190566069E-01 -0.58481856728E-02 -0.17078771973E-01  0.10209679031E+01  0.10207096557E+01 0.  0.
     999903    2    3    3    0    0 -0.62596860766E-01  0.74453035798E-01  0.81595920684E-01  0.12850989847E+00  0.19881604960E-01 0.  0.
         14    1    1    2    0    0 -0.14190566069E-01  0.58481856728E-02  0.17078771973E-01  0.22962096880E-01  0.00000000000E+00 0.  1.
     999901    1    3    3    0    0  0.76787426834E-01 -0.80301221470E-01 -0.98674692657E-01  0.89245800465E+00  0.88000000000E+00 0. -1.
        -11    1    4    4    0    0 -0.30944601507E-01  0.21972847714E-01  0.32931646083E-01  0.50250660034E-01  0.51100000000E-03 0. -1.
         11    1    4    4    0    0 -0.31652259259E-01  0.52480188084E-01  0.48664274601E-01  0.78259238439E-01  0.51100000000E-03 0.  1.
</event>
<event>
 8    1  0.1199892E+005  0.1043930E+01  0.7957747E-01            NaN
         13   -1    0    0    0    0  0.00000000000E+00  0.00000000000E+00  0.74505805969E-08  0.10566000000E+00  0.10566000000E+00 0.  1.
     999900   -1    0    0    0    0 -0.00000000000E+00 -0.00000000000E+00 -0.74505805969E-08  0.93827000000E+00  0.93827000000E+00 0. -1.
     999902    2    1    2    0    0 -0.58507311476E-02 -0.22143339311E-01  0.70488912594E-02  0.10199665821E+01  0.10196850412E+01 0.  0.
     999903    2    3    3    0    0 -0.72498313225E-02  0.27363235435E-02 -0.12767400860E+00  0.12936497931E+00  0.19354531227E-01 0.  0.
         14    1    1    2    0    0  0.58507311476E-02  0.22143339311E-01 -0.70488912594E-02  0.23963417928E-01  0.00000000000E+00 0. -1.
     999901    1    3    3    0    0  0.13991001750E-02 -0.24879662854E-01  0.13472289986E+00  0.89060160277E+00  0.88000000000E+00 0.  1.
        -11    1    4    4    0    0  0.58899406289E-02  0.14995166395E-02 -0.66624145769E-01  0.66902749354E-01  0.51100000000E-03 0. -1.
         11    1    4    4    0    0 -0.13139771951E-01  0.12368069039E-02 -0.61049862827E-01  0.62462229951E-01  0.51100000000E-03 0.  1.
</event>
<event>
 8    1  0.1199892E+005  0.1043930E+01  0.7957747E-01            NaN
         13   -1    0    0    0    0  0.00000000000E+00  0.00000000000E+00  0.74505805969E-08  0.10566000000E+00  0.10566000000E+00 0. -1.
     999900   -1    0    0    0    0 -0.00000000000E+00 -0.00000000000E+00 -0.74505805969E-08  0.93827000000E+00  0.93827000000E+00 0. -1.
     999902    2    1    2    0    0  0.12122388238E-01 -0.18697587847E-01  0.14455728683E-01  0.10173683702E+01  0.10170215732E+01 0.  0.
     999903    2    3    3    0    0 -0.21180102733E-01 -0.78389635735E-01  0.10041527505E+00  0.13054187073E+00  0.19089808995E-01 0.  0.
         14    1    1    2    0    0 -0.12122388238E-01  0.18697587847E-01 -0.14455728683E-01  0.26561629838E-01  0.00000000000E+00 0.  1.
     999901    1    3    3    0    0  0.33302490971E-01  0.59692047888E-01 -0.85959546366E-01  0.88682649943E+00  0.88000000000E+00 0. -1.
        -11    1    4    4    0    0 -0.97709418187E-02 -0.19795582045E-01  0.16529213826E-01  0.27582828050E-01  0.51100000000E-03 0.  1.
         11    1    4    4    0    0 -0.11409160914E-01 -0.58594053690E-01  0.83886061224E-01  0.10295904268E+00  0.51100000000E-03 0. -1.
</event>
<event>
 8    1  0.1199892E+005  0.1043930E+01  0.7957747E-01            NaN
         13   -1    0    0    0    0  0.00000000000E+00  0.00000000000E+00  0.74505805969E-08  0.10566000000E+00  0.10566000000E+00 0. -1.
     999900   -1    0    0    0    0 -0.00000000000E+00 -0.00000000000E+00 -0.74505805969E-08  0.93827000000E+00  0.93827000000E+00 0. -1.
     999902    2    1    2    0    0  0.18138047038E-01  0.32539598968E-02 -0.11027143672E-01  0.10224550168E+01  0.10222294686E+01 0.  0.
     999903    2    3    3    0    0 -0.70200263610E-01 -0.63559745608E-01 -0.89529482812E-01  0.13204480482E+00  0.21269318613E-01 0.  0.
         14    1    1    2    0    0 -0.18138047038E-01 -0.32539598968E-02  0.11027143672E-01  0.21474983188E-01  0.00000000000E+00 0. -1.
     999901    1    3    3    0    0  0.88338310648E-01  0.66813705505E-01  0.78502339140E-01  0.89041021199E+00  0.88000000000E+00 0.  1.
        -11    1    4    4    0    0 -0.32901601682E-01 -0.40910941617E-01 -0.39800432079E-01  0.65882896505E-01  0.51100000000E-03 0.  1.
         11    1    4    4    0    0 -0.37298661928E-01 -0.22648803991E-01 -0.49729050733E-01  0.66161908313E-01  0.51100000000E-03 0. -1.
</event>
<event>
 8    1  0.1199892E+005  0.1043930E+01  0.7957747E-01            NaN
         13   -1    0    0    0    0  0.00000000000E+00  0.00000000000E+00  0.74505805969E-08  0.10566000000E+00  0.10566000000E+00 0.  1.
     999900   -1    0    0    0    0 -0.00000000000E+00 -0.00000000000E+00 -0.74505805969E-08  0.93827000000E+00  0.93827000000E+00 0.  1.
     999902    2    1    2    0    0  0.13259801687E-01  0.28490991848E-02  0.18733897324E-01  0.10208021247E+01  0.10205400919E+01 0.  0.
     999903    2    3    3    0    0  0.10565169670E+00  0.58332854131E-01  0.53567966946E-01  0.13354335651E+00  0.19982444774E-01 0.  0.
         14    1    1    2    0    0 -0.13259801687E-01 -0.28490991848E-02 -0.18733897324E-01  0.23127875299E-01  0.00000000000E+00 0. -1.
     999901    1    3    3    0    0 -0.92391895010E-01 -0.55483754946E-01 -0.34834069623E-01  0.88725876819E+00  0.88000000000E+00 0.  1.
        -11    1    4    4    0    0  0.75218988694E-01  0.34684896405E-01  0.28654011598E-01  0.87648455779E-01  0.51100000000E-03 0.  1.
         11    1    4    4    0    0  0.30432708002E-01  0.23647957725E-01  0.24913955348E-01  0.45894900730E-01  0.51100000000E-03 0. -1.
</event>
<event>
 8    1  0.1199892E+005  0.1043930E+01  0.7957747E-01            NaN
         13   -1    0    0    0    0  0.00000000000E+00  0.00000000000E+00  0.74505805969E-08  0.10566000000E+00  0.10566000000E+00 0. -1.
     999900   -1    0    0    0    0 -0.00000000000E+00 -0.00000000000E+00 -0.74505805969E-08  0.93827000000E+00  0.93827000000E+00 0. -1.
     999902    2    1    2    0    0  0.43744583868E-02 -0.15368163449E-01  0.17879983101E-01  0.10199506312E+01  0.10196687109E+01 0.  0.
     999903    2    3    3    0    0  0.10535437757E+00 -0.59258293702E-01  0.50365961921E-01  0.13249436383E+00  0.20172656780E-01 0.  0.
         14    1    1    2    0    0 -0.43744583868E-02  0.15368163449E-01 -0.17879983101E-01  0.23979368833E-01  0.00000000000E+00 0.  1.
     999901    1    3    3    0    0 -0.10097991918E+00  0.43890130253E-01 -0.32485978820E-01  0.88745626733E+00  0.88000000000E+00 0. -1.
        -11    1    4    4    0    0  0.57978198656E-01 -0.21086460198E-01  0.26179180692E-01  0.67020302490E-01  0.51100000000E-03 0. -1.
         11    1    4    4    0    0  0.47376178913E-01 -0.38171833504E-01  0.24186781229E-01  0.65474061342E-01  0.51100000000E-03 0.  1.
</event>
<event>
 8    1  0.1199892E+005  0.1043930E+01  0.7957747E-01            NaN
         13   -1    0    0    0    0  0.00000000000E+00  0.00000000000E+00  0.74505805969E-08  0.10566000000E+00  0.10566000000E+00 0. -1.
     999900   -1    0    0    0    0 -0.00000000000E+00 -0.00000000000E+00 -0.74505805969E-08  0.93827000000E+00  0.93827000000E+00 0. -1.
     999902    2    1    2    0    0  0.12186668034E-01  0.11114603555E-01  0.18032441475E-01  0.10194919511E+01  0.10191990091E+01 0.  0.
     999903    2    3    3    0    0  0.31494833155E-01  0.12263015447E+00  0.32163923779E-01  0.13213169608E+00  0.19854163704E-01 0.  0.
         14    1    1    2    0    0 -0.12186668034E-01 -0.11114603555E-01 -0.18032441475E-01  0.24438048930E-01  0.00000000000E+00 0. -1.
     999901    1    3    3    0    0 -0.19308165121E-01 -0.11151555092E+00 -0.14131482304E-01  0.88736025499E+00  0.88000000000E+00 0. -1.
        -11    1    4    4    0    0  0.15786611051E-01  0.45672994596E-01  0.21395410986E-01  0.52851341100E-01  0.51100000000E-03 0. -1.
         11    1    4    4    0    0  0.15708222104E-01  0.76957159875E-01  0.10768512792E-01  0.79280354984E-01  0.51100000000E-03 0.  1.
</event>
<event>
 8    1  0.1199892E+005  0.1043930E+01  0.7957747E-01            NaN
         13   -1    0    0    0    0  0.00000000000E+00  0.00000000000E+00  0.74505805969E-08  0.10566000000E+00  0.10566000000E+00 0. -1.
     999900   -1    0    0    0    0 -0.00000000000E+00 -0.00000000000E+00 -0.74505805969E-08  0.93827000000E+00  0.93827000000E+00 0. -1.
     999902    2    1    2    0    0 -0.18727832252E-02 -0.13184800826E-01  0.19121690647E-01  0.10206279541E+01  0.10203619139E+01 0.  0.
     999903    2    3    3    0    0  0.13692547955E-01 -0.79058827885E-01 -0.10052028645E+00  0.12995637060E+00  0.18615749640E-01 0.  0.
         14    1    1    2    0    0  0.18727832252E-02  0.13184800826E-01 -0.19121690647E-01  0.23302045898E-01  0.00000000000E+00 0.  1.
     999901    1    3    3    0    0 -0.15565331180E-01  0.65874027059E-01  0.11964197710E+00  0.89067158350E+00  0.88000000000E+00 0.  1.
        -11    1    4    4    0    0 -0.14831985687E-02 -0.28106107734E-01 -0.45043148564E-01  0.53115906502E-01  0.51100000000E-03 0.  1.
         11    1    4    4    0    0  0.15175746523E-01 -0.50952720151E-01 -0.55477137888E-01  0.76840464097E-01  0.51100000000E-03 0. -1.
</event>
<event>
 8    1  0.1199892E+005  0.1043930E+01  0.7957747E-01            NaN
         13   -1    0    0    0    0  0.00000000000E+00  0.00000000000E+00  0.74505805969E-08  0.10566000000E+00  0.10566000000E+00 0.  1.
     999900   -1    0    0    0    0 -0.00000000000E+00 -0.00000000000E+00 -0.74505805969E-08  0.93827000000E+00  0.93827000000E+00 0.  1.
     999902    2    1    2    0    0 -0.63661934698E-02 -0.21334769250E-01 -0.83506370611E-02  0.10201511452E+01  0.10198739751E+01 0.  0.
     999903    2    3    3    0    0 -0.79171213152E-01  0.64931569879E-01  0.75735383785E-01  0.12896490701E+00  0.20295544463E-01 0.  0.
         14    1    1    2    0    0  0.63661934698E-02  0.21334769250E-01  0.83506370611E-02  0.23778854841E-01  0.00000000000E+00 0. -1.
     999901    1    3    3    0    0  0.72805019683E-01 -0.86266339129E-01 -0.84086020846E-01  0.89118623815E+00  0.88000000000E+00 0.  1.
        -11    1    4    4    0    0 -0.15108904198E-01  0.16005212457E-01  0.26721997753E-01  0.34623288359E-01  0.51100000000E-03 0. -1.
         11    1    4    4    0    0 -0.64062308954E-01  0.48926357422E-01  0.49013386032E-01  0.94341618655E-01  0.51100000000E-03 0.  1.
</event>
<event>
 8    1  0.1199892E+005  0.1043930E+01  0.7957747E-01            NaN
         13   -1    0    0    0    0  0.00000000000E+00  0.00000000000E+00  0.74505805969E-08  0.10566000000E+00  0.10566000000E+00 0. -1.
     999900   -1    0    0    0    0 -0.00000000000E+00 -0.00000000000E+00 -0.74505805969E-08  0.93827000000E+00  0.93827000000E+00 0.  1.
     999902    2    1    2    0    0 -0.95949792834E-02  0.73828811680E-02 -0.22028984870E-01  0.10187934383E+01  0.10184832954E+01 0.  0.
     999903    2    3    3    0    0  0.72798455953E-01  0.10438354780E+00  0.16447820227E-02  0.12932266598E+00  0.22937009126E-01 0.  0.
         14    1    1    2    0    0  0.95949792834E-02 -0.73828811680E-02  0.22028984870E-01  0.25136561742E-01  0.00000000000E+00 0. -1.
     999901    1    3    3    0    0 -0.82393435237E-01 -0.97000666633E-01 -0.23673766893E-01  0.88947077228E+00  0.88000000000E+00 0.  1.
        -11    1    4    4    0    0  0.41597499278E-01  0.44693250328E-01  0.83852566927E-02  0.61631260103E-01  0.51100000000E-03 0. -1.
         11    1    4    4    0    0  0.31200956675E-01  0.59690297473E-01 -0.67404746701E-02  0.67691405877E-01  0.51100000000E-03 0.  1.
</event>
<event>
 8    1  0.1199892E+005  0.1043930E+01  0.7957747E-01            NaN
         13   -1    0    0    0    0  0.00000000000E+00  0.00000000000E+00  0.74505805969E-08  0.10566000000E+00  0.10566000000E+00 0. -1.
     999900   -1    0    0    0    0 -0.00000000000E+00 -0.00000000000E+00 -0.74505805969E-08  0.93827000000E+00  0.93827000000E+00 0. -1.
     999902    2    1    2    0    0 -0.22699333409E-01  0.55941497248E-02 -0.22488669742E-02  0.10204435858E+01  0.10201732697E+01 0.  0.
     999903    2    3    3    0    0 -0.41481326318E-01 -0.84074812442E-01  0.89309132497E-01  0.13096275224E+00  0.19642983671E-01 0.  0.
         14    1    1    2    0    0  0.22699333409E-01 -0.55941497248E-02  0.22488669742E-02  0.23486414180E-01  0.00000000000E+00 0. -1.
     999901    1    3    3    0    0  0.18781992908E-01  0.89668962167E-01 -0.91557999471E-01  0.88948083358E+00  0.88000000000E+00 0. -1.
        -11    1    4    4    0    0 -0.30522849094E-01 -0.47393227124E-01  0.43156779031E-01  0.70996697046E-01  0.51100000000E-03 0.  1.
         11    1    4    4    0    0 -0.10958477223E-01 -0.36681585318E-01  0.46152353465E-01  0.59966055197E-01  0.51100000000E-03 0. -1.
</event>
<event>
 8    1  0.1199892E+005  0.1043930E+01  0.7957747E-01            NaN
         13   -1    0    0    0    0  0.00000000000E+00  0.00000000000E+00  0.74505805969E-08  0.10566000000E+00  0.10566000000E+00 0.  1.
     999900   -1    0    0    0    0 -0.00000000000E+00 -0.00000000000E+00 -0.74505805969E-08  0.93827000000E+00  0.93827000000E+00 0. -1.
     999902    2    1    2    0    0  0.12688373064E-04 -0.92222764082E-02  0.32449683544E-02  0.10341534790E+01  0.10341072661E+01 0.  0.
     999903    2    3    3    0    0 -0.97567454745E-01 -0.44368730456E-01 -0.93033339434E-01  0.14284731942E+00  0.16191415988E-01 0.  0.
         14    1    1    2    0    0 -0.12688373064E-04  0.92222764082E-02 -0.32449683544E-02  0.97765209950E-02  0.00000000000E+00 0. -1.
     999901    1    3    3    0    0  0.97580143118E-01  0.35146454048E-01  0.96278307788E-01  0.89130615958E+00  0.88000000000E+00 0.  1.
        -11    1    4    4    0    0 -0.88603975057E-01 -0.40237922495E-01 -0.77351552615E-01  0.12431121677E+00  0.51100000000E-03 0. -1.
         11    1    4    4    0    0 -0.89634796883E-02 -0.41308079605E-02 -0.15681786819E-01  0.18536102648E-01  0.51100000000E-03 0.  1.
</event>
<event>
 8    1  0.1199892E+005  0.1043930E+01  0.7957747E-01            NaN
         13   -1    0    0    0    0  0.00000000000E+00  0.00000000000E+00  0.74505805969E-08  0.10566000000E+00  0.10566000000E+00 0. -1.
     999900   -1    0    0    0    0 -0.00000000000E+00 -0.00000000000E+00 -0.74505805969E-08  0.93827000000E+00  0.93827000000E+00 0.  1.
     999902    2    1    2    0    0  0.12208411017E-03  0.18060736862E-01  0.21058096122E-01  0.10161874599E+01  0.10158086951E+01 0.  0.
     999903    2    3    3    0    0 -0.95948872937E-02 -0.10102256969E+00 -0.67965747500E-01  0.12366267133E+00  0.19377615876E-01 0.  0.
         14    1    1    2    0    0 -0.12208411017E-03 -0.18060736862E-01 -0.21058096122E-01  0.27742540129E-01  0.00000000000E+00 0.  1.
     999901    1    3    3    0    0  0.97169714039E-02  0.11908330655E+00  0.89023843622E-01  0.89252478854E+00  0.88000000000E+00 0. -1.
        -11    1    4    4    0    0 -0.18158785853E-02 -0.61653564725E-01 -0.30718631031E-01  0.68908307712E-01  0.51100000000E-03 0.  1.
         11    1    4    4    0    0 -0.77790087084E-02 -0.39369004968E-01 -0.37247116469E-01  0.54754363615E-01  0.51100000000E-03 0. -1.
</event>
<event>
 8    1  0.1199892E+005  0.1043930E+01  0.7957747E-01            NaN
         13   -1    0    0    0    0  0.00000000000E+00  0.00000000000E+00  0.74505805969E-08  0.10566000000E+00  0.10566000000E+00 0.  1.
     999900   -1    0    0    0    0 -0.00000000000E+00 -0.00000000000E+00 -0.74505805969E-08  0.93827000000E+00  0.93827000000E+00 0. -1.
     999902    2    1    2    0    0  0.89063820677E-02  0.17232255350E-01  0.64807508247E-02  0.10234782422E+01  0.10232738821E+01 0.  0.
     999903    2    3    3    0    0  0.24430544284E-01 -0.46328212860E-01 -0.11959486089E+00  0.13208832045E+00  0.20030947209E-01 0.  0.
         14    1    1    2    0    0 -0.89063820677E-02 -0.17232255350E-01 -0.64807508247E-02  0.20451757803E-01  0.00000000000E+00 0. -1.
     999901    1    3    3    0    0 -0.15524162216E-01  0.63560468209E-01  0.12607561171E+00  0.89138992175E+00  0.88000000000E+00 0.  1.
        -11    1    4    4    0    0  0.22249808088E-01 -0.26245377692E-01 -0.60084851510E-01  0.69241059438E-01  0.51100000000E-03 0. -1.
         11    1    4    4    0    0  0.21807361958E-02 -0.20082835168E-01 -0.59510009380E-01  0.62847261007E-01  0.51100000000E-03 0.  1.
</event>
<event>
 8    1  0.1199892E+005  0.1043930E+01  0.7957747E-01            NaN
         13   -1    0    0    0    0  0.00000000000E+00  0.00000000000E+00  0.74505805969E-08  0.10566000000E+00  0.10566000000E+00 0. -1.
     999900   -1    0    0    0    0 -0.00000000000E+00 -0.00000000000E+00 -0.74505805969E-08  0.93827000000E+00  0.93827000000E+00 0.  1.
     999902    2    1    2    0    0  0.45873527037E-02 -0.20715444807E-01 -0.10271267209E-01  0.10203572957E+01  0.10200849663E+01 0.  0.
     999903    2    3    3    0    0 -0.93480277008E-01 -0.80510881885E-01  0.40907238406E-01  0.13141860617E+00  0.19413490201E-01 0.  0.
         14    1    1    2    0    0 -0.45873527037E-02  0.20715444807E-01  0.10271267209E-01  0.23572704310E-01  0.00000000000E+00 0. -1.
     999901    1    3    3    0    0  0.98067629711E-01  0.59795437078E-01 -0.51178505615E-01  0.88893868952E+00  0.88000000000E+00 0.  1.
        -11    1    4    4    0    0 -0.55436465478E-01 -0.48633156493E-01  0.14372202244E-01  0.75134592123E-01  0.51100000000E-03 0.  1.
         11    1    4    4    0    0 -0.38043811530E-01 -0.31877725392E-01  0.26535036162E-01  0.56284014045E-01  0.51100000000E-03 0. -1.
</event>
<event>
 8    1  0.1199892E+005  0.1043930E+01  0.7957747E-01            NaN
         13   -1    0    0    0    0  0.00000000000E+00  0.00000000000E+00  0.74505805969E-08  0.10566000000E+00  0.10566000000E+00 0.  1.
     999900   -1    0    0    0    0 -0.00000000000E+00 -0.00000000000E+00 -0.74505805969E-08  0.93827000000E+00  0.93827000000E+00 0. -1.
     999902    2    1    2    0    0 -0.33896595548E-02  0.31695221072E-01  0.68841089929E-02  0.10113191462E+01  0.10107932269E+01 0.  0.
     999903    2    3    3    0    0 -0.47785964629E-01  0.73488647519E-01 -0.85911257164E-01  0.12434186215E+00  0.19901629200E-01 0.  0.
         14    1    1    2    0    0  0.33896595548E-02 -0.31695221072E-01 -0.68841089929E-02  0.32610853827E-01  0.00000000000E+00 0.  1.
     999901    1    3    3    0    0  0.44396305074E-01 -0.41793426447E-01  0.92795366157E-01  0.88697728403E+00  0.88000000000E+00 0.  1.
        -11    1    4    4    0    0 -0.37278942749E-01  0.48257539483E-01 -0.69486619239E-01  0.92450857561E-01  0.51100000000E-03 0. -1.
         11    1    4    4    0    0 -0.10507021880E-01  0.25231108036E-01 -0.16424637925E-01  0.31891004585E-01  0.51100000000E-03 0.  1.
</event>
<event>
 8    1  0.1199892E+005  0.1043930E+01  0.7957747E-01            NaN
         13   -1    0    0    0    0  0.00000000000E+00  0.00000000000E+00  0.74505805969E-08  0.10566000000E+00  0.10566000000E+00 0. -1.
     999900   -1    0    0    0    0 -0.00000000000E+00 -0.00000000000E+00 -0.74505805969E-08  0.93827000000E+00  0.93827000000E+00 0.  1.
     999902    2    1    2    0    0  0.20620669137E-01  0.96451307353E-02  0.74379441750E-02  0.10199808130E+01  0.10196996104E+01 0.  0.
     999903    2    3    3    0    0  0.89968710420E-01  0.64210325311E-01  0.71554563830E-01  0.13324666336E+00  0.20427505001E-01 0.  0.
         14    1    1    2    0    0 -0.20620669137E-01 -0.96451307353E-02 -0.74379441750E-02  0.23949186961E-01  0.00000000000E+00 0.  1.
     999901    1    3    3    0    0 -0.69348041283E-01 -0.54565194576E-01 -0.64116619655E-01  0.88673414968E+00  0.88000000000E+00 0.  1.
        -11    1    4    4    0    0  0.28769836692E-01  0.32101567674E-01  0.23834451495E-01  0.49260088809E-01  0.51100000000E-03 0. -1.
         11    1    4    4    0    0  0.61198873728E-01  0.32108757637E-01  0.47720112335E-01  0.83986574552E-01  0.51100000000E-03 0.  1.
</event>
<event>
 8    1  0.1199892E+005  0.1043930E+01  0.7957747E-01            NaN
         13   -1    0    0    0    0  0.00000000000E+00  0.00000000000E+00  0.74505805969E-08  0.10566000000E+00  0.10566000000E+00 0. -1.
     999900   -1    0    0    0    0 -0.00000000000E+00 -0.00000000000E+00 -0.74505805969E-08  0.93827000000E+00  0.93827000000E+00 0.  1.
     999902    2    1    2    0    0 -0.13061829984E-01 -0.19563290047E-01  0.34278213946E-02  0.10201585112E+01  0.10198815148E+01 0.  0.
     999903    2    3    3    0    0  0.11201140645E+00  0.52459242652E-01  0.21959848780E-01  0.12820896346E+00  0.25627642076E-01 0.  0.
         14    1    1    2    0    0  0.13061829984E-01  0.19563290047E-01 -0.34278213946E-02  0.23771488795E-01  0.00000000000E+00 0. -1.
     999901    1    3    3    0    0 -0.12507323643E+00 -0.72022532699E-01 -0.18532027386E-01  0.89194954775E+00  0.88000000000E+00 0. -1.
        -11    1    4    4    0    0  0.29232014184E-01  0.26486244334E-01  0.44536797271E-02  0.39700480807E-01  0.51100000000E-03 0.  1.
         11    1    4    4    0    0  0.82779392265E-01  0.25972998317E-01  0.17506169053E-01  0.88508482651E-01  0.51100000000E-03 0. -1.
</event>
<event>
 8    1  0.1199892E+005  0.1043930E+01  0.7957747E-01            NaN
         13   -1    0    0    0    0  0.00000000000E+00  0.00000000000E+00  0.74505805969E-08  0.10566000000E+00  0.10566000000E+00 0.  1.
     999900   -1    0    0    0    0 -0.00000000000E+00 -0.00000000000E+00 -0.74505805969E-08  0.93827000000E+00  0.93827000000E+00 0.  1.
     999902    2    1    2    0    0 -0.12220203099E-01 -0.12528435541E-01  0.13757160890E-01  0.10216689457E+01  0.10214263949E+01 0.  0.
     999903    2    3    3    0    0 -0.12422749339E+00 -0.58569964299E-02  0.45918322790E-01  0.13396151561E+00  0.19246318487E-01 0.  0.
         14    1    1    2    0    0  0.12220203099E-01  0.12528435541E-01 -0.13757160890E-01  0.22261054257E-01  0.00000000000E+00 0. -1.
     999901    1    3    3    0    0  0.11200729029E+00 -0.66714391115E-02 -0.32161161900E-01  0.88770743013E+00  0.88000000000E+00 0. -1.
        -11    1    4    4    0    0 -0.51766841165E-01 -0.11399774936E-01  0.16018908054E-01  0.55377136519E-01  0.51100000000E-03 0. -1.
         11    1    4    4    0    0 -0.72460652225E-01  0.55427785058E-02  0.29899414736E-01  0.78584379091E-01  0.51100000000E-03 0.  1.
</event>
<event>
 8    1  0.1199892E+005  0.1043930E+01  0.7957747E-01            NaN
         13   -1    0    0    0    0  0.00000000000E+00  0.00000000000E+00  0.74505805969E-08  0.10566000000E+00  0.10566000000E+00 0. -1.
     999900   -1    0    0    0    0 -0.00000000000E+00 -0.00000000000E+00 -0.74505805969E-08  0.93827000000E+00  0.93827000000E+00 0. -1.
     999902    2    1    2    0    0 -0.84078666423E-02 -0.21124147344E-01 -0.54876211851E-02  0.10205412033E+01  0.10202731555E+01 0.  0.
     999903    2    3    3    0    0 -0.11695957340E+00 -0.38096574326E-01 -0.45919683027E-01  0.13278769705E+00  0.19825852152E-01 0.  0.
         14    1    1    2    0    0  0.84078666423E-02  0.21124147344E-01  0.54876211851E-02  0.23388796650E-01  0.00000000000E+00 0. -1.
     999901    1    3    3    0    0  0.10855170676E+00  0.16972426983E-01  0.40432061842E-01  0.88775350630E+00  0.88000000000E+00 0.  1.
        -11    1    4    4    0    0 -0.71657365689E-01 -0.13132655134E-01 -0.27864019840E-01  0.77999419299E-01  0.51100000000E-03 0.  1.
         11    1    4    4    0    0 -0.45302207713E-01 -0.24963919192E-01 -0.18055663187E-01  0.54788277754E-01  0.51100000000E-03 0. -1.
</event>
<event>
 8    1  0.1199892E+005  0.1043930E+01  0.7957747E-01            NaN
         13   -1    0    0    0    0  0.00000000000E+00  0.00000000000E+00  0.74505805969E-08  0.10566000000E+00  0.10566000000E+00 0. -1.
     999900   -1    0    0    0    0 -0.00000000000E+00 -0.00000000000E+00 -0.74505805969E-08  0.93827000000E+00  0.93827000000E+00 0.  1.
     999902    2    1    2    0    0  0.20748448265E-01  0.19722735946E-02 -0.64241648852E-02  0.10221204181E+01  0.10218877097E+01 0.  0.
     999903    2    3    3    0    0  0.95523350352E-01 -0.67571866970E-01  0.61445277274E-01  0.13361947006E+00  0.19697030550E-01 0.  0.
         14    1    1    2    0    0 -0.20748448265E-01 -0.19722735946E-02  0.64241648852E-02  0.21809581908E-01  0.00000000000E+00 0. -1.
     999901    1    3    3    0    0 -0.74774902087E-01  0.69544140564E-01 -0.67869442159E-01  0.88850094803E+00  0.88000000000E+00 0.  1.
        -11    1    4    4    0    0  0.48735793577E-01 -0.22498115475E-01  0.28332659869E-01  0.60698793330E-01  0.51100000000E-03 0.  1.
         11    1    4    4    0    0  0.46787556775E-01 -0.45073751495E-01  0.33112617405E-01  0.72920676733E-01  0.51100000000E-03 0. -1.
</event>
<event>
 8    1  0.1199892E+005  0.1043930E+01  0.7957747E-01            NaN
         13   -1    0    0    0    0  0.00000000000E+00  0.00000000000E+00  0.74505805969E-08  0.10566000000E+00  0.10566000000E+00 0.  1.
     999900   -1    0    0    0    0 -0.00000000000E+00 -0.00000000000E+00 -0.74505805969E-08  0.93827000000E+00  0.93827000000E+00 0. -1.
     999902    2    1    2    0    0 -0.18731979351E-01 -0.14541112798E-01  0.49268446396E-03  0.10202113628E+01  0.10199356112E+01 0.  0.
     999903    2    3    3    0    0  0.42365613103E-02  0.11087627320E+00 -0.62394961526E-01  0.12880128289E+00  0.19625056476E-01 0.  0.
         14    1    1    2    0    0  0.18731979351E-01  0.14541112798E-01 -0.49268446396E-03  0.23718637182E-01  0.00000000000E+00 0.  1.
     999901    1    3    3    0    0 -0.22968540661E-01 -0.12541738599E+00  0.62887645990E-01  0.89141007992E+00  0.88000000000E+00 0.  1.
        -11    1    4    4    0    0 -0.59580341156E-02  0.42748391200E-01 -0.30717262080E-01  0.52978622400E-01  0.51100000000E-03 0.  1.
         11    1    4    4    0    0  0.10194595426E-01  0.68127881997E-01 -0.31677699446E-01  0.75822660495E-01  0.51100000000E-03 0. -1.
</event>
<event>
 8    1  0.1199892E+005  0.1043930E+01  0.7957747E-01            NaN
         13   -1    0    0    0    0  0.00000000000E+00  0.00000000000E+00  0.74505805969E-08  0.10566000000E+00  0.10566000000E+00 0.  1.
     999900   -1    0    0    0    0 -0.00000000000E+00 -0.00000000000E+00 -0.74505805969E-08  0.93827000000E+00  0.93827000000E+00 0.  1.
     999902    2    1    2    0    0  0.23675383317E-01  0.20556660510E-02  0.55470126600E-03  0.10201590675E+01  0.10198820843E+01 0.  0.
     999903    2    3    3    0    0  0.12076011891E+00  0.14313206414E-01  0.50835205968E-01  0.13330856019E+00  0.19976983174E-01 0.  0.
         14    1    1    2    0    0 -0.23675383317E-01 -0.20556660510E-02 -0.55470126600E-03  0.23770932494E-01  0.00000000000E+00 0. -1.
     999901    1    3    3    0    0 -0.97084735591E-01 -0.12257540363E-01 -0.50280504702E-01  0.88685050732E+00  0.88000000000E+00 0.  1.
        -11    1    4    4    0    0  0.72200548577E-01  0.15550866533E-01  0.38015868382E-01  0.83067538994E-01  0.51100000000E-03 0. -1.
         11    1    4    4    0    0  0.48559570331E-01 -0.12376601194E-02  0.12819337586E-01  0.50241021192E-01  0.51100000000E-03 0.  1.
</event>
<event>
 8    1  0.1199892E+005  0.1043930E+01  0.7957747E-01            NaN
         13   -1    0    0    0    0  0.00000000000E+00  0.00000000000E+00  0.74505805969E-08  0.10566000000E+00  0.10566000000E+00 0.  1.
     999900   -1    0    0    0    0 -0.00000000000E+00 -0.00000000000E+00 -0.74505805969E-08  0.93827000000E+00  0.93827000000E+00 0.  1.
     999902    2    1    2    0    0 -0.18424251496E-01  0.98746825877E-02 -0.10613146112E-01  0.10204864237E+01  0.10202171042E+01 0.  0.
     999903    2    3    3    0    0 -0.10167118875E+00 -0.29860863527E-01 -0.78379133130E-01  0.13307378282E+00  0.18347789334E-01 0.  0.
         14    1    1    2    0    0  0.18424251496E-01 -0.98746825877E-02  0.10613146112E-01  0.23443576301E-01  0.00000000000E+00 0.  1.
     999901    1    3    3    0    0  0.83246937250E-01  0.39735546115E-01  0.67765987018E-01  0.88741264087E+00  0.88000000000E+00 0. -1.
        -11    1    4    4    0    0 -0.50743369698E-01 -0.21945790221E-01 -0.32903992877E-01  0.64338488830E-01  0.51100000000E-03 0. -1.
         11    1    4    4    0    0 -0.50927819048E-01 -0.79150733057E-02 -0.45475140253E-01  0.68735293994E-01  0.51100000000E-03 0.  1.
</event>
<event>
 8    1  0.1199892E+005  0.1043930E+01  0.7957747E-01            NaN
         13   -1    0    0    0    0  0.00000000000E+00  0.00000000000E+00  0.74505805969E-08  0.10566000000E+00  0.10566000000E+00 0.  1.
     999900   -1    0    0    0    0 -0.00000000000E+00 -0.00000000000E+00 -0.74505805969E-08  0.93827000000E+00  0.93827000000E+00 0. -1.
     999902    2    1    2    0    0 -0.78956956772E-02  0.22659152377E-01  0.11835222914E-02  0.10199054309E+01  0.10196224340E+01 0.  0.
     999903    2    3    3    0    0  0.12424078998E+00 -0.23690382793E-01 -0.13009914942E-01  0.12872094722E+00  0.20070282319E-01 0.  0.
         14    1    1    2    0    0  0.78956956772E-02 -0.22659152377E-01 -0.11835222914E-02  0.24024569126E-01  0.00000000000E+00 0. -1.
     999901    1    3    3    0    0 -0.13213648566E+00  0.46349535170E-01  0.14193437234E-01  0.89118448366E+00  0.88000000000E+00 0. -1.
        -11    1    4    4    0    0  0.30370481847E-01  0.27487651020E-02 -0.44535528367E-02  0.30822347916E-01  0.51100000000E-03 0.  1.
         11    1    4    4    0    0  0.93870308137E-01 -0.26439147895E-01 -0.85563621054E-02  0.97898599299E-01  0.51100000000E-03 0. -1.
</event>
<event>
 8    1  0.1199892E+005  0.1043930E+01  0.7957747E-01            NaN
         13   -1    0    0    0    0  0.00000000000E+00  0.00000000000E+00  0.74505805969E-08  0.10566000000E+00  0.10566000000E+00 0.  1.
     999900   -1    0    0    0    0 -0.00000000000E+00 -0.00000000000E+00 -0.74505805969E-08  0.93827000000E+00  0.93827000000E+00 0. -1.
     999902    2    1    2    0    0 -0.55188372997E-02 -0.33015923722E-02  0.33461714426E-01  0.10098558983E+01  0.10092808781E+01 0.  0.
     999903    2    3    3    0    0 -0.78898327495E-01  0.88587655914E-01 -0.15057539362E-01  0.12070894667E+00  0.16468195164E-01 0.  0.
         14    1    1    2    0    0  0.55188372997E-02  0.33015923722E-02 -0.33461714426E-01  0.34074101744E-01  0.00000000000E+00 0. -1.
     999901    1    3    3    0    0  0.73379490195E-01 -0.91889248286E-01  0.48519253789E-01  0.88914695159E+00  0.88000000000E+00 0. -1.
        -11    1    4    4    0    0 -0.15575423404E-01  0.28433409646E-01 -0.42097017024E-02  0.32696105391E-01  0.51100000000E-03 0.  1.
         11    1    4    4    0    0 -0.63322904090E-01  0.60154246268E-01 -0.10847837660E-01  0.88012841275E-01  0.51100000000E-03 0. -1.
</event>
<event>
 8    1  0.1199892E+005  0.1043930E+01  0.7957747E-01            NaN
         13   -1    0    0    0    0  0.00000000000E+00  0.00000000000E+00  0.74505805969E-08  0.10566000000E+00  0.10566000000E+00 0. -1.
     999900   -1    0    0    0    0 -0.00000000000E+00 -0.00000000000E+00 -0.74505805969E-08  0.93827000000E+00  0.93827000000E+00 0. -1.
     999902    2    1    2    0    0 -0.17655397943E-01 -0.53449784748E-02  0.14604162256E-01  0.10204020713E+01  0.10201307876E+01 0.  0.
     999903    2    3    3    0    0  0.10513665372E+00 -0.34829667919E-01  0.65248070989E-01  0.12994598576E+00  0.19021743466E-01 0.  0.
         14    1    1    2    0    0  0.17655397943E-01  0.53449784748E-02 -0.14604162256E-01  0.23527928651E-01  0.00000000000E+00 0.  1.
     999901    1    3    3    0    0 -0.12279205167E+00  0.29484689444E-01 -0.50643908733E-01  0.89045608559E+00  0.88000000000E+00 0.  1.
        -11    1    4    4    0    0  0.49642191866E-01 -0.65175067174E-02  0.28466498651E-01  0.57597116018E-01  0.51100000000E-03 0.  1.
         11    1    4    4    0    0  0.55494461858E-01 -0.28312161201E-01  0.36781572338E-01  0.72348869746E-01  0.51100000000E-03 0. -1.
</event>
<event>
 8    1  0.1199892E+005  0.1043930E+01  0.7957747E-01            NaN
         13   -1    0    0    0    0  0.00000000000E+00  0.00000000000E+00  0.74505805969E-08  0.10566000000E+00  0.10566000000E+00 0.  1.
     999900   -1    0    0    0    0 -0.00000000000E+00 -0.00000000000E+00 -0.74505805969E-08  0.93827000000E+00  0.93827000000E+00 0. -1.
     999902    2    1    2    0    0 -0.16401224286E-01 -0.84190623401E-02  0.14918028692E-01  0.10202144281E+01  0.10199387487E+01 0.  0.
     999903    2    3    3    0    0 -0.42366437965E-01 -0.33686987974E-01  0.12007830119E+00  0.13321310722E+00  0.19930009882E-01 0.  0.
         14    1    1    2    0    0  0.16401224286E-01  0.84190623401E-02 -0.14918028692E-01  0.23715571864E-01  0.00000000000E+00 0. -1.
     999901    1    3    3    0    0  0.25965213678E-01  0.25267925634E-01 -0.10516027250E+00  0.88700132091E+00  0.88000000000E+00 0. -1.
        -11    1    4    4    0    0 -0.71295496834E-02 -0.13276316091E-01  0.49307096608E-01  0.51561050654E-01  0.51100000000E-03 0.  1.
         11    1    4    4    0    0 -0.35236888281E-01 -0.20410671882E-01  0.70771204586E-01  0.81652056570E-01  0.51100000000E-03 0. -1.
</event>
<event>
 8    1  0.1199892E+005  0.1043930E+01  0.7957747E-01            NaN
         13   -1    0    0    0    0  0.00000000000E+00  0.00000000000E+00  0.74505805969E-08  0.10566000000E+00  0.10566000000E+00 0. -1.
     999900   -1    0    0    0    0 -0.00000000000E+00 -0.00000000000E+00 -0.74505805969E-08  0.93827000000E+00  0.93827000000E+00 0. -1.
     999902    2    1    2    0    0 -0.31309764280E-02 -0.26062232056E-01  0.59556190776E-02  0.10170132329E+01  0.10166569744E+01 0.  0.
     999903    2    3    3    0    0  0.95678422939E-01  0.70665504167E-01  0.35017355630E-01  0.12574215354E+00  0.20902150264E-01 0.  0.
         14    1    1    2    0    0  0.31309764280E-02  0.26062232056E-01 -0.59556190776E-02  0.26916767111E-01  0.00000000000E+00 0.  1.
     999901    1    3    3    0    0 -0.98809399367E-01 -0.96727736222E-01 -0.29061736552E-01  0.89127107935E+00  0.88000000000E+00 0. -1.
        -11    1    4    4    0    0  0.49520038845E-01  0.40958497641E-01  0.29043682193E-01  0.70523963108E-01  0.51100000000E-03 0.  1.
         11    1    4    4    0    0  0.46158384094E-01  0.29707006526E-01  0.59736734368E-02  0.55218190429E-01  0.51100000000E-03 0. -1.
</event>
<event>
 8    1  0.1199892E+005  0.1043930E+01  0.7957747E-01            NaN
         13   -1    0    0    0    0  0.00000000000E+00  0.00000000000E+00  0.74505805969E-08  0.10566000000E+00  0.10566000000E+00 0.  1.
     999900   -1    0    0    0    0 -0.00000000000E+00 -0.00000000000E+00 -0.74505805969E-08  0.93827000000E+00  0.93827000000E+00 0. -1.
     999902    2    1    2    0    0  0.34429753801E-02  0.90515680246E-02 -0.22206014206E-01  0.10197041454E+01  0.10194163292E+01 0.  0.
     999903    2    3    3    0    0  0.73521263978E-01  0.10291654010E+00  0.25451366902E-01  0.13066374955E+00  0.20689439009E-01 0.  0.
         14    1    1    2    0    0 -0.34429753801E-02 -0.90515680246E-02  0.22206014206E-01  0.24225854579E-01  0.00000000000E+00 0.  1.
     999901    1    3    3    0    0 -0.70078288597E-01 -0.93864972075E-01 -0.47657381108E-01  0.88904039587E+00  0.88000000000E+00 0. -1.
        -11    1    4    4    0    0  0.33278071347E-01  0.58392676111E-01  0.21284996179E-01  0.70501396010E-01  0.51100000000E-03 0.  1.
         11    1    4    4    0    0  0.40243192630E-01  0.44523863989E-01  0.41663707224E-02  0.60162353541E-01  0.51100000000E-03 0. -1.
</event>
<event>
 8    1  0.1199892E+005  0.1043930E+01  0.7957747E-01            NaN
         13   -1    0    0    0    0  0.00000000000E+00  0.00000000000E+00  0.74505805969E-08  0.10566000000E+00  0.10566000000E+00 0.  1.
     999900   -1    0    0    0    0 -0.00000000000E+00 -0.00000000000E+00 -0.74505805969E-08  0.93827000000E+00  0.93827000000E+00 0.  1.
     999902    2    1    2    0    0 -0.13096920940E-01 -0.20809788352E-01  0.38571128944E-02  0.10190411682E+01  0.10187371832E+01 0.  0.
     999903    2    3    3    0    0  0.25252163392E-01 -0.12714025610E+00  0.19486891695E-01  0.13167365096E+00  0.12485789179E-01 0.  0.
         14    1    1    2    0    0  0.13096920940E-01  0.20809788352E-01 -0.38571128944E-02  0.24888831818E-01  0.00000000000E+00 0.  1.
     999901    1    3    3    0    0 -0.38349084332E-01  0.10633046775E+00 -0.15629778801E-01  0.88736751722E+00  0.88000000000E+00 0.  1.
        -11    1    4    4    0    0  0.13430690547E-02 -0.22997839822E-01  0.70630786654E-02  0.24100885300E-01  0.51100000000E-03 0. -1.
         11    1    4    4    0    0  0.23909094337E-01 -0.10414241628E+00  0.12423813030E-01  0.10757276566E+00  0.51100000000E-03 0.  1.
</event>
<event>
 8    1  0.1199892E+005  0.1043930E+01  0.7957747E-01            NaN
         13   -1    0    0    0    0  0.00000000000E+00  0.00000000000E+00  0.74505805969E-08  0.10566000000E+00  0.10566000000E+00 0.  1.
     999900   -1    0    0    0    0 -0.00000000000E+00 -0.00000000000E+00 -0.74505805969E-08  0.93827000000E+00  0.93827000000E+00 0. -1.
     999902    2    1    2    0    0 -0.15507560893E-03  0.17607050777E-01  0.17995740548E-01  0.10187530470E+01  0.10184418942E+01 0.  0.
     999903    2    3    3    0    0 -0.10961910109E+00  0.28020448394E-01  0.62497908609E-01  0.13079400812E+00  0.19989775581E-01 0.  0.
         14    1    1    2    0    0  0.15507560893E-03 -0.17607050777E-01 -0.17995740548E-01  0.25176953020E-01  0.00000000000E+00 0. -1.
     999901    1    3    3    0    0  0.10946402548E+00 -0.10413397617E-01 -0.44502168061E-01  0.88795903886E+00  0.88000000000E+00 0. -1.
        -11    1    4    4    0    0 -0.92783742182E-01  0.18225738255E-01  0.57539373603E-01  0.11068893795E+00  0.51100000000E-03 0.  1.
         11    1    4    4    0    0 -0.16835358911E-01  0.97947101394E-02  0.49585350060E-02  0.20105070176E-01  0.51100000000E-03 0. -1.
</event>
<event>
 8    1  0.1199892E+005  0.1043930E+01  0.7957747E-01            NaN
         13   -1    0    0    0    0  0.00000000000E+00  0.00000000000E+00  0.74505805969E-08  0.10566000000E+00  0.10566000000E+00 0. -1.
     999900   -1    0    0    0    0 -0.00000000000E+00 -0.00000000000E+00 -0.74505805969E-08  0.93827000000E+00  0.93827000000E+00 0. -1.
     999902    2    1    2    0    0  0.10712354369E-01 -0.84061952536E-02 -0.18833285542E-01  0.10206897053E+01  0.10204250894E+01 0.  0.
     999903    2    3    3    0    0 -0.10627900175E+00  0.25520010641E-01  0.64312130250E-01  0.12841669491E+00  0.20206441527E-01 0.  0.
         14    1    1    2    0    0 -0.10712354369E-01  0.84061952536E-02  0.18833285542E-01  0.23240294729E-01  0.00000000000E+00 0.  1.
     999901    1    3    3    0    0  0.11699135611E+00 -0.33926205895E-01 -0.83145415792E-01  0.89227301036E+00  0.88000000000E+00 0. -1.
        -11    1    4    4    0    0 -0.81658082292E-01  0.26411415467E-01  0.55689720623E-01  0.10230939045E+00  0.51100000000E-03 0. -1.
         11    1    4    4    0    0 -0.24620919453E-01 -0.89140482547E-03  0.86224096264E-02  0.26107304458E-01  0.51100000000E-03 0.  1.
</event>
<event>
 8    1  0.1199892E+005  0.1043930E+01  0.7957747E-01            NaN
         13   -1    0    0    0    0  0.00000000000E+00  0.00000000000E+00  0.74505805969E-08  0.10566000000E+00  0.10566000000E+00 0. -1.
     999900   -1    0    0    0    0 -0.00000000000E+00 -0.00000000000E+00 -0.74505805969E-08  0.93827000000E+00  0.93827000000E+00 0.  1.
     999902    2    1    2    0    0  0.10725306857E-02 -0.23420053681E-01 -0.47824073969E-02  0.10200025961E+01  0.10197219108E+01 0.  0.
     999903    2    3    3    0    0 -0.45658539168E-01 -0.38924079508E-01  0.11376591367E+00  0.13068944983E+00  0.23178934836E-01 0.  0.
         14    1    1    2    0    0 -0.10725306857E-02  0.23420053681E-01  0.47824073969E-02  0.23927403892E-01  0.00000000000E+00 0.  1.
     999901    1    3    3    0    0  0.46731069853E-01  0.15504025827E-01 -0.11854832107E+00  0.88931314627E+00  0.88000000000E+00 0.  1.
        -11    1    4    4    0    0 -0.10661003460E-01  0.44936201114E-03  0.11792744375E-01  0.15911909436E-01  0.51100000000E-03 0. -1.
         11    1    4    4    0    0 -0.34997535707E-01 -0.39373441519E-01  0.10197316930E+00  0.11477754040E+00  0.51100000000E-03 0.  1.
</event>
<event>
 8    1  0.1199892E+005  0.1043930E+01  0.7957747E-01            NaN
         13   -1    0    0    0    0  0.00000000000E+00  0.00000000000E+00  0.74505805969E-08  0.10566000000E+00  0.10566000000E+00 0.  1.
     999900   -1    0    0    0    0 -0.00000000000E+00 -0.00000000000E+00 -0.74505805969E-08  0.93827000000E+00  0.93827000000E+00 0.  1.
     999902    2    1    2    0    0  0.18742526766E-01  0.65809295524E-02 -0.13779230031E-01  0.10197544313E+01  0.10194678229E+01 0.  0.
     999903    2    3    3    0    0  0.53263577429E-01 -0.79365152543E-01  0.84922648952E-01  0.12940590800E+00  0.19954864109E-01 0.  0.
         14    1    1    2    0    0 -0.18742526766E-01 -0.65809295524E-02  0.13779230031E-01  0.24175568734E-01  0.00000000000E+00 0. -1.
     999901    1    3    3    0    0 -0.34521050663E-01  0.85946082095E-01 -0.98701878984E-01  0.89034852327E+00  0.88000000000E+00 0.  1.
        -11    1    4    4    0    0  0.42910577991E-01 -0.55163408908E-01  0.51273270634E-01  0.86680613682E-01  0.51100000000E-03 0. -1.
         11    1    4    4    0    0  0.10352999438E-01 -0.24201743635E-01  0.33649378319E-01  0.42725294318E-01  0.51100000000E-03 0.  1.
</event>
<event>
 8    1  0.1199892E+005  0.1043930E+01  0.7957747E-01            NaN
         13   -1    0    0    0    0  0.00000000000E+00  0.00000000000E+00  0.74505805969E-08  0.10566000000E+00  0.10566000000E+00 0. -1.
     999900   -1    0    0    0    0 -0.00000000000E+00 -0.00000000000E+00 -0.74505805969E-08  0.93827000000E+00  0.93827000000E+00 0. -1.
     999902    2    1    2    0    0 -0.24206610107E-01  0.40446394309E-02  0.46797585321E-02  0.10189456205E+01  0.10186392680E+01 0.  0.
     999903    2    3    3    0    0  0.39031999606E-01  0.11606373980E+00 -0.33811007191E-01  0.12876084209E+00  0.21020978971E-01 0.  0.
         14    1    1    2    0    0  0.24206610107E-01 -0.40446394309E-02 -0.46797585321E-02  0.24984379539E-01  0.00000000000E+00 0. -1.
     999901    1    3    3    0    0 -0.63238609713E-01 -0.11201910037E+00  0.38490765723E-01  0.89018477838E+00  0.88000000000E+00 0.  1.
        -11    1    4    4    0    0  0.32238825406E-01  0.67825824469E-01 -0.25689853361E-01  0.79371997676E-01  0.51100000000E-03 0.  1.
         11    1    4    4    0    0  0.67931741998E-02  0.48237915335E-01 -0.81211538304E-02  0.49388844409E-01  0.51100000000E-03 0. -1.
</event>
<event>
 8    1  0.1199892E+005  0.1043930E+01  0.7957747E-01            NaN
         13   -1    0    0    0    0  0.00000000000E+00  0.00000000000E+00  0.74505805969E-08  0.10566000000E+00  0.10566000000E+00 0. -1.
     999900   -1    0    0    0    0 -0.00000000000E+00 -0.00000000000E+00 -0.74505805969E-08  0.93827000000E+00  0.93827000000E+00 0.  1.
     999902    2    1    2    0    0 -0.31405263231E-02  0.21383700707E-01 -0.99620381662E-03  0.10222939656E+01  0.10220649853E+01 0.  0.
     999903    2    3    3    0    0 -0.51737545870E-01 -0.70202205964E-01  0.95685010994E-01  0.13094840642E+00  0.19665717398E-01 0.  0.
         14    1    1    2    0    0  0.31405263231E-02 -0.21383700707E-01  0.99620381662E-03  0.21636034377E-01  0.00000000000E+00 0.  1.
     999901    1    3    3    0    0  0.48597019547E-01  0.91585906671E-01 -0.96681214810E-01  0.89134555920E+00  0.88000000000E+00 0.  1.
        -11    1    4    4    0    0 -0.20802136056E-01 -0.20185953246E-01  0.43772210067E-01  0.52502086321E-01  0.51100000000E-03 0.  1.
         11    1    4    4    0    0 -0.30935409814E-01 -0.50016252718E-01  0.51912800927E-01  0.78446320101E-01  0.51100000000E-03 0. -1.
</event>
<event>
 8    1  0.1199892E+005  0.1043930E+01  0.7957747E-01            NaN
         13   -1    0    0    0    0  0.00000000000E+00  0.00000000000E+00  0.74505805969E-08  0.10566000000E+00  0.10566000000E+00 0.  1.
     999900   -1    0    0    0    0 -0.00000000000E+00 -0.00000000000E+00 -0.74505805969E-08  0.93827000000E+00  0.93827000000E+00 0.  1.
     999902    2    1    2    0    0 -0.44155878340E-02 -0.22716874640E-01  0.49536269082E-03  0.10207826634E+01  0.10205201843E+01 0.  0.
     999903    2    3    3    0    0  0.33474283187E-01 -0.12153550227E+00 -0.39236129676E-01  0.13355137729E+00  0.20126861597E-01 0.  0.
         14    1    1    2    0    0  0.44155878340E-02  0.22716874640E-01 -0.49536269082E-03  0.23147336640E-01  0.00000000000E+00 0.  1.
     999901    1    3    3    0    0 -0.37889871021E-01  0.98818627629E-01  0.39731492367E-01  0.88723128607E+00  0.88000000000E+00 0. -1.
        -11    1    4    4    0    0  0.14056797243E-01 -0.85533737262E-01 -0.24620878935E-01  0.90111389731E-01  0.51100000000E-03 0. -1.
         11    1    4    4    0    0  0.19417485944E-01 -0.36001765008E-01 -0.14615250741E-01  0.43439987561E-01  0.51100000000E-03 0.  1.
</event>
<event>
 8    1  0.1199892E+005  0.1043930E+01  0.7957747E-01            NaN
         13   -1    0    0    0    0  0.00000000000E+00  0.00000000000E+00  0.74505805969E-08  0.10566000000E+00  0.10566000000E+00 0. -1.
     999900   -1    0    0    0    0 -0.00000000000E+00 -0.00000000000E+00 -0.74505805969E-08  0.93827000000E+00  0.93827000000E+00 0.  1.
     999902    2    1    2    0    0 -0.12637747291E-01  0.11799955190E-01  0.16605589075E-01  0.10199571573E+01  0.10196753922E+01 0.  0.
     999903    2    3    3    0    0 -0.82716228008E-01  0.68004560338E-01 -0.72621595209E-01  0.13089504387E+00  0.19824777859E-01 0.  0.
         14    1    1    2    0    0  0.12637747291E-01 -0.11799955190E-01 -0.16605589075E-01  0.23972842710E-01  0.00000000000E+00 0.  1.
     999901    1    3    3    0    0  0.70078480717E-01 -0.56204605148E-01  0.89227184283E-01  0.88906211342E+00  0.88000000000E+00 0. -1.
        -11    1    4    4    0    0 -0.81481636162E-01  0.64392851354E-01 -0.65460410869E-01  0.12276409430E+00  0.51100000000E-03 0.  1.
         11    1    4    4    0    0 -0.12345918463E-02  0.36117089834E-02 -0.71611843395E-02  0.81309495726E-02  0.51100000000E-03 0. -1.
</event>
<event>
 8    1  0.1199892E+005  0.1043930E+01  0.7957747E-01            NaN
         13   -1    0    0    0    0  0.00000000000E+00  0.00000000000E+00  0.74505805969E-08  0.10566000000E+00  0.10566000000E+00 0. -1.
     999900   -1    0    0    0    0 -0.00000000000E+00 -0.00000000000E+00 -0.74505805969E-08  0.93827000000E+00  0.93827000000E+00 0. -1.
     999902    2    1    2    0    0 -0.16887361563E-01  0.30745281521E-02 -0.18132617796E-01  0.10189614692E+01  0.10186555100E+01 0.  0.
     999903    2    3    3    0    0 -0.11724110921E+00 -0.60903028702E-02  0.52961132324E-01  0.13036190237E+00  0.20168653297E-01 0.  0.
         14    1    1    2    0    0  0.16887361563E-01 -0.30745281521E-02  0.18132617796E-01  0.24968530835E-01  0.00000000000E+00 0. -1.
     999901    1    3    3    0    0  0.10035374765E+00  0.91648310223E-02 -0.71093750121E-01  0.88859956679E+00  0.88000000000E+00 0. -1.
        -11    1    4    4    0    0 -0.49527499895E-01  0.67847929614E-02  0.18572144606E-01  0.53330969780E-01  0.51100000000E-03 0. -1.
         11    1    4    4    0    0 -0.67713609314E-01 -0.12875095832E-01  0.34388987719E-01  0.77030932594E-01  0.51100000000E-03 0.  1.
</event>
<event>
 8    1  0.1199892E+005  0.1043930E+01  0.7957747E-01            NaN
         13   -1    0    0    0    0  0.00000000000E+00  0.00000000000E+00  0.74505805969E-08  0.10566000000E+00  0.10566000000E+00 0.  1.
     999900   -1    0    0    0    0 -0.00000000000E+00 -0.00000000000E+00 -0.74505805969E-08  0.93827000000E+00  0.93827000000E+00 0. -1.
     999902    2    1    2    0    0  0.12444911510E-02  0.10476734944E-01  0.20981099788E-01  0.10204455949E+01  0.10201753256E+01 0.  0.
     999903    2    3    3    0    0 -0.21279914353E-01  0.11437159340E+00 -0.56136202903E-01  0.13069924409E+00  0.19932962560E-01 0.  0.
         14    1    1    2    0    0 -0.12444911510E-02 -0.10476734944E-01 -0.20981099788E-01  0.23484405073E-01  0.00000000000E+00 0. -1.
     999901    1    3    3    0    0  0.22524405504E-01 -0.10389485846E+00  0.77117302691E-01  0.88974635084E+00  0.88000000000E+00 0.  1.
        -11    1    4    4    0    0 -0.51920373169E-02  0.68548871612E-01 -0.25760847857E-01  0.73415171825E-01  0.51100000000E-03 0.  1.
         11    1    4    4    0    0 -0.16087877036E-01  0.45822721791E-01 -0.30375355047E-01  0.57284072263E-01  0.51100000000E-03 0. -1.
</event>
<event>
 8    1  0.1199892E+005  0.1043930E+01  0.7957747E-01            NaN
         13   -1    0    0    0    0  0.00000000000E+00  0.00000000000E+00  0.74505805969E-08  0.10566000000E+00  0.10566000000E+00 0.  1.
     999900   -1    0    0    0    0 -0.00000000000E+00 -0.00000000000E+00 -0.74505805969E-08  0.93827000000E+00  0.93827000000E+00 0.  1.
     999902    2    1    2    0    0 -0.13778531743E-01  0.18714858427E-01  0.12153799188E-02  0.10206583217E+01  0.10203929824E+01 0.  0.
     999903    2    3    3    0    0 -0.10281851168E+00 -0.36613811624E-01 -0.70718833892E-01  0.13152171190E+00  0.19610958368E-01 0.  0.
         14    1    1    2    0    0  0.13778531743E-01 -0.18714858427E-01 -0.12153799188E-02  0.23271678308E-01  0.00000000000E+00 0. -1.
     999901    1    3    3    0    0  0.89039979937E-01  0.55328670051E-01  0.71934213811E-01  0.88913660979E+00  0.88000000000E+00 0. -1.
        -11    1    4    4    0    0 -0.74804011766E-01 -0.23964911514E-01 -0.40346599309E-01  0.88306660887E-01  0.51100000000E-03 0.  1.
         11    1    4    4    0    0 -0.28014499914E-01 -0.12648900111E-01 -0.30372234584E-01  0.43215051013E-01  0.51100000000E-03 0. -1.
</event>
<event>
 8    1  0.1199892E+005  0.1043930E+01  0.7957747E-01            NaN
         13   -1    0    0    0    0  0.00000000000E+00  0.00000000000E+00  0.74505805969E-08  0.10566000000E+00  0.10566000000E+00 0.  1.
     999900   -1    0    0    0    0 -0.00000000000E+00 -0.00000000000E+00 -0.74505805969E-08  0.93827000000E+00  0.93827000000E+00 0.  1.
     999902    2    1    2    0    0  0.19683364968E-01  0.24228143088E-02 -0.13530496834E-01  0.10199221007E+01  0.10196395011E+01 0.  0.
     999903    2    3    3    0    0  0.43472845805E-01 -0.82105672480E-01  0.88216324115E-01  0.12971795552E+00  0.20332200248E-01 0.  0.
         14    1    1    2    0    0 -0.19683364968E-01 -0.24228143088E-02  0.13530496834E-01  0.24007899330E-01  0.00000000000E+00 0.  1.
     999901    1    3    3    0    0 -0.23789480837E-01  0.84528486789E-01 -0.10174682095E+00  0.89020414515E+00  0.88000000000E+00 0.  1.
        -11    1    4    4    0    0  0.32118684488E-01 -0.70042282001E-01  0.62953263251E-01  0.99503294599E-01  0.51100000000E-03 0.  1.
         11    1    4    4    0    0  0.11354161317E-01 -0.12063390479E-01  0.25263060865E-01  0.30214660917E-01  0.51100000000E-03 0. -1.
</event>
<event>
 8    1  0.1199892E+005  0.1043930E+01  0.7957747E-01            NaN
         13   -1    0    0    0    0  0.00000000000E+00  0.00000000000E+00  0.74505805969E-08  0.10566000000E+00  0.10566000000E+00 0. -1.
     999900   -1    0    0    0    0 -0.00000000000E+00 -0.00000000000E+00 -0.74505805969E-08  0.93827000000E+00  0.93827000000E+00 0. -1.
     999902    2    1    2    0    0 -0.98915214501E-02 -0.18502901375E-01  0.12608939328E-01  0.10194517462E+01  0.10191578278E+01 0.  0.
     999903    2    3    3    0    0 -0.22916835340E-01 -0.97352640543E-02 -0.12473687580E+00  0.12865973730E+00  0.19341228234E-01 0.  0.
         14    1    1    2    0    0  0.98915214501E-02  0.18502901375E-01 -0.12608939328E-01  0.24478253754E-01  0.00000000000E+00 0.  1.
     999901    1    3    3    0    0  0.13025313890E-01 -0.87676373204E-02  0.13734581513E+00  0.89079200894E+00  0.88000000000E+00 0.  1.
        -11    1    4    4    0    0 -0.59963044551E-02 -0.10931197215E-01 -0.31325924555E-01  0.33719748070E-01  0.51100000000E-03 0.  1.
         11    1    4    4    0    0 -0.16920530885E-01  0.11959331608E-02 -0.93410951245E-01  0.94939989231E-01  0.51100000000E-03 0. -1.
</event>
<event>
 8    1  0.1199892E+005  0.1043930E+01  0.7957747E-01            NaN
         13   -1    0    0    0    0  0.00000000000E+00  0.00000000000E+00  0.74505805969E-08  0.10566000000E+00  0.10566000000E+00 0. -1.
     999900   -1    0    0    0    0 -0.00000000000E+00 -0.00000000000E+00 -0.74505805969E-08  0.93827000000E+00  0.93827000000E+00 0. -1.
     999902    2    1    2    0    0 -0.19515990153E-01 -0.63759292020E-02 -0.21637923868E-02  0.10232851861E+01  0.10230769100E+01 0.  0.
     999903    2    3    3    0    0 -0.54775010667E-03 -0.11040983320E+00 -0.73472421165E-01  0.13409017492E+00  0.19782493302E-01 0.  0.
         14    1    1    2    0    0  0.19515990153E-01  0.63759292020E-02  0.21637923868E-02  0.20644813933E-01  0.00000000000E+00 0.  1.
     999901    1    3    3    0    0 -0.18968240046E-01  0.10403390400E+00  0.71308628778E-01  0.88919501115E+00  0.88000000000E+00 0.  1.
        -11    1    4    4    0    0  0.59733951394E-02 -0.30847720139E-01 -0.28717275779E-01  0.42570016872E-01  0.51100000000E-03 0.  1.
         11    1    4    4    0    0 -0.65211452461E-02 -0.79562113058E-01 -0.44755145386E-01  0.91520158048E-01  0.51100000000E-03 0. -1.
</event>
<event>
 8    1  0.1199892E+005  0.1043930E+01  0.7957747E-01            NaN
         13   -1    0    0    0    0  0.00000000000E+00  0.00000000000E+00  0.74505805969E-08  0.10566000000E+00  0.10566000000E+00 0.  1.
     999900   -1    0    0    0    0 -0.00000000000E+00 -0.00000000000E+00 -0.74505805969E-08  0.93827000000E+00  0.93827000000E+00 0. -1.
     999902    2    1    2    0    0  0.42147077846E-02 -0.61307330937E-02 -0.22618580555E-01  0.10201192916E+01  0.10198413696E+01 0.  0.
     999903    2    3    3    0    0  0.14059710085E-01  0.14996541019E-01 -0.12999514572E+00  0.13328615476E+00  0.21068684083E-01 0.  0.
         14    1    1    2    0    0 -0.42147077846E-02  0.61307330937E-02  0.22618580555E-01  0.23810708438E-01  0.00000000000E+00 0.  1.
     999901    1    3    3    0    0 -0.98450023002E-02 -0.21127274113E-01  0.10737656517E+00  0.88683313680E+00  0.88000000000E+00 0.  1.
        -11    1    4    4    0    0  0.90932440945E-03  0.97914662079E-03 -0.75235456469E-01  0.75249057337E-01  0.51100000000E-03 0.  1.
         11    1    4    4    0    0  0.13150385675E-01  0.14017394399E-01 -0.54759689255E-01  0.58037097424E-01  0.51100000000E-03 0. -1.
</event>
<event>
 8    1  0.1199892E+005  0.1043930E+01  0.7957747E-01            NaN
         13   -1    0    0    0    0  0.00000000000E+00  0.00000000000E+00  0.74505805969E-08  0.10566000000E+00  0.10566000000E+00 0. -1.
     999900   -1    0    0    0    0 -0.00000000000E+00 -0.00000000000E+00 -0.74505805969E-08  0.93827000000E+00  0.93827000000E+00 0. -1.
     999902    2    1    2    0    0  0.22681089478E-01  0.39433901641E-02  0.90686634262E-02  0.10191868635E+01  0.10188864706E+01 0.  0.
     999903    2    3    3    0    0 -0.12057216279E+00 -0.91788479980E-02  0.34516509239E-01  0.12714354604E+00  0.18766837742E-01 0.  0.
         14    1    1    2    0    0 -0.22681089478E-01 -0.39433901641E-02 -0.90686634262E-02  0.24743136468E-01  0.00000000000E+00 0. -1.
     999901    1    3    3    0    0  0.14325325227E+00  0.13122238162E-01 -0.25447845813E-01  0.89204331749E+00  0.88000000000E+00 0.  1.
        -11    1    4    4    0    0 -0.26849693004E-01  0.36215390710E-02  0.13362091652E-01  0.30213046419E-01  0.51100000000E-03 0. -1.
         11    1    4    4    0    0 -0.93722469791E-01 -0.12800387069E-01  0.21154417587E-01  0.96930499623E-01  0.51100000000E-03 0.  1.
</event>
<event>
 8    1  0.1199892E+005  0.1043930E+01  0.7957747E-01            NaN
         13   -1    0    0    0    0  0.00000000000E+00  0.00000000000E+00  0.74505805969E-08  0.10566000000E+00  0.10566000000E+00 0.  1.
     999900   -1    0    0    0    0 -0.00000000000E+00 -0.00000000000E+00 -0.74505805969E-08  0.93827000000E+00  0.93827000000E+00 0. -1.
     999902    2    1    2    0    0 -0.16716113894E-01 -0.15373990420E-01 -0.66391881521E-02  0.10202684940E+01  0.10199940848E+01 0.  0.
     999903    2    3    3    0    0  0.11750121855E+00 -0.44916966974E-01  0.22207879550E-01  0.12913481545E+00  0.18935162095E-01 0.  0.
         14    1    1    2    0    0  0.16716113894E-01  0.15373990420E-01  0.66391881521E-02  0.23661505964E-01  0.00000000000E+00 0. -1.
     999901    1    3    3    0    0 -0.13421733245E+00  0.29542976554E-01 -0.28847067703E-01  0.89113367858E+00  0.88000000000E+00 0.  1.
        -11    1    4    4    0    0  0.43951201344E-01 -0.88044236654E-02  0.27164374776E-02  0.44909532721E-01  0.51100000000E-03 0.  1.
         11    1    4    4    0    0  0.73550017211E-01 -0.36112543308E-01  0.19491442073E-01  0.84225282730E-01  0.51100000000E-03 0. -1.
</event>
<event>
 8    1  0.1199892E+005  0.1043930E+01  0.7957747E-01            NaN
         13   -1    0    0    0    0  0.00000000000E+00  0.00000000000E+00  0.74505805969E-08  0.10566000000E+00  0.10566000000E+00 0.  1.
     999900   -1    0    0    0    0 -0.00000000000E+00 -0.00000000000E+00 -0.74505805969E-08  0.93827000000E+00  0.93827000000E+00 0.  1.
     999902    2    1    2    0    0 -0.89763737683E-02 -0.21429134581E-01 -0.30639254046E-02  0.10204956079E+01  0.10202265018E+01 0.  0.
     999903    2    3    3    0    0  0.67465043144E-01  0.82950633075E-01  0.67766024251E-01  0.12822025359E+00  0.20392641166E-01 0.  0.
         14    1    1    2    0    0  0.89763737683E-02  0.21429134581E-01  0.30639254046E-02  0.23434392115E-01  0.00000000000E+00 0.  1.
     999901    1    3    3    0    0 -0.76441416912E-01 -0.10437976766E+00 -0.70829949655E-01  0.89227535430E+00  0.88000000000E+00 0.  1.
        -11    1    4    4    0    0  0.42979594724E-01  0.39554061390E-01  0.29802223386E-01  0.65575932893E-01  0.51100000000E-03 0. -1.
         11    1    4    4    0    0  0.24485448420E-01  0.43396571685E-01  0.37963800865E-01  0.62644320696E-01  0.51100000000E-03 0.  1.
</event>
<event>
 8    1  0.1199892E+005  0.1043930E+01  0.7957747E-01            NaN
         13   -1    0    0    0    0  0.00000000000E+00  0.00000000000E+00  0.74505805969E-08  0.10566000000E+00  0.10566000000E+00 0. -1.
     999900   -1    0    0    0    0 -0.00000000000E+00 -0.00000000000E+00 -0.74505805969E-08  0.93827000000E+00  0.93827000000E+00 0.  1.
     999902    2    1    2    0    0  0.72497545462E-02 -0.24285163384E-02 -0.17595082628E-01  0.10247455384E+01  0.10245659447E+01 0.  0.
     999903    2    3    3    0    0  0.12049723651E+00  0.33724931906E-01  0.45193461141E-01  0.13453518958E+00  0.20007830170E-01 0.  0.
         14    1    1    2    0    0 -0.72497545462E-02  0.24285163384E-02  0.17595082628E-01  0.19184461558E-01  0.00000000000E+00 0. -1.
     999901    1    3    3    0    0 -0.11324748196E+00 -0.36153448244E-01 -0.62788543769E-01  0.89021034886E+00  0.88000000000E+00 0.  1.
        -11    1    4    4    0    0  0.44142280871E-01  0.21721635413E-01  0.21485306274E-01  0.53686589686E-01  0.51100000000E-03 0. -1.
         11    1    4    4    0    0  0.76354955635E-01  0.12003296493E-01  0.23708154867E-01  0.80848599895E-01  0.51100000000E-03 0.  1.
</event>
<event>
 8    1  0.1199892E+005  0.1043930E+01  0.7957747E-01            NaN
         13   -1    0    0    0    0  0.00000000000E+00  0.00000000000E+00  0.74505805969E-08  0.10566000000E+00  0.10566000000E+00 0.  1.
     999900   -1    0    0    0    0 -0.00000000000E+00 -0.00000000000E+00 -0.74505805969E-08  0.93827000000E+00  0.93827000000E+00 0. -1.
     999902    2    1    2    0    0  0.74108308398E-02 -0.82807613990E-03  0.21559280209E-01  0.10211175322E+01  0.10208626773E+01 0.  0.
     999903    2    3    3    0    0  0.12675059028E+00 -0.31860977147E-01  0.63576766824E-02  0.13239029178E+00  0.20147836199E-01 0.  0.
         14    1    1    2    0    0 -0.74108308398E-02  0.82807613990E-03 -0.21559280209E-01  0.22812467796E-01  0.00000000000E+00 0. -1.
     999901    1    3    3    0    0 -0.11933975944E+00  0.31032901007E-01  0.15201603527E-01  0.88872724043E+00  0.88000000000E+00 0.  1.
        -11    1    4    4    0    0  0.40548787403E-01 -0.17606667232E-01  0.83632806672E-02  0.44993382573E-01  0.51100000000E-03 0.  1.
         11    1    4    4    0    0  0.86201802874E-01 -0.14254309914E-01 -0.20056039848E-02  0.87396909203E-01  0.51100000000E-03 0. -1.
</event>
<event>
 8    1  0.1199892E+005  0.1043930E+01  0.7957747E-01            NaN
         13   -1    0    0    0    0  0.00000000000E+00  0.00000000000E+00  0.74505805969E-08  0.10566000000E+00  0.10566000000E+00 0.  1.
     999900   -1    0    0    0    0 -0.00000000000E+00 -0.00000000000E+00 -0.74505805969E-08  0.93827000000E+00  0.93827000000E+00 0.  1.
     999902    2    1    2    0    0  0.88508085722E-02 -0.14492782610E-01 -0.16410081412E-01  0.10203149977E+01  0.10200416787E+01 0.  0.
     999903    2    3    3    0    0 -0.65945059851E-01 -0.82095383507E-01 -0.78278875395E-01  0.13240042907E+00  0.17716895096E-01 0.  0.
         14    1    1    2    0    0 -0.88508085722E-02  0.14492782610E-01  0.16410081412E-01  0.23615002268E-01  0.00000000000E+00 0.  1.
     999901    1    3    3    0    0  0.74795868423E-01  0.67602600897E-01  0.61868793983E-01  0.88791456867E+00  0.88000000000E+00 0. -1.
        -11    1    4    4    0    0 -0.60650440083E-01 -0.73108772168E-01 -0.63340195753E-01  0.11417359576E+00  0.51100000000E-03 0. -1.
         11    1    4    4    0    0 -0.52946197678E-02 -0.89866113388E-02 -0.14938679642E-01  0.18226833304E-01  0.51100000000E-03 0.  1.
</event>
<event>
 8    1  0.1199892E+005  0.1043930E+01  0.7957747E-01            NaN
         13   -1    0    0    0    0  0.00000000000E+00  0.00000000000E+00  0.74505805969E-08  0.10566000000E+00  0.10566000000E+00 0. -1.
     999900   -1    0    0    0    0 -0.00000000000E+00 -0.00000000000E+00 -0.74505805969E-08  0.93827000000E+00  0.93827000000E+00 0. -1.
     999902    2    1    2    0    0 -0.61701686455E-02  0.19871254917E-01 -0.11658248749E-01  0.10200793707E+01  0.10198005050E+01 0.  0.
     999903    2    3    3    0    0  0.47846704024E-01 -0.34068207973E-01  0.11212200591E+00  0.12814392483E+00  0.19989281671E-01 0.  0.
         14    1    1    2    0    0  0.61701686455E-02 -0.19871254917E-01  0.11658248749E-01  0.23850629279E-01  0.00000000000E+00 0. -1.
     999901    1    3    3    0    0 -0.54016872670E-01  0.53939462890E-01 -0.12378025466E+00  0.89193544589E+00  0.88000000000E+00 0. -1.
        -11    1    4    4    0    0  0.32402376279E-01 -0.14749356804E-01  0.50941735100E-01  0.62151259124E-01  0.51100000000E-03 0. -1.
         11    1    4    4    0    0  0.15444327745E-01 -0.19318851168E-01  0.61180270810E-01  0.65992665709E-01  0.51100000000E-03 0.  1.
</event>
<event>
 8    1  0.1199892E+005  0.1043930E+01  0.7957747E-01            NaN
         13   -1    0    0    0    0  0.00000000000E+00  0.00000000000E+00  0.74505805969E-08  0.10566000000E+00  0.10566000000E+00 0.  1.
     999900   -1    0    0    0    0 -0.00000000000E+00 -0.00000000000E+00 -0.74505805969E-08  0.93827000000E+00  0.93827000000E+00 0.  1.
     999902    2    1    2    0    0 -0.52312001812E-02 -0.24547876052E-01  0.84443790086E-02  0.10174484742E+01  0.10171037933E+01 0.  0.
     999903    2    3    3    0    0 -0.79430018092E-02 -0.12676194516E+00 -0.24732140994E-01  0.13090701925E+00  0.19831461674E-01 0.  0.
         14    1    1    2    0    0  0.52312001812E-02  0.24547876052E-01 -0.84443790086E-02  0.26481525841E-01  0.00000000000E+00 0.  1.
     999901    1    3    3    0    0  0.27118016280E-02  0.10221406911E+00  0.33176520003E-01  0.88654145491E+00  0.88000000000E+00 0.  1.
        -11    1    4    4    0    0 -0.31278673336E-02 -0.36710434096E-01  0.18376678159E-02  0.36892786145E-01  0.51100000000E-03 0.  1.
         11    1    4    4    0    0 -0.48151344756E-02 -0.90051511066E-01 -0.26569808810E-01  0.94014233106E-01  0.51100000000E-03 0. -1.
</event>
<event>
 8    1  0.1199892E+005  0.1043930E+01  0.7957747E-01            NaN
         13   -1    0    0    0    0  0.00000000000E+00  0.00000000000E+00  0.74505805969E-08  0.10566000000E+00  0.10566000000E+00 0.  1.
     999900   -1    0    0    0    0 -0.00000000000E+00 -0.00000000000E+00 -0.74505805969E-08  0.93827000000E+00  0.93827000000E+00 0. -1.
     999902    2    1    2    0    0 -0.19499518685E-01  0.99752003635E-02 -0.96006784677E-02  0.10200153836E+01  0.10197350018E+01 0.  0.
     999903    2    3    3    0    0  0.47621786194E-01  0.65681092118E-01  0.98446801065E-01  0.12912668471E+00  0.20002191952E-01 0.  0.
         14    1    1    2    0    0  0.19499518685E-01 -0.99752003635E-02  0.96006784677E-02  0.23914616415E-01  0.00000000000E+00 0.  1.
     999901    1    3    3    0    0 -0.67121304879E-01 -0.55705891755E-01 -0.10804747953E+00  0.89088869887E+00  0.88000000000E+00 0. -1.
        -11    1    4    4    0    0  0.18336015906E-01  0.42176877734E-01  0.53197002657E-01  0.70322689847E-01  0.51100000000E-03 0.  1.
         11    1    4    4    0    0  0.29285770288E-01  0.23504214384E-01  0.45249798407E-01  0.58803994865E-01  0.51100000000E-03 0. -1.
</event>
<event>
 8    1  0.1199892E+005  0.1043930E+01  0.7957747E-01            NaN
         13   -1    0    0    0    0  0.00000000000E+00  0.00000000000E+00  0.74505805969E-08  0.10566000000E+00  0.10566000000E+00 0. -1.
     999900   -1    0    0    0    0 -0.00000000000E+00 -0.00000000000E+00 -0.74505805969E-08  0.93827000000E+00  0.93827000000E+00 0.  1.
     999902    2    1    2    0    0 -0.37942834172E-02  0.10552294388E-01 -0.20917689044E-01  0.10201961167E+01  0.10199200063E+01 0.  0.
     999903    2    3    3    0    0 -0.65441992969E-01 -0.91458302708E-01  0.59104542094E-01  0.12856269451E+00  0.19691214950E-01 0.  0.
         14    1    1    2    0    0  0.37942834172E-02 -0.10552294388E-01  0.20917689044E-01  0.23733883341E-01  0.00000000000E+00 0. -1.
     999901    1    3    3    0    0  0.61647709552E-01  0.10201059710E+00 -0.80022231138E-01  0.89163342215E+00  0.88000000000E+00 0.  1.
        -11    1    4    4    0    0 -0.42422927251E-01 -0.51542824768E-01  0.44473635459E-01  0.80215540349E-01  0.51100000000E-03 0.  1.
         11    1    4    4    0    0 -0.23019065718E-01 -0.39915477940E-01  0.14630906635E-01  0.48347154163E-01  0.51100000000E-03 0. -1.
</event>
<event>
 8    1  0.1199892E+005  0.1043930E+01  0.7957747E-01            NaN
         13   -1    0    0    0    0  0.00000000000E+00  0.00000000000E+00  0.74505805969E-08  0.10566000000E+00  0.10566000000E+00 0. -1.
     999900   -1    0    0    0    0 -0.00000000000E+00 -0.00000000000E+00 -0.74505805969E-08  0.93827000000E+00  0.93827000000E+00 0. -1.
     999902    2    1    2    0    0  0.17951152121E-01  0.87022069305E-02  0.12605126578E-01  0.10203320873E+01  0.10200591683E+01 0.  0.
     999903    2    3    3    0    0 -0.88435211952E-01  0.85210815317E-01 -0.35103458393E-01  0.12935075489E+00  0.20437593772E-01 0.  0.
         14    1    1    2    0    0 -0.17951152121E-01 -0.87022069305E-02 -0.12605126578E-01  0.23597912704E-01  0.00000000000E+00 0.  1.
     999901    1    3    3    0    0  0.10638636407E+00 -0.76508608387E-01  0.47708584971E-01  0.89098133241E+00  0.88000000000E+00 0.  1.
        -11    1    4    4    0    0 -0.45061120596E-01  0.51801603127E-01 -0.11029023997E-01  0.69539996888E-01  0.51100000000E-03 0.  1.
         11    1    4    4    0    0 -0.43374091356E-01  0.33409212190E-01 -0.24074434396E-01  0.59810758001E-01  0.51100000000E-03 0. -1.
</event>
<event>
 8    1  0.1199892E+005  0.1043930E+01  0.7957747E-01            NaN
         13   -1    0    0    0    0  0.00000000000E+00  0.00000000000E+00  0.74505805969E-08  0.10566000000E+00  0.10566000000E+00 0. -1.
     999900   -1    0    0    0    0 -0.00000000000E+00 -0.00000000000E+00 -0.74505805969E-08  0.93827000000E+00  0.93827000000E+00 0. -1.
     999902    2    1    2    0    0  0.17646284355E-01 -0.13416948529E-01 -0.85266289413E-02  0.10201790156E+01  0.10199025025E+01 0.  0.
     999903    2    3    3    0    0  0.33924991926E-01 -0.12640875751E+00 -0.11591066064E-01  0.13279998947E+00  0.19271879507E-01 0.  0.
         14    1    1    2    0    0 -0.17646284355E-01  0.13416948529E-01  0.85266289413E-02  0.23750984410E-01  0.00000000000E+00 0.  1.
     999901    1    3    3    0    0 -0.16278707571E-01  0.11299180898E+00  0.30644371225E-02  0.88737902612E+00  0.88000000000E+00 0.  1.
        -11    1    4    4    0    0  0.29946736409E-01 -0.78831131746E-01 -0.37373515660E-02  0.84411985356E-01  0.51100000000E-03 0. -1.
         11    1    4    4    0    0  0.39782555169E-02 -0.47577625761E-01 -0.78537144978E-02  0.48388004117E-01  0.51100000000E-03 0.  1.
</event>
<event>
 8    1  0.1199892E+005  0.1043930E+01  0.7957747E-01            NaN
         13   -1    0    0    0    0  0.00000000000E+00  0.00000000000E+00  0.74505805969E-08  0.10566000000E+00  0.10566000000E+00 0. -1.
     999900   -1    0    0    0    0 -0.00000000000E+00 -0.00000000000E+00 -0.74505805969E-08  0.93827000000E+00  0.93827000000E+00 0. -1.
     999902    2    1    2    0    0  0.16225719520E-01  0.17840803274E-01  0.51114918467E-02  0.10192785176E+01  0.10189803732E+01 0.  0.
     999903    2    3    3    0    0 -0.75404333949E-02 -0.12200407021E+00  0.28296370666E-01  0.12761773162E+00  0.23318437886E-01 0.  0.
         14    1    1    2    0    0 -0.16225719520E-01 -0.17840803274E-01 -0.51114918467E-02  0.24651482396E-01  0.00000000000E+00 0.  1.
     999901    1    3    3    0    0  0.23766152915E-01  0.13984487349E+00 -0.23184878819E-01  0.89166078599E+00  0.88000000000E+00 0. -1.
        -11    1    4    4    0    0 -0.10119477849E-01 -0.10493288071E+00  0.16507251941E-01  0.10670550020E+00  0.51100000000E-03 0. -1.
         11    1    4    4    0    0  0.25790444542E-02 -0.17071189508E-01  0.11789118725E-01  0.20912231416E-01  0.51100000000E-03 0.  1.
</event>
<event>
 8    1  0.1199892E+005  0.1043930E+01  0.7957747E-01            NaN
         13   -1    0    0    0    0  0.00000000000E+00  0.00000000000E+00  0.74505805969E-08  0.10566000000E+00  0.10566000000E+00 0.  1.
     999900   -1    0    0    0    0 -0.00000000000E+00 -0.00000000000E+00 -0.74505805969E-08  0.93827000000E+00  0.93827000000E+00 0.  1.
     999902    2    1    2    0    0  0.94839706986E-02  0.17770451827E-01 -0.11702623271E-01  0.10206343770E+01  0.10203684852E+01 0.  0.
     999903    2    3    3    0    0 -0.64525904157E-01 -0.10666340443E+00  0.22128115776E-01  0.12816266035E+00  0.19883154915E-01 0.  0.
         14    1    1    2    0    0 -0.94839706986E-02 -0.17770451827E-01  0.11702623271E-01  0.23295622974E-01  0.00000000000E+00 0. -1.
     999901    1    3    3    0    0  0.74009874856E-01  0.12443385625E+00 -0.33830739047E-01  0.89247171667E+00  0.88000000000E+00 0.  1.
        -11    1    4    4    0    0 -0.36560262723E-01 -0.47140022473E-01  0.32830457439E-02  0.59748422904E-01  0.51100000000E-03 0. -1.
         11    1    4    4    0    0 -0.27965641434E-01 -0.59523381954E-01  0.18845070032E-01  0.68414237448E-01  0.51100000000E-03 0.  1.
</event>
<event>
 8    1  0.1199892E+005  0.1043930E+01  0.7957747E-01            NaN
         13   -1    0    0    0    0  0.00000000000E+00  0.00000000000E+00  0.74505805969E-08  0.10566000000E+00  0.10566000000E+00 0. -1.
     999900   -1    0    0    0    0 -0.00000000000E+00 -0.00000000000E+00 -0.74505805969E-08  0.93827000000E+00  0.93827000000E+00 0.  1.
     999902    2    1    2    0    0  0.45973448135E-02  0.21924613610E-01  0.17504518603E-02  0.10214602794E+01  0.10212131090E+01 0.  0.
     999903    2    3    3    0    0  0.69961171065E-01  0.11133763036E+00 -0.18971795523E-01  0.13427567130E+00  0.19478025734E-01 0.  0.
         14    1    1    2    0    0 -0.45973448135E-02 -0.21924613610E-01 -0.17504518603E-02  0.22469720581E-01  0.00000000000E+00 0.  1.
     999901    1    3    3    0    0 -0.65363826252E-01 -0.89413016750E-01  0.20722247384E-01  0.88718460812E+00  0.88000000000E+00 0. -1.
        -11    1    4    4    0    0  0.54250696234E-01  0.98390730902E-01 -0.18745455902E-01  0.11391017166E+00  0.51100000000E-03 0.  1.
         11    1    4    4    0    0  0.15710474831E-01  0.12946899459E-01 -0.22633962145E-03  0.20365499641E-01  0.51100000000E-03 0. -1.
</event>
<event>
 8    1  0.1199892E+005  0.1043930E+01  0.7957747E-01            NaN
         13   -1    0    0    0    0  0.00000000000E+00  0.00000000000E+00  0.74505805969E-08  0.10566000000E+00  0.10566000000E+00 0.  1.
     999900   -1    0    0    0    0 -0.00000000000E+00 -0.00000000000E+00 -0.74505805969E-08  0.93827000000E+00  0.93827000000E+00 0.  1.
     999902    2    1    2    0    0  0.14112523281E-01 -0.19828881926E-01 -0.36744266231E-02  0.10193159942E+01  0.10190187666E+01 0.  0.
     999903    2    3    3    0    0  0.83016676690E-01  0.52723672066E-01 -0.82981622118E-01  0.13010213536E+00  0.19210981531E-01 0.  0.
         14    1    1    2    0    0 -0.14112523281E-01  0.19828881926E-01  0.36744266231E-02  0.24614005826E-01  0.00000000000E+00 0.  1.
     999901    1    3    3    0    0 -0.68904153409E-01 -0.72552553992E-01  0.79307195495E-01  0.88921385881E+00  0.88000000000E+00 0. -1.
        -11    1    4    4    0    0  0.33742484134E-01  0.28026736584E-01 -0.26846464824E-01  0.51430020354E-01  0.51100000000E-03 0.  1.
         11    1    4    4    0    0  0.49274192556E-01  0.24696935482E-01 -0.56135157294E-01  0.78672115008E-01  0.51100000000E-03 0. -1.
</event>
<event>
 8    1  0.1199892E+005  0.1043930E+01  0.7957747E-01            NaN
         13   -1    0    0    0    0  0.00000000000E+00  0.00000000000E+00  0.74505805969E-08  0.10566000000E+00  0.10566000000E+00 0. -1.
     999900   -1    0    0    0    0 -0.00000000000E+00 -0.00000000000E+00 -0.74505805969E-08  0.93827000000E+00  0.93827000000E+00 0.  1.
     999902    2    1    2    0    0 -0.17702035572E-01 -0.56055920704E-03 -0.13814977553E-01  0.10214682571E+01  0.10212212641E+01 0.  0.
     999903    2    3    3    0    0  0.42353458364E-02 -0.57291757614E-01  0.11477351535E+00  0.13004541798E+00  0.20941997653E-01 0.  0.
         14    1    1    2    0    0  0.17702035572E-01  0.56055920704E-03  0.13814977553E-01  0.22461742916E-01  0.00000000000E+00 0. -1.
     999901    1    3    3    0    0 -0.21937381409E-01  0.56731198407E-01 -0.12858849290E+00  0.89142283911E+00  0.88000000000E+00 0.  1.
        -11    1    4    4    0    0 -0.83045276236E-02 -0.20665399128E-01  0.37586427808E-01  0.43692385796E-01  0.51100000000E-03 0.  1.
         11    1    4    4    0    0  0.12539873460E-01 -0.36626358486E-01  0.77187087543E-01  0.86353032180E-01  0.51100000000E-03 0. -1.
</event>
<event>
 8    1  0.1199892E+005  0.1043930E+01  0.7957747E-01            NaN
         13   -1    0    0    0    0  0.00000000000E+00  0.00000000000E+00  0.74505805969E-08  0.10566000000E+00  0.10566000000E+00 0.  1.
     999900   -1    0    0    0    0 -0.00000000000E+00 -0.00000000000E+00 -0.74505805969E-08  0.93827000000E+00  0.93827000000E+00 0. -1.
     999902    2    1    2    0    0  0.17225605270E-01 -0.15786431914E-01 -0.52849152408E-02  0.10199745572E+01  0.10196932059E+01 0.  0.
     999903    2    3    3    0    0 -0.89429192792E-01  0.32594075417E-01  0.82704731784E-01  0.12786576485E+00  0.21204407247E-01 0.  0.
         14    1    1    2    0    0 -0.17225605270E-01  0.15786431914E-01  0.52849152408E-02  0.23955442776E-01  0.00000000000E+00 0.  1.
     999901    1    3    3    0    0  0.10665479806E+00 -0.48380507330E-01 -0.87989647024E-01  0.89210879237E+00  0.88000000000E+00 0. -1.
        -11    1    4    4    0    0 -0.11474121313E-02  0.47872239062E-02  0.38254647339E-02  0.62553472131E-02  0.51100000000E-03 0. -1.
         11    1    4    4    0    0 -0.88281780661E-01  0.27806851510E-01  0.78879267050E-01  0.12161041764E+00  0.51100000000E-03 0.  1.
</event>
<event>
 8    1  0.1199892E+005  0.1043930E+01  0.7957747E-01            NaN
         13   -1    0    0    0    0  0.00000000000E+00  0.00000000000E+00  0.74505805969E-08  0.10566000000E+00  0.10566000000E+00 0. -1.
     999900   -1    0    0    0    0 -0.00000000000E+00 -0.00000000000E+00 -0.74505805969E-08  0.93827000000E+00  0.93827000000E+00 0. -1.
     999902    2    1    2    0    0  0.12528278179E-01 -0.82000601722E-02  0.18037605650E-01  0.10204874328E+01  0.10202181367E+01 0.  0.
     999903    2    3    3    0    0 -0.80397918523E-01 -0.82570587310E-01 -0.55377861220E-01  0.12944529902E+00  0.20190362373E-01 0.  0.
         14    1    1    2    0    0 -0.12528278179E-01  0.82000601722E-02 -0.18037605650E-01  0.23442567234E-01  0.00000000000E+00 0.  1.
     999901    1    3    3    0    0  0.92926196702E-01  0.74370527137E-01  0.73415466870E-01  0.89104213375E+00  0.88000000000E+00 0.  1.
        -11    1    4    4    0    0 -0.46820467220E-01 -0.51957512330E-01 -0.22918683535E-01  0.73602081588E-01  0.51100000000E-03 0. -1.
         11    1    4    4    0    0 -0.33577451303E-01 -0.30613074980E-01 -0.32459177686E-01  0.55843217428E-01  0.51100000000E-03 0.  1.
</event>
<event>
 8    1  0.1199892E+005  0.1043930E+01  0.7957747E-01            NaN
         13   -1    0    0    0    0  0.00000000000E+00  0.00000000000E+00  0.74505805969E-08  0.10566000000E+00  0.10566000000E+00 0.  1.
     999900   -1    0    0    0    0 -0.00000000000E+00 -0.00000000000E+00 -0.74505805969E-08  0.93827000000E+00  0.93827000000E+00 0. -1.
     999902    2    1    2    0    0  0.18872705282E-01  0.39756866527E-02 -0.15140313667E-01  0.10194103306E+01  0.10191154046E+01 0.  0.
     999903    2    3    3    0    0  0.10097606249E+00 -0.57882459467E-01  0.55618189257E-01  0.13060542669E+00  0.20441384329E-01 0.  0.
         14    1    1    2    0    0 -0.18872705282E-01 -0.39756866527E-02  0.15140313667E-01  0.24519669389E-01  0.00000000000E+00 0.  1.
     999901    1    3    3    0    0 -0.82103357209E-01  0.61858146120E-01 -0.70758502924E-01  0.88880490393E+00  0.88000000000E+00 0. -1.
        -11    1    4    4    0    0  0.88086871518E-01 -0.42215978066E-01  0.43152680780E-01  0.10678904774E+00  0.51100000000E-03 0. -1.
         11    1    4    4    0    0  0.12889190973E-01 -0.15666481402E-01  0.12465508477E-01  0.23816378944E-01  0.51100000000E-03 0.  1.
</event>
<event>
 8    1  0.1199892E+005  0.1043930E+01  0.7957747E-01            NaN
         13   -1    0    0    0    0  0.00000000000E+00  0.00000000000E+00  0.74505805969E-08  0.10566000000E+00  0.10566000000E+00 0.  1.
     999900   -1    0    0    0    0 -0.00000000000E+00 -0.00000000000E+00 -0.74505805969E-08  0.93827000000E+00  0.93827000000E+00 0. -1.
     999902    2    1    2    0    0  0.15321819900E-01  0.20274922018E-02 -0.19413914915E-01  0.10191153071E+01  0.10188131528E+01 0.  0.
     999903    2    3    3    0    0 -0.59405775522E-02 -0.12675423958E+00 -0.16432967043E-01  0.12948296170E+00  0.19846089125E-01 0.  0.
         14    1    1    2    0    0 -0.15321819900E-01 -0.20274922018E-02  0.19413914915E-01  0.24814692865E-01  0.00000000000E+00 0.  1.
     999901    1    3    3    0    0  0.21262397452E-01  0.12878173178E+00 -0.29809478721E-02  0.88963234543E+00  0.88000000000E+00 0. -1.
        -11    1    4    4    0    0  0.57305934322E-02 -0.76775807785E-01 -0.71239503724E-02  0.77319959597E-01  0.51100000000E-03 0. -1.
         11    1    4    4    0    0 -0.11671170984E-01 -0.49978431792E-01 -0.93090166707E-02  0.52163002108E-01  0.51100000000E-03 0.  1.
</event>
<event>
 8    1  0.1199892E+005  0.1043930E+01  0.7957747E-01            NaN
         13   -1    0    0    0    0  0.00000000000E+00  0.00000000000E+00  0.74505805969E-08  0.10566000000E+00  0.10566000000E+00 0. -1.
     999900   -1    0    0    0    0 -0.00000000000E+00 -0.00000000000E+00 -0.74505805969E-08  0.93827000000E+00  0.93827000000E+00 0. -1.
     999902    2    1    2    0    0 -0.10356715777E-01  0.10359974950E-01 -0.18268700817E-01  0.10205134231E+01  0.10202447308E+01 0.  0.
     999903    2    3    3    0    0 -0.51126633764E-01  0.11403984118E+00  0.36901595695E-01  0.13177529382E+00  0.19595464796E-01 0.  0.
         14    1    1    2    0    0  0.10356715777E-01 -0.10359974950E-01  0.18268700817E-01  0.23416576867E-01  0.00000000000E+00 0. -1.
     999901    1    3    3    0    0  0.40769917987E-01 -0.10367986623E+00 -0.55170296511E-01  0.88873812931E+00  0.88000000000E+00 0. -1.
        -11    1    4    4    0    0 -0.24223137697E-01  0.33994409727E-01  0.16582718456E-01  0.44918013813E-01  0.51100000000E-03 0. -1.
         11    1    4    4    0    0 -0.26903496067E-01  0.80045431454E-01  0.20318877239E-01  0.86857280008E-01  0.51100000000E-03 0.  1.
</event>
<event>
 8    1  0.1199892E+005  0.1043930E+01  0.7957747E-01            NaN
         13   -1    0    0    0    0  0.00000000000E+00  0.00000000000E+00  0.74505805969E-08  0.10566000000E+00  0.10566000000E+00 0.  1.
     999900   -1    0    0    0    0 -0.00000000000E+00 -0.00000000000E+00 -0.74505805969E-08  0.93827000000E+00  0.93827000000E+00 0. -1.
     999902    2    1    2    0    0  0.65949784364E-02  0.20345113899E-01 -0.93122531390E-02  0.10206032887E+01  0.10203366785E+01 0.  0.
     999903    2    3    3    0    0 -0.12749180495E+00 -0.75186740123E-02 -0.14360296508E-01  0.12999611444E+00  0.19546888916E-01 0.  0.
         14    1    1    2    0    0 -0.65949784364E-02 -0.20345113899E-01  0.93122531390E-02  0.23326711270E-01  0.00000000000E+00 0.  1.
     999901    1    3    3    0    0  0.13408678338E+00  0.27863787912E-01  0.50480433690E-02  0.89060717429E+00  0.88000000000E+00 0. -1.
        -11    1    4    4    0    0 -0.28191590842E-01 -0.23553411645E-02  0.48908815904E-02  0.28714025666E-01  0.51100000000E-03 0. -1.
         11    1    4    4    0    0 -0.99300214105E-01 -0.51633328479E-02 -0.19251178098E-01  0.10128208877E+00  0.51100000000E-03 0.  1.
</event>
<event>
 8    1  0.1357773E+005  0.1043930E+01  0.7957747E-01            NaN
         13   -1    0    0    0    0  0.00000000000E+00  0.00000000000E+00  0.74505805969E-08  0.10566000000E+00  0.10566000000E+00 0.  1.
     999900   -1    0    0    0    0 -0.00000000000E+00 -0.00000000000E+00 -0.74505805969E-08  0.93827000000E+00  0.93827000000E+00 0. -1.
     999902    2    1    2    0    0 -0.37002950774E-03  0.13167280208E-01 -0.18892606423E-01  0.10208986134E+01  0.10206387873E+01 0.  0.
     999903    2    3    3    0    0  0.98606499573E-01  0.62829826469E-02  0.81617012825E-01  0.12963774790E+00  0.19542038513E-01 0.  0.
         14    1    1    2    0    0  0.37002950774E-03 -0.13167280208E-01  0.18892606423E-01  0.23031386570E-01  0.00000000000E+00 0.  1.
     999901    1    3    3    0    0 -0.98976529081E-01  0.68842975608E-02 -0.10050961925E+00  0.89126086553E+00  0.88000000000E+00 0.  1.
        -11    1    4    4    0    0  0.50252754287E-01 -0.18223966439E-03  0.53175133080E-01  0.73165759914E-01  0.51100000000E-03 0.  1.
         11    1    4    4    0    0  0.48353745286E-01  0.64652223113E-02  0.28441879746E-01  0.56471987987E-01  0.51100000000E-03 0. -1.
</event>
<event>
 8    1  0.1199892E+005  0.1043930E+01  0.7957747E-01            NaN
         13   -1    0    0    0    0  0.00000000000E+00  0.00000000000E+00  0.74505805969E-08  0.10566000000E+00  0.10566000000E+00 0.  1.
     999900   -1    0    0    0    0 -0.00000000000E+00 -0.00000000000E+00 -0.74505805969E-08  0.93827000000E+00  0.93827000000E+00 0. -1.
     999902    2    1    2    0    0 -0.35963230468E-02 -0.21503182582E-01  0.65269428450E-02  0.10211721138E+01  0.10209184907E+01 0.  0.
     999903    2    3    3    0    0 -0.32429743262E-01 -0.12720456586E+00  0.22429217921E-01  0.13423523280E+00  0.16832649383E-01 0.  0.
         14    1    1    2    0    0  0.35963230468E-02  0.21503182582E-01 -0.65269428450E-02  0.22757886183E-01  0.00000000000E+00 0.  1.
     999901    1    3    3    0    0  0.28833420215E-01  0.10570138328E+00 -0.15902275076E-01  0.88693688101E+00  0.88000000000E+00 0.  1.
        -11    1    4    4    0    0 -0.32710027493E-01 -0.10167457751E+00  0.17710555262E-01  0.10826629438E+00  0.51100000000E-03 0. -1.
         11    1    4    4    0    0  0.28028423096E-03 -0.25529988352E-01  0.47186626584E-02  0.25968938422E-01  0.51100000000E-03 0.  1.
</event>
<event>
 8    1  0.1199892E+005  0.1043930E+01  0.7957747E-01            NaN
         13   -1    0    0    0    0  0.00000000000E+00  0.00000000000E+00  0.74505805969E-08  0.10566000000E+00  0.10566000000E+00 0.  1.
     999900   -1    0    0    0    0 -0.00000000000E+00 -0.00000000000E+00 -0.74505805969E-08  0.93827000000E+00  0.93827000000E+00 0.  1.
     999902    2    1    2    0    0 -0.15470837359E-01  0.83890993359E-02 -0.16337486235E-01  0.10199167276E+01  0.10196340000E+01 0.  0.
     999903    2    3    3    0    0 -0.12557764759E+00  0.21406704505E-03 -0.38080240918E-01  0.13275096618E+00  0.20072938842E-01 0.  0.
         14    1    1    2    0    0  0.15470837359E-01 -0.83890993359E-02  0.16337486235E-01  0.24013272429E-01  0.00000000000E+00 0. -1.
     999901    1    3    3    0    0  0.11010681023E+00  0.81750322908E-02  0.21742754683E-01  0.88716576140E+00  0.88000000000E+00 0.  1.
        -11    1    4    4    0    0 -0.68371677633E-01 -0.98365724553E-02 -0.19855080044E-01  0.71874402847E-01  0.51100000000E-03 0. -1.
         11    1    4    4    0    0 -0.57205969954E-01  0.10050639500E-01 -0.18225160874E-01  0.60876563328E-01  0.51100000000E-03 0.  1.
</event>
<event>
 8    1  0.1199892E+005  0.1043930E+01  0.7957747E-01            NaN
         13   -1    0    0    0    0  0.00000000000E+00  0.00000000000E+00  0.74505805969E-08  0.10566000000E+00  0.10566000000E+00 0.  1.
     999900   -1    0    0    0    0 -0.00000000000E+00 -0.00000000000E+00 -0.74505805969E-08  0.93827000000E+00  0.93827000000E+00 0. -1.
     999902    2    1    2    0    0 -0.13239437810E-01 -0.17136643520E-01 -0.33715281886E-02  0.10220139222E+01  0.10217789109E+01 0.  0.
     999903    2    3    3    0    0 -0.36983420989E-01  0.69345569004E-01 -0.10384193582E+00  0.13176830853E+00  0.20078797978E-01 0.  0.
         14    1    1    2    0    0  0.13239437810E-01  0.17136643520E-01  0.33715281886E-02  0.21916077819E-01  0.00000000000E+00 0.  1.
     999901    1    3    3    0    0  0.23743983179E-01 -0.86482212524E-01  0.10047040763E+00  0.89024561365E+00  0.88000000000E+00 0. -1.
        -11    1    4    4    0    0 -0.14259117083E-01  0.11395972292E-01 -0.17216862072E-01  0.25097252141E-01  0.51100000000E-03 0.  1.
         11    1    4    4    0    0 -0.22724303906E-01  0.57949596712E-01 -0.86625073750E-01  0.10667105639E+00  0.51100000000E-03 0. -1.
</event>
<event>
 8    1  0.1199892E+005  0.1043930E+01  0.7957747E-01            NaN
         13   -1    0    0    0    0  0.00000000000E+00  0.00000000000E+00  0.74505805969E-08  0.10566000000E+00  0.10566000000E+00 0. -1.
     999900   -1    0    0    0    0 -0.00000000000E+00 -0.00000000000E+00 -0.74505805969E-08  0.93827000000E+00  0.93827000000E+00 0.  1.
     999902    2    1    2    0    0  0.25827271686E-02  0.63151647078E-02  0.23700016985E-01  0.10192674253E+01  0.10189690092E+01 0.  0.
     999903    2    3    3    0    0  0.72215668277E-01 -0.98833840128E-01 -0.33411018682E-01  0.12844380074E+00  0.19957030860E-01 0.  0.
         14    1    1    2    0    0 -0.25827271686E-02 -0.63151647078E-02 -0.23700016985E-01  0.24662574683E-01  0.00000000000E+00 0.  1.
     999901    1    3    3    0    0 -0.69632941108E-01  0.10514900484E+00  0.57111035667E-01  0.89082362457E+00  0.88000000000E+00 0. -1.
        -11    1    4    4    0    0  0.12367309210E-01 -0.13056882486E-01 -0.12154401809E-01  0.21712280434E-01  0.51100000000E-03 0. -1.
         11    1    4    4    0    0  0.59848359067E-01 -0.85776957642E-01 -0.21256616873E-01  0.10673152031E+00  0.51100000000E-03 0.  1.
</event>
<event>
 8    1  0.1199892E+005  0.1043930E+01  0.7957747E-01            NaN
         13   -1    0    0    0    0  0.00000000000E+00  0.00000000000E+00  0.74505805969E-08  0.10566000000E+00  0.10566000000E+00 0. -1.
     999900   -1    0    0    0    0 -0.00000000000E+00 -0.00000000000E+00 -0.74505805969E-08  0.93827000000E+00  0.93827000000E+00 0.  1.
     999902    2    1    2    0    0 -0.71704423455E-02 -0.20561591620E-01  0.85160413856E-02  0.10205480143E+01  0.10202801244E+01 0.  0.
     999903    2    3    3    0    0 -0.65492107478E-01  0.58263838302E-01 -0.92851715277E-01  0.12931836540E+00  0.20442788569E-01 0.  0.
         14    1    1    2    0    0  0.71704423455E-02  0.20561591620E-01 -0.85160413856E-02  0.23381985678E-01  0.00000000000E+00 0. -1.
     999901    1    3    3    0    0  0.58321665132E-01 -0.78825429921E-01  0.10136775666E+00  0.89122964892E+00  0.88000000000E+00 0. -1.
        -11    1    4    4    0    0 -0.54702241028E-01  0.55061001703E-01 -0.87111512687E-01  0.11667358675E+00  0.51100000000E-03 0. -1.
         11    1    4    4    0    0 -0.10789866450E-01  0.32028365986E-02 -0.57402025896E-02  0.12644778648E-01  0.51100000000E-03 0.  1.
</event>
<event>
 8    1  0.1199892E+005  0.1043930E+01  0.7957747E-01            NaN
         13   -1    0    0    0    0  0.00000000000E+00  0.00000000000E+00  0.74505805969E-08  0.10566000000E+00  0.10566000000E+00 0. -1.
     999900   -1    0    0    0    0 -0.00000000000E+00 -0.00000000000E+00 -0.74505805969E-08  0.93827000000E+00  0.93827000000E+00 0.  1.
     999902    2    1    2    0    0 -0.93052658250E-02 -0.24085382797E-02  0.21701993241E-01  0.10201946774E+01  0.10199185331E+01 0.  0.
     999903    2    3    3    0    0  0.90885315362E-01  0.53159516826E-01  0.75425547803E-01  0.13114339562E+00  0.20579168477E-01 0.  0.
         14    1    1    2    0    0  0.93052658250E-02  0.24085382797E-02 -0.21701993241E-01  0.23735322609E-01  0.00000000000E+00 0.  1.
     999901    1    3    3    0    0 -0.10019058119E+00 -0.55568055106E-01 -0.53723554561E-01  0.88905128177E+00  0.88000000000E+00 0.  1.
        -11    1    4    4    0    0  0.38008334467E-01  0.34107132550E-01  0.35261129627E-01  0.62060763476E-01  0.51100000000E-03 0. -1.
         11    1    4    4    0    0  0.52876980895E-01  0.19052384277E-01  0.40164418176E-01  0.69082632142E-01  0.51100000000E-03 0.  1.
</event>
<event>
 8    1  0.1199892E+005  0.1043930E+01  0.7957747E-01            NaN
         13   -1    0    0    0    0  0.00000000000E+00  0.00000000000E+00  0.74505805969E-08  0.10566000000E+00  0.10566000000E+00 0.  1.
     999900   -1    0    0    0    0 -0.00000000000E+00 -0.00000000000E+00 -0.74505805969E-08  0.93827000000E+00  0.93827000000E+00 0. -1.
     999902    2    1    2    0    0  0.12804165031E-02  0.36657214352E-02  0.17301851347E-01  0.10261977965E+01  0.10260445831E+01 0.  0.
     999903    2    3    3    0    0  0.12343331050E+00  0.32687104033E-01 -0.39818155743E-01  0.13545301525E+00  0.21396375882E-01 0.  0.
         14    1    1    2    0    0 -0.12804165031E-02 -0.36657214352E-02 -0.17301851347E-01  0.17732203476E-01  0.00000000000E+00 0. -1.
     999901    1    3    3    0    0 -0.12215289400E+00 -0.29021382597E-01  0.57120007091E-01  0.89074478128E+00  0.88000000000E+00 0.  1.
        -11    1    4    4    0    0  0.95646705987E-01  0.19880974769E-01 -0.22343326631E-01  0.10021492349E+00  0.51100000000E-03 0. -1.
         11    1    4    4    0    0  0.27786604518E-01  0.12806129264E-01 -0.17474829113E-01  0.35238091760E-01  0.51100000000E-03 0.  1.
</event>
<event>
 8    1  0.1199892E+005  0.1043930E+01  0.7957747E-01            NaN
         13   -1    0    0    0    0  0.00000000000E+00  0.00000000000E+00  0.74505805969E-08  0.10566000000E+00  0.10566000000E+00 0. -1.
     999900   -1    0    0    0    0 -0.00000000000E+00 -0.00000000000E+00 -0.74505805969E-08  0.93827000000E+00  0.93827000000E+00 0.  1.
     999902    2    1    2    0    0 -0.22647543180E-01  0.22548134984E-03  0.77342537180E-02  0.10199971620E+01  0.10197163477E+01 0.  0.
     999903    2    3    3    0    0  0.49823924313E-01  0.65688796115E-01 -0.96277838095E-01  0.12850623416E+00  0.21142108258E-01 0.  0.
         14    1    1    2    0    0  0.22647543180E-01 -0.22548134984E-03 -0.77342537180E-02  0.23932837995E-01  0.00000000000E+00 0.  1.
     999901    1    3    3    0    0 -0.72471467493E-01 -0.65463314765E-01  0.10401209181E+00  0.89149092784E+00  0.88000000000E+00 0. -1.
        -11    1    4    4    0    0  0.22525631459E-01  0.25472674223E-01 -0.24900152617E-01  0.42149020463E-01  0.51100000000E-03 0.  1.
         11    1    4    4    0    0  0.27298292854E-01  0.40216121892E-01 -0.71377685478E-01  0.86357213700E-01  0.51100000000E-03 0. -1.
</event>
<event>
 8    1  0.1199892E+005  0.1043930E+01  0.7957747E-01            NaN
         13   -1    0    0    0    0  0.00000000000E+00  0.00000000000E+00  0.74505805969E-08  0.10566000000E+00  0.10566000000E+00 0.  1.
     999900   -1    0    0    0    0 -0.00000000000E+00 -0.00000000000E+00 -0.74505805969E-08  0.93827000000E+00  0.93827000000E+00 0. -1.
     999902    2    1    2    0    0 -0.18029647221E-01 -0.13438175423E-01  0.79051867927E-03  0.10214293854E+01  0.10211815273E+01 0.  0.
     999903    2    3    3    0    0  0.10315799506E-01  0.11214742892E+00 -0.61726281961E-01  0.12986695980E+00  0.19282941435E-01 0.  0.
         14    1    1    2    0    0  0.18029647221E-01  0.13438175423E-01 -0.79051867927E-03  0.22500614601E-01  0.00000000000E+00 0. -1.
     999901    1    3    3    0    0 -0.28345446727E-01 -0.12558560435E+00  0.62516800640E-01  0.89156242559E+00  0.88000000000E+00 0.  1.
        -11    1    4    4    0    0  0.12240267671E-01  0.62531885972E-01 -0.42631561408E-01  0.76666629409E-01  0.51100000000E-03 0.  1.
         11    1    4    4    0    0 -0.19244681651E-02  0.49615542953E-01 -0.19094720552E-01  0.53200330396E-01  0.51100000000E-03 0. -1.
</event>
<event>
 8    1  0.1199892E+005  0.1043930E+01  0.7957747E-01            NaN
         13   -1    0    0    0    0  0.00000000000E+00  0.00000000000E+00  0.74505805969E-08  0.10566000000E+00  0.10566000000E+00 0. -1.
     999900   -1    0    0    0    0 -0.00000000000E+00 -0.00000000000E+00 -0.74505805969E-08  0.93827000000E+00  0.93827000000E+00 0. -1.
     999902    2    1    2    0    0  0.86517429316E-02 -0.13045278919E-01 -0.16382357287E-01  0.10212713684E+01  0.10210199774E+01 0.  0.
     999903    2    3    3    0    0  0.11351532900E+00 -0.54493863876E-01  0.36199988306E-01  0.13251985080E+00  0.19893732292E-01 0.  0.
         14    1    1    2    0    0 -0.86517429316E-02  0.13045278919E-01  0.16382357287E-01  0.22658631647E-01  0.00000000000E+00 0.  1.
     999901    1    3    3    0    0 -0.10486358607E+00  0.41448584957E-01 -0.52582345593E-01  0.88875151755E+00  0.88000000000E+00 0. -1.
        -11    1    4    4    0    0  0.30595475546E-01 -0.53112942706E-02  0.96159764656E-02  0.32511860837E-01  0.51100000000E-03 0.  1.
         11    1    4    4    0    0  0.82919853459E-01 -0.49182569605E-01  0.26584011840E-01  0.10000798997E+00  0.51100000000E-03 0. -1.
</event>
<event>
 8    1  0.1199892E+005  0.1043930E+01  0.7957747E-01            NaN
         13   -1    0    0    0    0  0.00000000000E+00  0.00000000000E+00  0.74505805969E-08  0.10566000000E+00  0.10566000000E+00 0.  1.
     999900   -1    0    0    0    0 -0.00000000000E+00 -0.00000000000E+00 -0.74505805969E-08  0.93827000000E+00  0.93827000000E+00 0.  1.
     999902    2    1    2    0    0  0.12894122559E-01 -0.17851208060E-01 -0.27790326175E-02  0.10217343462E+01  0.10214932340E+01 0.  0.
     999903    2    3    3    0    0  0.11857975279E+00  0.45753057792E-01  0.31980530028E-01  0.13245194882E+00  0.19138034805E-01 0.  0.
         14    1    1    2    0    0 -0.12894122559E-01  0.17851208060E-01  0.27790326175E-02  0.22195653810E-01  0.00000000000E+00 0.  1.
     999901    1    3    3    0    0 -0.10568563023E+00 -0.63604265852E-01 -0.34759562645E-01  0.88928239737E+00  0.88000000000E+00 0. -1.
        -11    1    4    4    0    0  0.35233247044E-01  0.58824456059E-02  0.13735863974E-01  0.38274272608E-01  0.51100000000E-03 0. -1.
         11    1    4    4    0    0  0.83346505749E-01  0.39870612186E-01  0.18244666053E-01  0.94177676214E-01  0.51100000000E-03 0.  1.
</event>
<event>
 8    1  0.1199892E+005  0.1043930E+01  0.7957747E-01            NaN
         13   -1    0    0    0    0  0.00000000000E+00  0.00000000000E+00  0.74505805969E-08  0.10566000000E+00  0.10566000000E+00 0.  1.
     999900   -1    0    0    0    0 -0.00000000000E+00 -0.00000000000E+00 -0.74505805969E-08  0.93827000000E+00  0.93827000000E+00 0.  1.
     999902    2    1    2    0    0  0.18723047133E-01 -0.58460665888E-02  0.49683597431E-02  0.10236960289E+01  0.10234960410E+01 0.  0.
     999903    2    3    3    0    0 -0.72211402227E-01  0.10235751037E+00 -0.34591684179E-01  0.13154016514E+00  0.20363788676E-01 0.  0.
         14    1    1    2    0    0 -0.18723047133E-01  0.58460665888E-02 -0.49683597431E-02  0.20233971114E-01  0.00000000000E+00 0. -1.
     999901    1    3    3    0    0  0.90934449360E-01 -0.10820357696E+00  0.39560043923E-01  0.89215586375E+00  0.88000000000E+00 0.  1.
        -11    1    4    4    0    0 -0.34997189582E-01  0.43836641434E-01 -0.25408583252E-01  0.61581747578E-01  0.51100000000E-03 0.  1.
         11    1    4    4    0    0 -0.37214212645E-01  0.58520868935E-01 -0.91831009279E-02  0.69958417559E-01  0.51100000000E-03 0. -1.
</event>
<event>
 8    1  0.1199892E+005  0.1043930E+01  0.7957747E-01            NaN
         13   -1    0    0    0    0  0.00000000000E+00  0.00000000000E+00  0.74505805969E-08  0.10566000000E+00  0.10566000000E+00 0. -1.
     999900   -1    0    0    0    0 -0.00000000000E+00 -0.00000000000E+00 -0.74505805969E-08  0.93827000000E+00  0.93827000000E+00 0.  1.
     999902    2    1    2    0    0  0.21881805134E-01 -0.71526404514E-02  0.42218554166E-02  0.10205249210E+01  0.10202564955E+01 0.  0.
     999903    2    3    3    0    0  0.20895840087E-01 -0.42599860491E-01 -0.12058200621E+00  0.13101186237E+00  0.19305533234E-01 0.  0.
         14    1    1    2    0    0 -0.21881805134E-01  0.71526404514E-02 -0.42218554166E-02  0.23405079032E-01  0.00000000000E+00 0.  1.
     999901    1    3    3    0    0  0.98596504754E-03  0.35447220040E-01  0.12480386163E+00  0.88951305860E+00  0.88000000000E+00 0. -1.
        -11    1    4    4    0    0 -0.46217620865E-03 -0.20402995173E-01 -0.48790002658E-01  0.52888763449E-01  0.51100000000E-03 0. -1.
         11    1    4    4    0    0  0.21358016295E-01 -0.22196865318E-01 -0.71792003553E-01  0.78123098922E-01  0.51100000000E-03 0.  1.
</event>
<event>
 8    1  0.1199892E+005  0.1043930E+01  0.7957747E-01            NaN
         13   -1    0    0    0    0  0.00000000000E+00  0.00000000000E+00  0.74505805969E-08  0.10566000000E+00  0.10566000000E+00 0. -1.
     999900   -1    0    0    0    0 -0.00000000000E+00 -0.00000000000E+00 -0.74505805969E-08  0.93827000000E+00  0.93827000000E+00 0.  1.
     999902    2    1    2    0    0  0.12027696308E-01  0.31406800982E-02 -0.19497958530E-01  0.10208064247E+01  0.10205444904E+01 0.  0.
     999903    2    3    3    0    0 -0.24980158454E-01  0.10834664225E+00 -0.69008387817E-01  0.13238695256E+00  0.20028589942E-01 0.  0.
         14    1    1    2    0    0 -0.12027696308E-01 -0.31406800982E-02  0.19497958530E-01  0.23123575346E-01  0.00000000000E+00 0. -1.
     999901    1    3    3    0    0  0.37007854762E-01 -0.10520596215E+00  0.49510429287E-01  0.88841947209E+00  0.88000000000E+00 0. -1.
        -11    1    4    4    0    0 -0.25298442856E-01  0.67337928788E-01 -0.42472880194E-01  0.83538102309E-01  0.51100000000E-03 0. -1.
         11    1    4    4    0    0  0.31828440201E-03  0.41008713465E-01 -0.26535507623E-01  0.48848850251E-01  0.51100000000E-03 0.  1.
</event>
<event>
 8    1  0.1199892E+005  0.1043930E+01  0.7957747E-01            NaN
         13   -1    0    0    0    0  0.00000000000E+00  0.00000000000E+00  0.74505805969E-08  0.10566000000E+00  0.10566000000E+00 0.  1.
     999900   -1    0    0    0    0 -0.00000000000E+00 -0.00000000000E+00 -0.74505805969E-08  0.93827000000E+00  0.93827000000E+00 0.  1.
     999902    2    1    2    0    0 -0.44745671996E-02  0.15409472230E-01 -0.12577587192E-01  0.10235420309E+01  0.10233389564E+01 0.  0.
     999903    2    3    3    0    0  0.33860761550E-01  0.18902535937E-01  0.12456272518E+00  0.13208857487E+00  0.20679992005E-01 0.  0.
         14    1    1    2    0    0  0.44745671996E-02 -0.15409472230E-01  0.12577587192E-01  0.20387969139E-01  0.00000000000E+00 0.  1.
     999901    1    3    3    0    0 -0.38335328750E-01 -0.34930637071E-02 -0.13714031237E+00  0.89145345599E+00  0.88000000000E+00 0.  1.
        -11    1    4    4    0    0 -0.18476324532E-02 -0.16265777962E-02  0.11064362003E-01  0.11346397161E-01  0.51100000000E-03 0.  1.
         11    1    4    4    0    0  0.35708394003E-01  0.20529113733E-01  0.11349836318E+00  0.12074217771E+00  0.51100000000E-03 0. -1.
</event>
<event>
 8    1  0.1199892E+005  0.1043930E+01  0.7957747E-01            NaN
         13   -1    0    0    0    0  0.00000000000E+00  0.00000000000E+00  0.74505805969E-08  0.10566000000E+00  0.10566000000E+00 0. -1.
     999900   -1    0    0    0    0 -0.00000000000E+00 -0.00000000000E+00 -0.74505805969E-08  0.93827000000E+00  0.93827000000E+00 0.  1.
     999902    2    1    2    0    0 -0.10249283275E-01  0.14855436052E-01  0.13401233165E-01  0.10214505686E+01  0.10212031821E+01 0.  0.
     999903    2    3    3    0    0  0.33824936386E-01 -0.11097225884E+00 -0.53285089300E-01  0.12891361624E+00  0.17901149544E-01 0.  0.
         14    1    1    2    0    0  0.10249283275E-01 -0.14855436052E-01 -0.13401233165E-01  0.22479431449E-01  0.00000000000E+00 0.  1.
     999901    1    3    3    0    0 -0.44074219661E-01  0.12582769490E+00  0.66686322465E-01  0.89253695231E+00  0.88000000000E+00 0.  1.
        -11    1    4    4    0    0  0.24831597380E-01 -0.67548742157E-01 -0.24424736358E-01  0.76001774075E-01  0.51100000000E-03 0. -1.
         11    1    4    4    0    0  0.89933390065E-02 -0.43423516687E-01 -0.28860352942E-01  0.52911842161E-01  0.51100000000E-03 0.  1.
</event>
<event>
 8    1  0.1199892E+005  0.1043930E+01  0.7957747E-01            NaN
         13   -1    0    0    0    0  0.00000000000E+00  0.00000000000E+00  0.74505805969E-08  0.10566000000E+00  0.10566000000E+00 0.  1.
     999900   -1    0    0    0    0 -0.00000000000E+00 -0.00000000000E+00 -0.74505805969E-08  0.93827000000E+00  0.93827000000E+00 0.  1.
     999902    2    1    2    0    0  0.17906471384E-01  0.11001242356E-01  0.44108263309E-02  0.10224561918E+01  0.10222306685E+01 0.  0.
     999903    2    3    3    0    0  0.26685353902E-01 -0.60493542262E-01 -0.11225691908E+00  0.13183846467E+00  0.20203665979E-01 0.  0.
         14    1    1    2    0    0 -0.17906471384E-01 -0.11001242356E-01 -0.44108263309E-02  0.21473808226E-01  0.00000000000E+00 0.  1.
     999901    1    3    3    0    0 -0.87788825178E-02  0.71494784618E-01  0.11666774541E+00  0.89061772710E+00  0.88000000000E+00 0. -1.
        -11    1    4    4    0    0  0.13613785454E-02 -0.27401738106E-01 -0.46227693354E-01  0.53758435214E-01  0.51100000000E-03 0.  1.
         11    1    4    4    0    0  0.25323975357E-01 -0.33091804155E-01 -0.66029225722E-01  0.78080029460E-01  0.51100000000E-03 0. -1.
</event>
<event>
 8    1  0.1199892E+005  0.1043930E+01  0.7957747E-01            NaN
         13   -1    0    0    0    0  0.00000000000E+00  0.00000000000E+00  0.74505805969E-08  0.10566000000E+00  0.10566000000E+00 0. -1.
     999900   -1    0    0    0    0 -0.00000000000E+00 -0.00000000000E+00 -0.74505805969E-08  0.93827000000E+00  0.93827000000E+00 0. -1.
     999902    2    1    2    0    0  0.19519298441E-01  0.10794390695E-01  0.15656387316E-01  0.10166784983E+01  0.10163132020E+01 0.  0.
     999903    2    3    3    0    0  0.57545650150E-02  0.63460299447E-01 -0.10743949853E+00  0.12644495424E+00  0.19615197741E-01 0.  0.
         14    1    1    2    0    0 -0.19519298441E-01 -0.10794390695E-01 -0.15656387316E-01  0.27251501718E-01  0.00000000000E+00 0.  1.
     999901    1    3    3    0    0  0.13764733426E-01 -0.52665908751E-01  0.12309588585E+00  0.89023354405E+00  0.88000000000E+00 0. -1.
        -11    1    4    4    0    0  0.46719630180E-02  0.21815639570E-02 -0.60058114739E-02  0.79320459026E-02  0.51100000000E-03 0. -1.
         11    1    4    4    0    0  0.10826019969E-02  0.61278735490E-01 -0.10143368706E+00  0.11851290833E+00  0.51100000000E-03 0.  1.
</event>
<event>
 8    1  0.1199892E+005  0.1043930E+01  0.7957747E-01            NaN
         13   -1    0    0    0    0  0.00000000000E+00  0.00000000000E+00  0.74505805969E-08  0.10566000000E+00  0.10566000000E+00 0.  1.
     999900   -1    0    0    0    0 -0.00000000000E+00 -0.00000000000E+00 -0.74505805969E-08  0.93827000000E+00  0.93827000000E+00 0. -1.
     999902    2    1    2    0    0  0.20438259109E-01  0.10187071092E-01  0.14050388202E-01  0.10171174607E+01  0.10167639926E+01 0.  0.
     999903    2    3    3    0    0 -0.79035635938E-01 -0.62378887930E-01  0.73643053429E-01  0.12654901309E+00  0.21297793037E-01 0.  0.
         14    1    1    2    0    0 -0.20438259109E-01 -0.10187071092E-01 -0.14050388202E-01  0.26812539258E-01  0.00000000000E+00 0. -1.
     999901    1    3    3    0    0  0.99473895046E-01  0.72565959022E-01 -0.59592665228E-01  0.89056844765E+00  0.88000000000E+00 0.  1.
        -11    1    4    4    0    0 -0.54847403146E-01 -0.30168971982E-01  0.43288840367E-01  0.76109062034E-01  0.51100000000E-03 0. -1.
         11    1    4    4    0    0 -0.24188232791E-01 -0.32209915948E-01  0.30354213062E-01  0.50439951057E-01  0.51100000000E-03 0.  1.
</event>
<event>
 8    1  0.1199892E+005  0.1043930E+01  0.7957747E-01            NaN
         13   -1    0    0    0    0  0.00000000000E+00  0.00000000000E+00  0.74505805969E-08  0.10566000000E+00  0.10566000000E+00 0. -1.
     999900   -1    0    0    0    0 -0.00000000000E+00 -0.00000000000E+00 -0.74505805969E-08  0.93827000000E+00  0.93827000000E+00 0. -1.
     999902    2    1    2    0    0  0.88100867477E-02  0.22665610308E-01  0.27809284574E-02  0.10194538671E+01  0.10191600002E+01 0.  0.
     999903    2    3    3    0    0  0.52088277430E-01 -0.86636778214E-02 -0.11691450968E+00  0.12974519343E+00  0.19405274664E-01 0.  0.
         14    1    1    2    0    0 -0.88100867477E-02 -0.22665610308E-01 -0.27809284574E-02  0.24476132910E-01  0.00000000000E+00 0.  1.
     999901    1    3    3    0    0 -0.43278190682E-01  0.31329288129E-01  0.11969543814E+00  0.88970867366E+00  0.88000000000E+00 0.  1.
        -11    1    4    4    0    0  0.21024220736E-01  0.21825598616E-02 -0.29121328086E-01  0.35987418574E-01  0.51100000000E-03 0. -1.
         11    1    4    4    0    0  0.31064056694E-01 -0.10846237683E-01 -0.87793181592E-01  0.93757774852E-01  0.51100000000E-03 0.  1.
</event>
<event>
 8    1  0.1199892E+005  0.1043930E+01  0.7957747E-01            NaN
         13   -1    0    0    0    0  0.00000000000E+00  0.00000000000E+00  0.74505805969E-08  0.10566000000E+00  0.10566000000E+00 0.  1.
     999900   -1    0    0    0    0 -0.00000000000E+00 -0.00000000000E+00 -0.74505805969E-08  0.93827000000E+00  0.93827000000E+00 0. -1.
     999902    2    1    2    0    0 -0.11987226450E-01 -0.20862985540E-01 -0.47919831169E-02  0.10193959244E+01  0.10191006475E+01 0.  0.
     999903    2    3    3    0    0 -0.85957622845E-01 -0.98398010384E-01 -0.14333528952E-01  0.13284398530E+00  0.19266369790E-01 0.  0.
         14    1    1    2    0    0  0.11987226450E-01  0.20862985540E-01  0.47919831169E-02  0.24534075605E-01  0.00000000000E+00 0.  1.
     999901    1    3    3    0    0  0.73970396395E-01  0.77535024844E-01  0.95415458350E-02  0.88655193910E+00  0.88000000000E+00 0.  1.
        -11    1    4    4    0    0 -0.34765311492E-01 -0.53511699639E-01 -0.35955244783E-02  0.63916490819E-01  0.51100000000E-03 0. -1.
         11    1    4    4    0    0 -0.51192311354E-01 -0.44886310744E-01 -0.10738004474E-01  0.68927494478E-01  0.51100000000E-03 0.  1.
</event>
<event>
 8    1  0.1199892E+005  0.1043930E+01  0.7957747E-01            NaN
         13   -1    0    0    0    0  0.00000000000E+00  0.00000000000E+00  0.74505805969E-08  0.10566000000E+00  0.10566000000E+00 0. -1.
     999900   -1    0    0    0    0 -0.00000000000E+00 -0.00000000000E+00 -0.74505805969E-08  0.93827000000E+00  0.93827000000E+00 0. -1.
     999902    2    1    2    0    0  0.42468612607E-02  0.45578217849E-02 -0.26449436992E-01  0.10167568094E+01  0.10163936379E+01 0.  0.
     999903    2    3    3    0    0 -0.75062322472E-01  0.10078420065E+00 -0.70270684551E-02  0.12775360861E+00  0.21904279671E-01 0.  0.
         14    1    1    2    0    0 -0.42468612607E-02 -0.45578217849E-02  0.26449436992E-01  0.27173190596E-01  0.00000000000E+00 0. -1.
     999901    1    3    3    0    0  0.79309183733E-01 -0.96226378863E-01 -0.19422368537E-01  0.88900320079E+00  0.88000000000E+00 0. -1.
        -11    1    4    4    0    0 -0.33681370476E-01  0.35185868999E-01  0.60925888929E-02  0.49090333619E-01  0.51100000000E-03 0.  1.
         11    1    4    4    0    0 -0.41380951996E-01  0.65598331649E-01 -0.13119657348E-01  0.78663274996E-01  0.51100000000E-03 0. -1.
</event>
<event>
 8    1  0.1199892E+005  0.1043930E+01  0.7957747E-01            NaN
         13   -1    0    0    0    0  0.00000000000E+00  0.00000000000E+00  0.74505805969E-08  0.10566000000E+00  0.10566000000E+00 0. -1.
     999900   -1    0    0    0    0 -0.00000000000E+00 -0.00000000000E+00 -0.74505805969E-08  0.93827000000E+00  0.93827000000E+00 0.  1.
     999902    2    1    2    0    0 -0.10786358755E-02 -0.23403741597E-01  0.57647036980E-02  0.10198026217E+01  0.10195171685E+01 0.  0.
     999903    2    3    3    0    0  0.19741958752E-01 -0.67441164990E-01  0.11027599554E+00  0.13228056452E+00  0.19982414406E-01 0.  0.
         14    1    1    2    0    0  0.10786358755E-02  0.23403741597E-01 -0.57647036980E-02  0.24127378325E-01  0.00000000000E+00 0.  1.
     999901    1    3    3    0    0 -0.20820594627E-01  0.44037423392E-01 -0.10451129184E+00  0.88752205716E+00  0.88000000000E+00 0.  1.
        -11    1    4    4    0    0  0.19364500809E-01 -0.32407723714E-01  0.62774782976E-01  0.73254207706E-01  0.51100000000E-03 0.  1.
         11    1    4    4    0    0  0.37745794290E-03 -0.35033441276E-01  0.47501212566E-01  0.59026356811E-01  0.51100000000E-03 0. -1.
</event>
<event>
 8    1  0.1199892E+005  0.1043930E+01  0.7957747E-01            NaN
         13   -1    0    0    0    0  0.00000000000E+00  0.00000000000E+00  0.74505805969E-08  0.10566000000E+00  0.10566000000E+00 0.  1.
     999900   -1    0    0    0    0 -0.00000000000E+00 -0.00000000000E+00 -0.74505805969E-08  0.93827000000E+00  0.93827000000E+00 0.  1.
     999902    2    1    2    0    0 -0.19587377306E-02 -0.12434712391E-01 -0.20402918632E-01  0.10199563100E+01  0.10196745247E+01 0.  0.
     999903    2    3    3    0    0  0.85084653726E-01 -0.56232639204E-01  0.76933768085E-01  0.12924353865E+00  0.19585188234E-01 0.  0.
         14    1    1    2    0    0  0.19587377306E-02  0.12434712391E-01  0.20402918632E-01  0.23973690047E-01  0.00000000000E+00 0.  1.
     999901    1    3    3    0    0 -0.87043391457E-01  0.43797926814E-01 -0.97336686718E-01  0.89071277131E+00  0.88000000000E+00 0.  1.
        -11    1    4    4    0    0  0.66972583006E-01 -0.49162617866E-01  0.53620281802E-01  0.98882180455E-01  0.51100000000E-03 0. -1.
         11    1    4    4    0    0  0.18112070720E-01 -0.70700213380E-02  0.23313486283E-01  0.30361358191E-01  0.51100000000E-03 0.  1.
</event>
<event>
 8    1  0.1199892E+005  0.1043930E+01  0.7957747E-01            NaN
         13   -1    0    0    0    0  0.00000000000E+00  0.00000000000E+00  0.74505805969E-08  0.10566000000E+00  0.10566000000E+00 0. -1.
     999900   -1    0    0    0    0 -0.00000000000E+00 -0.00000000000E+00 -0.74505805969E-08  0.93827000000E+00  0.93827000000E+00 0. -1.
     999902    2    1    2    0    0 -0.86140126730E-02  0.21971399604E-01 -0.26553008827E-02  0.10201814371E+01  0.10199049811E+01 0.  0.
     999903    2    3    3    0    0  0.29296778866E-01 -0.65749429046E-02  0.12447799560E+00  0.12977984412E+00  0.21130674996E-01 0.  0.
         14    1    1    2    0    0  0.86140126730E-02 -0.21971399604E-01  0.26553008827E-02  0.23748562855E-01  0.00000000000E+00 0.  1.
     999901    1    3    3    0    0 -0.37910791539E-01  0.28546342509E-01 -0.12713329648E+00  0.89040159302E+00  0.88000000000E+00 0. -1.
        -11    1    4    4    0    0  0.14234800103E-01  0.59967692671E-02  0.36458902135E-01  0.39599285871E-01  0.51100000000E-03 0.  1.
         11    1    4    4    0    0  0.15061978764E-01 -0.12571712172E-01  0.88019093463E-01  0.90180558250E-01  0.51100000000E-03 0. -1.
</event>
<event>
 7    1  0.1199892E+005  0.1043930E+01  0.7957747E-01            NaN
         13   -1    0    0    0    0  0.00000000000E+00  0.00000000000E+00  0.74505805969E-08  0.10566000000E+00  0.10566000000E+00 0.  1.
     999900   -1    0    0    0    0 -0.00000000000E+00 -0.00000000000E+00 -0.74505805969E-08  0.93827000000E+00  0.93827000000E+00 0. -1.
     999902    2    1    2    0    0 -0.87204442512E-02  0.18542125704E-01  0.11802532309E-01  0.10202835131E+01  0.10200094562E+01 0.  0.
         14    1    1    2    0    0  0.87204442512E-02 -0.18542125704E-01 -0.11802532309E-01  0.23646486894E-01  0.00000000000E+00 0.  1.
     999901    1    3    3    0    0 -0.17843280749E-01 -0.93707700058E-01  0.64350899415E-02  0.88517847133E+00  0.88000000000E+00 0. -1.
        -11    1    3    3    0    0 -0.38798507354E-02  0.11247927657E+00  0.21286808936E-01  0.11454270057E+00  0.51100000000E-03 0.  1.
         11    1    3    3    0    0  0.13002687234E-01 -0.22945080521E-03 -0.15919366569E-01  0.20562341207E-01  0.51100000000E-03 0. -1.
</event>
<event>
 8    1  0.1199892E+005  0.1043930E+01  0.7957747E-01            NaN
         13   -1    0    0    0    0  0.00000000000E+00  0.00000000000E+00  0.74505805969E-08  0.10566000000E+00  0.10566000000E+00 0. -1.
     999900   -1    0    0    0    0 -0.00000000000E+00 -0.00000000000E+00 -0.74505805969E-08  0.93827000000E+00  0.93827000000E+00 0. -1.
     999902    2    1    2    0    0 -0.24011788754E-01 -0.24111838339E-02  0.31408996369E-02  0.10195939145E+01  0.10193034413E+01 0.  0.
     999903    2    3    3    0    0 -0.12346998265E+00 -0.12825326617E-01 -0.42946617455E-01  0.13273177982E+00  0.19078464421E-01 0.  0.
         14    1    1    2    0    0  0.24011788754E-01  0.24111838339E-02 -0.31408996369E-02  0.24336085494E-01  0.00000000000E+00 0.  1.
     999901    1    3    3    0    0  0.99458193899E-01  0.10414142783E-01  0.46087517092E-01  0.88686213468E+00  0.88000000000E+00 0.  1.
        -11    1    4    4    0    0 -0.73264819040E-01 -0.14652704246E-01 -0.19107885539E-01  0.77122032270E-01  0.51100000000E-03 0. -1.
         11    1    4    4    0    0 -0.50205163614E-01  0.18273776294E-02 -0.23838731916E-01  0.55609747552E-01  0.51100000000E-03 0.  1.
</event>
<event>
 8    1  0.1199892E+005  0.1043930E+01  0.7957747E-01            NaN
         13   -1    0    0    0    0  0.00000000000E+00  0.00000000000E+00  0.74505805969E-08  0.10566000000E+00  0.10566000000E+00 0. -1.
     999900   -1    0    0    0    0 -0.00000000000E+00 -0.00000000000E+00 -0.74505805969E-08  0.93827000000E+00  0.93827000000E+00 0. -1.
     999902    2    1    2    0    0 -0.13797765474E-01  0.19057517495E-01 -0.69694574451E-03  0.10203916687E+01  0.10201201422E+01 0.  0.
     999903    2    3    3    0    0 -0.38729825401E-01  0.12599776148E+00 -0.69499835672E-02  0.13354505073E+00  0.20261861459E-01 0.  0.
         14    1    1    2    0    0  0.13797765474E-01 -0.19057517495E-01  0.69694574451E-03  0.23538331260E-01  0.00000000000E+00 0. -1.
     999901    1    3    3    0    0  0.24932059927E-01 -0.10694024398E+00  0.62530378227E-02  0.88684661801E+00  0.88000000000E+00 0.  1.
        -11    1    4    4    0    0 -0.15626642154E-01  0.53540876849E-01 -0.12934777087E-01  0.57257200578E-01  0.51100000000E-03 0. -1.
         11    1    4    4    0    0 -0.23103183247E-01  0.72456884629E-01  0.59847935197E-02  0.76287850151E-01  0.51100000000E-03 0.  1.
</event>
<event>
 8    1  0.1199892E+005  0.1043930E+01  0.7957747E-01            NaN
         13   -1    0    0    0    0  0.00000000000E+00  0.00000000000E+00  0.74505805969E-08  0.10566000000E+00  0.10566000000E+00 0.  1.
     999900   -1    0    0    0    0 -0.00000000000E+00 -0.00000000000E+00 -0.74505805969E-08  0.93827000000E+00  0.93827000000E+00 0. -1.
     999902    2    1    2    0    0  0.69909910729E-02  0.16894785716E-01 -0.15296945318E-01  0.10200908667E+01  0.10198122729E+01 0.  0.
     999903    2    3    3    0    0 -0.47169247616E-01 -0.65471101615E-01 -0.10000191583E+00  0.13054468865E+00  0.23024541185E-01 0.  0.
         14    1    1    2    0    0 -0.69909910729E-02 -0.16894785716E-01  0.15296945318E-01  0.23839133303E-01  0.00000000000E+00 0.  1.
     999901    1    3    3    0    0  0.54160238689E-01  0.82365887331E-01  0.84704970514E-01  0.88954617805E+00  0.88000000000E+00 0.  1.
        -11    1    4    4    0    0 -0.30063555694E-01 -0.28610797896E-01 -0.63839658461E-01  0.76145638421E-01  0.51100000000E-03 0. -1.
         11    1    4    4    0    0 -0.17105691922E-01 -0.36860303719E-01 -0.36162257372E-01  0.54399050227E-01  0.51100000000E-03 0.  1.
</event>
<event>
 8    1  0.1199892E+005  0.1043930E+01  0.7957747E-01            NaN
         13   -1    0    0    0    0  0.00000000000E+00  0.00000000000E+00  0.74505805969E-08  0.10566000000E+00  0.10566000000E+00 0. -1.
     999900   -1    0    0    0    0 -0.00000000000E+00 -0.00000000000E+00 -0.74505805969E-08  0.93827000000E+00  0.93827000000E+00 0.  1.
     999902    2    1    2    0    0 -0.31172095708E-02  0.29843050791E-02  0.21989638659E-01  0.10215209108E+01  0.10212750872E+01 0.  0.
     999903    2    3    3    0    0 -0.76585476968E-01  0.40304564164E-01 -0.94968895991E-01  0.12996626471E+00  0.19553659077E-01 0.  0.
         14    1    1    2    0    0  0.31172095708E-02 -0.29843050791E-02 -0.21989638659E-01  0.22409089243E-01  0.00000000000E+00 0.  1.
     999901    1    3    3    0    0  0.73468267397E-01 -0.37320259085E-01  0.11695853465E+00  0.89155464604E+00  0.88000000000E+00 0. -1.
        -11    1    4    4    0    0 -0.65351395141E-01  0.28178626043E-01 -0.68654521034E-01  0.98886521791E-01  0.51100000000E-03 0.  1.
         11    1    4    4    0    0 -0.11234081827E-01  0.12125938120E-01 -0.26314374958E-01  0.31079742924E-01  0.51100000000E-03 0. -1.
</event>
<event>
 8    1  0.1199892E+005  0.1043930E+01  0.7957747E-01            NaN
         13   -1    0    0    0    0  0.00000000000E+00  0.00000000000E+00  0.74505805969E-08  0.10566000000E+00  0.10566000000E+00 0.  1.
     999900   -1    0    0    0    0 -0.00000000000E+00 -0.00000000000E+00 -0.74505805969E-08  0.93827000000E+00  0.93827000000E+00 0. -1.
     999902    2    1    2    0    0  0.22597303320E-01 -0.38384253147E-02 -0.34690216851E-03  0.10210063884E+01  0.10207490158E+01 0.  0.
     999903    2    3    3    0    0 -0.11456473844E+00  0.36045610871E-01  0.33314688541E-01  0.12885322628E+00  0.32694343476E-01 0.  0.
         14    1    1    2    0    0 -0.22597303320E-01  0.38384253147E-02  0.34690216851E-03  0.22923611568E-01  0.00000000000E+00 0.  1.
     999901    1    3    3    0    0  0.13716204176E+00 -0.39884036186E-01 -0.33661590710E-01  0.89215316215E+00  0.88000000000E+00 0. -1.
        -11    1    4    4    0    0 -0.26136318303E-01  0.20901000003E-01  0.17444744653E-01  0.37743067874E-01  0.51100000000E-03 0. -1.
         11    1    4    4    0    0 -0.88428420133E-01  0.15144610869E-01  0.15869943889E-01  0.91110158410E-01  0.51100000000E-03 0.  1.
</event>
<event>
 8    1  0.1199892E+005  0.1043930E+01  0.7957747E-01            NaN
         13   -1    0    0    0    0  0.00000000000E+00  0.00000000000E+00  0.74505805969E-08  0.10566000000E+00  0.10566000000E+00 0. -1.
     999900   -1    0    0    0    0 -0.00000000000E+00 -0.00000000000E+00 -0.74505805969E-08  0.93827000000E+00  0.93827000000E+00 0.  1.
     999902    2    1    2    0    0  0.94331536163E-02 -0.20740906646E-01 -0.67518200191E-02  0.10201653904E+01  0.10198885562E+01 0.  0.
     999903    2    3    3    0    0  0.99698774868E-01  0.79209920780E-01 -0.14751745667E-01  0.12988338503E+00  0.20928985797E-01 0.  0.
         14    1    1    2    0    0 -0.94331536163E-02  0.20740906646E-01  0.67518200191E-02  0.23764609596E-01  0.00000000000E+00 0. -1.
     999901    1    3    3    0    0 -0.90265621251E-01 -0.99950827427E-01  0.79999256482E-02  0.89028200537E+00  0.88000000000E+00 0.  1.
        -11    1    4    4    0    0  0.71090567224E-01  0.46499344042E-01 -0.15829422937E-01  0.86411165344E-01  0.51100000000E-03 0. -1.
         11    1    4    4    0    0  0.28608207643E-01  0.32710576738E-01  0.10776772701E-02  0.43472219686E-01  0.51100000000E-03 0.  1.
</event>
<event>
 8    1  0.1199892E+005  0.1043930E+01  0.7957747E-01            NaN
         13   -1    0    0    0    0  0.00000000000E+00  0.00000000000E+00  0.74505805969E-08  0.10566000000E+00  0.10566000000E+00 0.  1.
     999900   -1    0    0    0    0 -0.00000000000E+00 -0.00000000000E+00 -0.74505805969E-08  0.93827000000E+00  0.93827000000E+00 0. -1.
     999902    2    1    2    0    0  0.17021787597E-01  0.26142297756E-02 -0.16086282789E-01  0.10203642633E+01  0.10200920968E+01 0.  0.
     999903    2    3    3    0    0  0.10024712205E+00  0.49557357962E-01 -0.70095105211E-01  0.13354575515E+00  0.20389402512E-01 0.  0.
         14    1    1    2    0    0 -0.17021787597E-01 -0.26142297756E-02  0.16086282789E-01  0.23565736659E-01  0.00000000000E+00 0.  1.
     999901    1    3    3    0    0 -0.83225334455E-01 -0.46943128187E-01  0.54008822422E-01  0.88681850820E+00  0.88000000000E+00 0. -1.
        -11    1    4    4    0    0  0.80393559349E-01  0.36953762033E-01 -0.45429785243E-01  0.99462713725E-01  0.51100000000E-03 0.  1.
         11    1    4    4    0    0  0.19853562703E-01  0.12603595929E-01 -0.24665319968E-01  0.34083041420E-01  0.51100000000E-03 0. -1.
</event>
<event>
 8    1  0.1199892E+005  0.1043930E+01  0.7957747E-01            NaN
         13   -1    0    0    0    0  0.00000000000E+00  0.00000000000E+00  0.74505805969E-08  0.10566000000E+00  0.10566000000E+00 0.  1.
     999900   -1    0    0    0    0 -0.00000000000E+00 -0.00000000000E+00 -0.74505805969E-08  0.93827000000E+00  0.93827000000E+00 0. -1.
     999902    2    1    2    0    0 -0.31870727184E-01 -0.11110555113E-02  0.12920460844E-02  0.10120137490E+01  0.10115103465E+01 0.  0.
     999903    2    3    3    0    0 -0.84846904673E-01 -0.25740544331E-01  0.87164972452E-01  0.12590582859E+00  0.19823531382E-01 0.  0.
         14    1    1    2    0    0  0.31870727184E-01  0.11110555113E-02 -0.12920460844E-02  0.31916251012E-01  0.00000000000E+00 0.  1.
     999901    1    3    3    0    0  0.52976177489E-01  0.24629488819E-01 -0.85872926368E-01  0.88610792039E+00  0.88000000000E+00 0. -1.
        -11    1    4    4    0    0 -0.20814896531E-01 -0.14722089933E-01  0.19550634245E-01  0.32132355500E-01  0.51100000000E-03 0. -1.
         11    1    4    4    0    0 -0.64032008142E-01 -0.11018454397E-01  0.67614338206E-01  0.93773473094E-01  0.51100000000E-03 0.  1.
</event>
<event>
 8    1  0.1199892E+005  0.1043930E+01  0.7957747E-01            NaN
         13   -1    0    0    0    0  0.00000000000E+00  0.00000000000E+00  0.74505805969E-08  0.10566000000E+00  0.10566000000E+00 0.  1.
     999900   -1    0    0    0    0 -0.00000000000E+00 -0.00000000000E+00 -0.74505805969E-08  0.93827000000E+00  0.93827000000E+00 0.  1.
     999902    2    1    2    0    0  0.21265709720E-01  0.21907558839E-02 -0.14954336222E-01  0.10178405003E+01  0.10175060796E+01 0.  0.
     999903    2    3    3    0    0  0.77607826264E-01 -0.26290745572E-01  0.96940651535E-01  0.12851147331E+00  0.20088077334E-01 0.  0.
         14    1    1    2    0    0 -0.21265709720E-01 -0.21907558839E-02  0.14954336222E-01  0.26089499671E-01  0.00000000000E+00 0. -1.
     999901    1    3    3    0    0 -0.56342116543E-01  0.28481501456E-01 -0.11189498776E+00  0.88932902702E+00  0.88000000000E+00 0.  1.
        -11    1    4    4    0    0  0.46425072503E-01 -0.19710368267E-01  0.72624648581E-01  0.88421641450E-01  0.51100000000E-03 0.  1.
         11    1    4    4    0    0  0.31182753760E-01 -0.65803773053E-02  0.24316002954E-01  0.40089831856E-01  0.51100000000E-03 0. -1.
</event>
<event>
 8    1  0.1199892E+005  0.1043930E+01  0.7957747E-01            NaN
         13   -1    0    0    0    0  0.00000000000E+00  0.00000000000E+00  0.74505805969E-08  0.10566000000E+00  0.10566000000E+00 0. -1.
     999900   -1    0    0    0    0 -0.00000000000E+00 -0.00000000000E+00 -0.74505805969E-08  0.93827000000E+00  0.93827000000E+00 0. -1.
     999902    2    1    2    0    0 -0.31630978555E-02 -0.35504056053E-02 -0.24475723094E-01  0.10189966571E+01  0.10186915704E+01 0.  0.
     999903    2    3    3    0    0 -0.93925129980E-01  0.52727656782E-01  0.66200819411E-01  0.12791461701E+00  0.19428456519E-01 0.  0.
         14    1    1    2    0    0  0.31630978555E-02  0.35504056053E-02  0.24475723094E-01  0.24933342916E-01  0.00000000000E+00 0. -1.
     999901    1    3    3    0    0  0.90762032124E-01 -0.56278062387E-01 -0.90676542505E-01  0.89108204007E+00  0.88000000000E+00 0. -1.
        -11    1    4    4    0    0 -0.61197723790E-01  0.25504118967E-01  0.46640333987E-01  0.81062959216E-01  0.51100000000E-03 0. -1.
         11    1    4    4    0    0 -0.32727406190E-01  0.27223537815E-01  0.19560485424E-01  0.46851657794E-01  0.51100000000E-03 0.  1.
</event>
<event>
 8    1  0.1199892E+005  0.1043930E+01  0.7957747E-01            NaN
         13   -1    0    0    0    0  0.00000000000E+00  0.00000000000E+00  0.74505805969E-08  0.10566000000E+00  0.10566000000E+00 0.  1.
     999900   -1    0    0    0    0 -0.00000000000E+00 -0.00000000000E+00 -0.74505805969E-08  0.93827000000E+00  0.93827000000E+00 0. -1.
     999902    2    1    2    0    0 -0.34169385638E-02  0.64360349439E-02  0.22739108517E-01  0.10200518704E+01  0.10197723537E+01 0.  0.
     999903    2    3    3    0    0 -0.37003898747E-01  0.36147074694E-01 -0.11544595112E+00  0.12814047323E+00  0.20403767265E-01 0.  0.
         14    1    1    2    0    0  0.34169385638E-02 -0.64360349439E-02 -0.22739108517E-01  0.23878129556E-01  0.00000000000E+00 0. -1.
     999901    1    3    3    0    0  0.33586960183E-01 -0.29711039750E-01  0.13818505963E+00  0.89191139722E+00  0.88000000000E+00 0.  1.
        -11    1    4    4    0    0 -0.17782124745E-01  0.30923174964E-01 -0.75052012990E-01  0.83099413266E-01  0.51100000000E-03 0.  1.
         11    1    4    4    0    0 -0.19221774002E-01  0.52238997298E-02 -0.40393938126E-01  0.45041059962E-01  0.51100000000E-03 0. -1.
</event>
<event>
 8    1  0.1199892E+005  0.1043930E+01  0.7957747E-01            NaN
         13   -1    0    0    0    0  0.00000000000E+00  0.00000000000E+00  0.74505805969E-08  0.10566000000E+00  0.10566000000E+00 0.  1.
     999900   -1    0    0    0    0 -0.00000000000E+00 -0.00000000000E+00 -0.74505805969E-08  0.93827000000E+00  0.93827000000E+00 0.  1.
     999902    2    1    2    0    0  0.45255178874E-02  0.40898639503E-02  0.31598920237E-01  0.10117477213E+01  0.10112357552E+01 0.  0.
     999903    2    3    3    0    0  0.17490024363E-01  0.69309189462E-01 -0.91543773399E-01  0.12068893437E+00  0.32800788638E-01 0.  0.
         14    1    1    2    0    0 -0.45255178874E-02 -0.40898639503E-02 -0.31598920237E-01  0.32182278655E-01  0.00000000000E+00 0. -1.
     999901    1    3    3    0    0 -0.12964506475E-01 -0.65219325512E-01  0.12314269364E+00  0.89105878697E+00  0.88000000000E+00 0. -1.
        -11    1    4    4    0    0  0.26150450032E-01  0.55809660942E-01 -0.64290325754E-01  0.89062177145E-01  0.51100000000E-03 0.  1.
         11    1    4    4    0    0 -0.86604256689E-02  0.13499528520E-01 -0.27253447645E-01  0.31626757225E-01  0.51100000000E-03 0. -1.
</event>
<event>
 8    1  0.1199892E+005  0.1043930E+01  0.7957747E-01            NaN
         13   -1    0    0    0    0  0.00000000000E+00  0.00000000000E+00  0.74505805969E-08  0.10566000000E+00  0.10566000000E+00 0.  1.
     999900   -1    0    0    0    0 -0.00000000000E+00 -0.00000000000E+00 -0.74505805969E-08  0.93827000000E+00  0.93827000000E+00 0.  1.
     999902    2    1    2    0    0  0.14070516190E-01  0.23138822157E-01 -0.94296136709E-02  0.10152541891E+01  0.10148491348E+01 0.  0.
     999903    2    3    3    0    0 -0.83930491786E-01 -0.87153746836E-01 -0.87994931586E-02  0.12297113682E+00  0.20108863015E-01 0.  0.
         14    1    1    2    0    0 -0.14070516190E-01 -0.23138822157E-01  0.94296136709E-02  0.28675810898E-01  0.00000000000E+00 0. -1.
     999901    1    3    3    0    0  0.98001007976E-01  0.11029256899E+00 -0.63012051226E-03  0.89228305228E+00  0.88000000000E+00 0. -1.
        -11    1    4    4    0    0 -0.43070742703E-01 -0.51325741507E-01  0.40497001358E-02  0.67127355157E-01  0.51100000000E-03 0.  1.
         11    1    4    4    0    0 -0.40859749083E-01 -0.35828005329E-01 -0.12849193294E-01  0.55843781662E-01  0.51100000000E-03 0. -1.
</event>
<event>
 8    1  0.1199892E+005  0.1043930E+01  0.7957747E-01            NaN
         13   -1    0    0    0    0  0.00000000000E+00  0.00000000000E+00  0.74505805969E-08  0.10566000000E+00  0.10566000000E+00 0. -1.
     999900   -1    0    0    0    0 -0.00000000000E+00 -0.00000000000E+00 -0.74505805969E-08  0.93827000000E+00  0.93827000000E+00 0. -1.
     999902    2    1    2    0    0  0.26335418876E-02  0.22250457433E-01  0.70304215669E-02  0.10204471291E+01  0.10201768955E+01 0.  0.
     999903    2    3    3    0    0  0.78939284531E-01  0.85096852891E-01 -0.59972851746E-01  0.13238087344E+00  0.21332315690E-01 0.  0.
         14    1    1    2    0    0 -0.26335418876E-02 -0.22250457433E-01 -0.70304215669E-02  0.23482870912E-01  0.00000000000E+00 0.  1.
     999901    1    3    3    0    0 -0.76305742644E-01 -0.62846395458E-01  0.67003273313E-01  0.88806625565E+00  0.88000000000E+00 0.  1.
        -11    1    4    4    0    0  0.63308042670E-01  0.69748700139E-01 -0.57424563596E-01  0.11032058313E+00  0.51100000000E-03 0. -1.
         11    1    4    4    0    0  0.15631241862E-01  0.15348152752E-01 -0.25482881500E-02  0.22060290309E-01  0.51100000000E-03 0.  1.
</event>
<event>
 8    1  0.1199892E+005  0.1043930E+01  0.7957747E-01            NaN
         13   -1    0    0    0    0  0.00000000000E+00  0.00000000000E+00  0.74505805969E-08  0.10566000000E+00  0.10566000000E+00 0.  1.
     999900   -1    0    0    0    0 -0.00000000000E+00 -0.00000000000E+00 -0.74505805969E-08  0.93827000000E+00  0.93827000000E+00 0.  1.
     999902    2    1    2    0    0 -0.74003908217E-04  0.22869163859E-01 -0.36048179770E-02  0.10207783511E+01  0.10205157732E+01 0.  0.
     999903    2    3    3    0    0  0.77594001411E-01  0.10513284510E+00 -0.17107491163E-01  0.13343289728E+00  0.20926720961E-01 0.  0.
         14    1    1    2    0    0  0.74003908217E-04 -0.22869163859E-01  0.36048179770E-02  0.23151648858E-01  0.00000000000E+00 0. -1.
     999901    1    3    3    0    0 -0.77668005319E-01 -0.82263681239E-01  0.13502673186E-01  0.88734545386E+00  0.88000000000E+00 0. -1.
        -11    1    4    4    0    0  0.11885718432E-01  0.91816198770E-02 -0.73516538972E-02  0.16729625885E-01  0.51100000000E-03 0.  1.
         11    1    4    4    0    0  0.65708282979E-01  0.95951225221E-01 -0.97558372660E-02  0.11670327140E+00  0.51100000000E-03 0. -1.
</event>
<event>
 8    1  0.1199892E+005  0.1043930E+01  0.7957747E-01            NaN
         13   -1    0    0    0    0  0.00000000000E+00  0.00000000000E+00  0.74505805969E-08  0.10566000000E+00  0.10566000000E+00 0. -1.
     999900   -1    0    0    0    0 -0.00000000000E+00 -0.00000000000E+00 -0.74505805969E-08  0.93827000000E+00  0.93827000000E+00 0.  1.
     999902    2    1    2    0    0  0.32880936177E-02  0.13038580448E-01  0.18625171966E-01  0.10209579916E+01  0.10206995187E+01 0.  0.
     999903    2    3    3    0    0 -0.10858910276E+00 -0.53772754161E-01 -0.40878526693E-01  0.12937459579E+00  0.19586468927E-01 0.  0.
         14    1    1    2    0    0 -0.32880936177E-02 -0.13038580448E-01 -0.18625171966E-01  0.22972008412E-01  0.00000000000E+00 0.  1.
     999901    1    3    3    0    0  0.11187719637E+00  0.66811334609E-01  0.59503698659E-01  0.89158339579E+00  0.88000000000E+00 0.  1.
        -11    1    4    4    0    0 -0.49849528274E-02 -0.43813619060E-02  0.18406257149E-02  0.69061647001E-02  0.51100000000E-03 0.  1.
         11    1    4    4    0    0 -0.10360414993E+00 -0.49391392255E-01 -0.42719152408E-01  0.12246843109E+00  0.51100000000E-03 0. -1.
</event>
<event>
 8    1  0.1199892E+005  0.1043930E+01  0.7957747E-01            NaN
         13   -1    0    0    0    0  0.00000000000E+00  0.00000000000E+00  0.74505805969E-08  0.10566000000E+00  0.10566000000E+00 0.  1.
     999900   -1    0    0    0    0 -0.00000000000E+00 -0.00000000000E+00 -0.74505805969E-08  0.93827000000E+00  0.93827000000E+00 0. -1.
     999902    2    1    2    0    0  0.22037380761E-01 -0.75287083235E-02  0.29448159174E-02  0.10204566206E+01  0.10201866079E+01 0.  0.
     999903    2    3    3    0    0  0.12049123780E+00  0.21476545886E-01 -0.48107711428E-01  0.13302164986E+00  0.20025659098E-01 0.  0.
         14    1    1    2    0    0 -0.22037380761E-01  0.75287083235E-02 -0.29448159174E-02  0.23473379403E-01  0.00000000000E+00 0.  1.
     999901    1    3    3    0    0 -0.98453857041E-01 -0.29005254209E-01  0.51052527346E-01  0.88743497074E+00  0.88000000000E+00 0.  1.
        -11    1    4    4    0    0  0.25430842631E-01 -0.45780868008E-04 -0.17449243494E-01  0.30845859889E-01  0.51100000000E-03 0. -1.
         11    1    4    4    0    0  0.95060395172E-01  0.21522326754E-01 -0.30658467934E-01  0.10217578997E+00  0.51100000000E-03 0.  1.
</event>
<event>
 8    1  0.1199892E+005  0.1043930E+01  0.7957747E-01            NaN
         13   -1    0    0    0    0  0.00000000000E+00  0.00000000000E+00  0.74505805969E-08  0.10566000000E+00  0.10566000000E+00 0. -1.
     999900   -1    0    0    0    0 -0.00000000000E+00 -0.00000000000E+00 -0.74505805969E-08  0.93827000000E+00  0.93827000000E+00 0.  1.
     999902    2    1    2    0    0  0.56753742765E-02 -0.24294627271E-01  0.38982151266E-02  0.10186785670E+01  0.10183655473E+01 0.  0.
     999903    2    3    3    0    0 -0.45424107462E-01  0.61436727964E-01  0.10047749882E+00  0.12778655315E+00  0.19896087903E-01 0.  0.
         14    1    1    2    0    0 -0.56753742765E-02  0.24294627271E-01 -0.38982151266E-02  0.25251433001E-01  0.00000000000E+00 0. -1.
     999901    1    3    3    0    0  0.51099481738E-01 -0.85731355234E-01 -0.96579283698E-01  0.89089201385E+00  0.88000000000E+00 0.  1.
        -11    1    4    4    0    0 -0.23225211835E-01  0.40461937135E-01  0.73367089533E-01  0.86945786378E-01  0.51100000000E-03 0.  1.
         11    1    4    4    0    0 -0.22198895626E-01  0.20974790829E-01  0.27110409292E-01  0.40840766770E-01  0.51100000000E-03 0. -1.
</event>
<event>
 8    1  0.1199892E+005  0.1043930E+01  0.7957747E-01            NaN
         13   -1    0    0    0    0  0.00000000000E+00  0.00000000000E+00  0.74505805969E-08  0.10566000000E+00  0.10566000000E+00 0.  1.
     999900   -1    0    0    0    0 -0.00000000000E+00 -0.00000000000E+00 -0.74505805969E-08  0.93827000000E+00  0.93827000000E+00 0.  1.
     999902    2    1    2    0    0  0.21101422645E-02  0.16917614408E-01 -0.17353474240E-01  0.10196030305E+01  0.10193127775E+01 0.  0.
     999903    2    3    3    0    0  0.65186697320E-01  0.78700781184E-01  0.77621832790E-01  0.13009973064E+00  0.21393282111E-01 0.  0.
         14    1    1    2    0    0 -0.21101422645E-02 -0.16917614408E-01  0.17353474240E-01  0.24326969516E-01  0.00000000000E+00 0. -1.
     999901    1    3    3    0    0 -0.63076555055E-01 -0.61783166777E-01 -0.94975307030E-01  0.88950329985E+00  0.88000000000E+00 0.  1.
        -11    1    4    4    0    0  0.94570854936E-02  0.16150130900E-01  0.53893927558E-02  0.19482552949E-01  0.51100000000E-03 0.  1.
         11    1    4    4    0    0  0.55729611826E-01  0.62550650284E-01  0.72232440034E-01  0.11061717769E+00  0.51100000000E-03 0. -1.
</event>
<event>
 8    1  0.1199892E+005  0.1043930E+01  0.7957747E-01            NaN
         13   -1    0    0    0    0  0.00000000000E+00  0.00000000000E+00  0.74505805969E-08  0.10566000000E+00  0.10566000000E+00 0. -1.
     999900   -1    0    0    0    0 -0.00000000000E+00 -0.00000000000E+00 -0.74505805969E-08  0.93827000000E+00  0.93827000000E+00 0.  1.
     999902    2    1    2    0    0 -0.61481374133E-02 -0.20308033060E-01 -0.11150942303E-01  0.10199600331E+01  0.10196783364E+01 0.  0.
     999903    2    3    3    0    0 -0.31361016146E-01  0.10672623193E+00  0.59284009595E-01  0.12769635221E+00  0.20439243100E-01 0.  0.
         14    1    1    2    0    0  0.61481374133E-02  0.20308033060E-01  0.11150942303E-01  0.23969966931E-01  0.00000000000E+00 0.  1.
     999901    1    3    3    0    0  0.25212878732E-01 -0.12703426499E+00 -0.70434951897E-01  0.89226368086E+00  0.88000000000E+00 0.  1.
        -11    1    4    4    0    0 -0.31586243276E-01  0.77746321929E-01  0.40729015088E-01  0.93280732891E-01  0.51100000000E-03 0.  1.
         11    1    4    4    0    0  0.22522713039E-03  0.28979909999E-01  0.18554994507E-01  0.34415619317E-01  0.51100000000E-03 0. -1.
</event>
<event>
 8    1  0.1199892E+005  0.1043930E+01  0.7957747E-01            NaN
         13   -1    0    0    0    0  0.00000000000E+00  0.00000000000E+00  0.74505805969E-08  0.10566000000E+00  0.10566000000E+00 0. -1.
     999900   -1    0    0    0    0 -0.00000000000E+00 -0.00000000000E+00 -0.74505805969E-08  0.93827000000E+00  0.93827000000E+00 0. -1.
     999902    2    1    2    0    0 -0.44850676451E-02  0.17072203708E-01  0.14729516782E-01  0.10209401188E+01  0.10206812390E+01 0.  0.
     999903    2    3    3    0    0 -0.38738691278E-02  0.13178900492E+00 -0.39083542030E-02  0.13329847477E+00  0.19231730637E-01 0.  0.
         14    1    1    2    0    0  0.44850676451E-02 -0.17072203708E-01 -0.14729516782E-01  0.22989881162E-01  0.00000000000E+00 0.  1.
     999901    1    3    3    0    0 -0.61119851734E-03 -0.11471680122E+00  0.18637870985E-01  0.88764164407E+00  0.88000000000E+00 0. -1.
        -11    1    4    4    0    0 -0.42767469461E-02  0.90651547248E-01 -0.11440538778E-01  0.91472075692E-01  0.51100000000E-03 0. -1.
         11    1    4    4    0    0  0.40287781834E-03  0.41137457675E-01  0.75321845750E-02  0.41826399080E-01  0.51100000000E-03 0.  1.
</event>
<event>
 8    1  0.1199892E+005  0.1043930E+01  0.7957747E-01            NaN
         13   -1    0    0    0    0  0.00000000000E+00  0.00000000000E+00  0.74505805969E-08  0.10566000000E+00  0.10566000000E+00 0. -1.
     999900   -1    0    0    0    0 -0.00000000000E+00 -0.00000000000E+00 -0.74505805969E-08  0.93827000000E+00  0.93827000000E+00 0.  1.
     999902    2    1    2    0    0  0.14016684274E-01 -0.18533241594E-01 -0.70747824158E-03  0.10206824408E+01  0.10204176576E+01 0.  0.
     999903    2    3    3    0    0 -0.10527901207E+00 -0.62158416355E-01 -0.41457482878E-01  0.13062896945E+00  0.19946570273E-01 0.  0.
         14    1    1    2    0    0 -0.14016684274E-01  0.18533241594E-01  0.70747824158E-03  0.23247559173E-01  0.00000000000E+00 0. -1.
     999901    1    3    3    0    0  0.11929569635E+00  0.43625174761E-01  0.40750004637E-01  0.89005347138E+00  0.88000000000E+00 0. -1.
        -11    1    4    4    0    0 -0.26331709836E-01 -0.16942242059E-01 -0.19984440801E-01  0.37148856026E-01  0.51100000000E-03 0. -1.
         11    1    4    4    0    0 -0.78947302234E-01 -0.45216174296E-01 -0.21473042077E-01  0.93480113420E-01  0.51100000000E-03 0.  1.
</event>
<event>
 8    1  0.1199892E+005  0.1043930E+01  0.7957747E-01            NaN
         13   -1    0    0    0    0  0.00000000000E+00  0.00000000000E+00  0.74505805969E-08  0.10566000000E+00  0.10566000000E+00 0. -1.
     999900   -1    0    0    0    0 -0.00000000000E+00 -0.00000000000E+00 -0.74505805969E-08  0.93827000000E+00  0.93827000000E+00 0.  1.
     999902    2    1    2    0    0 -0.22716995559E-02 -0.17692971933E-01  0.16293648012E-01  0.10197704296E+01  0.10194842050E+01 0.  0.
     999903    2    3    3    0    0 -0.39340374417E-01  0.10166814422E+00 -0.63008698959E-01  0.12740838151E+00  0.19460804829E-01 0.  0.
         14    1    1    2    0    0  0.22716995559E-02  0.17692971933E-01 -0.16293648012E-01  0.24159570365E-01  0.00000000000E+00 0.  1.
     999901    1    3    3    0    0  0.37068674861E-01 -0.11936111615E+00  0.79302346972E-01  0.89236204813E+00  0.88000000000E+00 0. -1.
        -11    1    4    4    0    0 -0.17453903660E-01  0.21845907801E-01 -0.16113424160E-01  0.32276709867E-01  0.51100000000E-03 0. -1.
         11    1    4    4    0    0 -0.21886470757E-01  0.79822236421E-01 -0.46895274799E-01  0.95131671639E-01  0.51100000000E-03 0.  1.
</event>
<event>
 8    1  0.1199892E+005  0.1043930E+01  0.7957747E-01            NaN
         13   -1    0    0    0    0  0.00000000000E+00  0.00000000000E+00  0.74505805969E-08  0.10566000000E+00  0.10566000000E+00 0. -1.
     999900   -1    0    0    0    0 -0.00000000000E+00 -0.00000000000E+00 -0.74505805969E-08  0.93827000000E+00  0.93827000000E+00 0.  1.
     999902    2    1    2    0    0 -0.38945052989E-02  0.23050406496E-01  0.44600828451E-02  0.10201312448E+01  0.10198536051E+01 0.  0.
     999903    2    3    3    0    0  0.74155373761E-01 -0.97863807145E-01  0.28817163095E-01  0.12810809595E+00  0.22470228148E-01 0.  0.
         14    1    1    2    0    0  0.38945052989E-02 -0.23050406496E-01 -0.44600828451E-02  0.23798755223E-01  0.00000000000E+00 0. -1.
     999901    1    3    3    0    0 -0.78049879060E-01  0.12091421364E+00 -0.24357080250E-01  0.89202314883E+00  0.88000000000E+00 0.  1.
        -11    1    4    4    0    0  0.21019721500E-01 -0.43762466692E-01  0.16518009037E-01  0.51284382871E-01  0.51100000000E-03 0. -1.
         11    1    4    4    0    0  0.53135652261E-01 -0.54101340453E-01  0.12299154058E-01  0.76823713081E-01  0.51100000000E-03 0.  1.
</event>
<event>
 8    1  0.1199892E+005  0.1043930E+01  0.7957747E-01            NaN
         13   -1    0    0    0    0  0.00000000000E+00  0.00000000000E+00  0.74505805969E-08  0.10566000000E+00  0.10566000000E+00 0.  1.
     999900   -1    0    0    0    0 -0.00000000000E+00 -0.00000000000E+00 -0.74505805969E-08  0.93827000000E+00  0.93827000000E+00 0.  1.
     999902    2    1    2    0    0  0.18747883163E-02  0.11228476121E-01 -0.21852942315E-01  0.10192896957E+01  0.10189918249E+01 0.  0.
     999903    2    3    3    0    0  0.12678093543E+00  0.16866190455E-01  0.10651096725E-01  0.12985738128E+00  0.19789382084E-01 0.  0.
         14    1    1    2    0    0 -0.18747883163E-02 -0.11228476121E-01  0.21852942315E-01  0.24640304280E-01  0.00000000000E+00 0.  1.
     999901    1    3    3    0    0 -0.12490614711E+00 -0.56377143338E-02 -0.32504039039E-01  0.88943231444E+00  0.88000000000E+00 0.  1.
        -11    1    4    4    0    0  0.17136382827E-01 -0.43107124627E-02 -0.92694574168E-05  0.17677643091E-01  0.51100000000E-03 0.  1.
         11    1    4    4    0    0  0.10964455260E+00  0.21176902917E-01  0.10660366182E-01  0.11217973819E+00  0.51100000000E-03 0. -1.
</event>
<event>
 8    1  0.1199892E+005  0.1043930E+01  0.7957747E-01            NaN
         13   -1    0    0    0    0  0.00000000000E+00  0.00000000000E+00  0.74505805969E-08  0.10566000000E+00  0.10566000000E+00 0. -1.
     999900   -1    0    0    0    0 -0.00000000000E+00 -0.00000000000E+00 -0.74505805969E-08  0.93827000000E+00  0.93827000000E+00 0.  1.
     999902    2    1    2    0    0 -0.13247941091E-01  0.15028163424E-01 -0.14236128932E-01  0.10193531612E+01  0.10190568415E+01 0.  0.
     999903    2    3    3    0    0 -0.49114225654E-01 -0.93105664059E-01 -0.74168241876E-01  0.12998755966E+00  0.17747273662E-01 0.  0.
         14    1    1    2    0    0  0.13247941091E-01 -0.15028163424E-01  0.14236128932E-01  0.24576838813E-01  0.00000000000E+00 0. -1.
     999901    1    3    3    0    0  0.35866284564E-01  0.10813382748E+00  0.59932112944E-01  0.88936560153E+00  0.88000000000E+00 0. -1.
        -11    1    4    4    0    0 -0.78326089332E-02 -0.31572995497E-01 -0.25474280658E-01  0.41320744226E-01  0.51100000000E-03 0.  1.
         11    1    4    4    0    0 -0.41281616721E-01 -0.61532668562E-01 -0.48693961218E-01  0.88666815436E-01  0.51100000000E-03 0. -1.
</event>
<event>
 8    1  0.1199892E+005  0.1043930E+01  0.7957747E-01            NaN
         13   -1    0    0    0    0  0.00000000000E+00  0.00000000000E+00  0.74505805969E-08  0.10566000000E+00  0.10566000000E+00 0.  1.
     999900   -1    0    0    0    0 -0.00000000000E+00 -0.00000000000E+00 -0.74505805969E-08  0.93827000000E+00  0.93827000000E+00 0. -1.
     999902    2    1    2    0    0 -0.72926189999E-02  0.21256377975E-01 -0.75913642389E-02  0.10202098670E+01  0.10199340803E+01 0.  0.
     999903    2    3    3    0    0  0.48389484689E-02 -0.10135900428E+00  0.74669075735E-01  0.12782626854E+00  0.21610666047E-01 0.  0.
         14    1    1    2    0    0  0.72926189999E-02 -0.21256377975E-01  0.75913642389E-02  0.23720132957E-01  0.00000000000E+00 0. -1.
     999901    1    3    3    0    0 -0.12131567469E-01  0.12261538225E+00 -0.82260439974E-01  0.89238359850E+00  0.88000000000E+00 0. -1.
        -11    1    4    4    0    0 -0.68071810766E-02 -0.47773374845E-01  0.27839058980E-01  0.55712721924E-01  0.51100000000E-03 0.  1.
         11    1    4    4    0    0  0.11646129545E-01 -0.53585629432E-01  0.46830016755E-01  0.72113546614E-01  0.51100000000E-03 0. -1.
</event>
<event>
 8    1  0.1199892E+005  0.1043930E+01  0.7957747E-01            NaN
         13   -1    0    0    0    0  0.00000000000E+00  0.00000000000E+00  0.74505805969E-08  0.10566000000E+00  0.10566000000E+00 0. -1.
     999900   -1    0    0    0    0 -0.00000000000E+00 -0.00000000000E+00 -0.74505805969E-08  0.93827000000E+00  0.93827000000E+00 0. -1.
     999902    2    1    2    0    0  0.56712023782E-02  0.98765235542E-02  0.20037505503E-01  0.10208820092E+01  0.10206218040E+01 0.  0.
     999903    2    3    3    0    0 -0.51994742958E-01  0.11362548933E+00  0.39692311914E-01  0.13269536181E+00  0.20454200044E-01 0.  0.
         14    1    1    2    0    0 -0.56712023782E-02 -0.98765235542E-02 -0.20037505503E-01  0.23047990818E-01  0.00000000000E+00 0.  1.
     999901    1    3    3    0    0  0.57665945336E-01 -0.10374896578E+00 -0.19654806411E-01  0.88818664737E+00  0.88000000000E+00 0.  1.
        -11    1    4    4    0    0 -0.23943066758E-01  0.75006977303E-01  0.27812271110E-01  0.83505093468E-01  0.51100000000E-03 0. -1.
         11    1    4    4    0    0 -0.28051676200E-01  0.38618512032E-01  0.11880040804E-01  0.49190268344E-01  0.51100000000E-03 0.  1.
</event>
<event>
 8    1  0.1199892E+005  0.1043930E+01  0.7957747E-01            NaN
         13   -1    0    0    0    0  0.00000000000E+00  0.00000000000E+00  0.74505805969E-08  0.10566000000E+00  0.10566000000E+00 0. -1.
     999900   -1    0    0    0    0 -0.00000000000E+00 -0.00000000000E+00 -0.74505805969E-08  0.93827000000E+00  0.93827000000E+00 0.  1.
     999902    2    1    2    0    0 -0.26961305396E-02  0.45773051506E-02 -0.23249159316E-01  0.10200816405E+01  0.10198028285E+01 0.  0.
     999903    2    3    3    0    0 -0.94119284184E-01 -0.83727632828E-01 -0.28956349084E-01  0.13093118803E+00  0.20874618393E-01 0.  0.
         14    1    1    2    0    0  0.26961305396E-02 -0.45773051506E-02  0.23249159316E-01  0.23848359508E-01  0.00000000000E+00 0. -1.
     999901    1    3    3    0    0  0.91423153645E-01  0.88304937979E-01  0.57071897679E-02  0.88915045246E+00  0.88000000000E+00 0.  1.
        -11    1    4    4    0    0 -0.83837830550E-02 -0.17141197403E-01 -0.55601515634E-02  0.19881772384E-01  0.51100000000E-03 0.  1.
         11    1    4    4    0    0 -0.85735501129E-01 -0.66586435425E-01 -0.23396197520E-01  0.11104941565E+00  0.51100000000E-03 0. -1.
</event>
<event>
 8    1  0.1199892E+005  0.1043930E+01  0.7957747E-01            NaN
         13   -1    0    0    0    0  0.00000000000E+00  0.00000000000E+00  0.74505805969E-08  0.10566000000E+00  0.10566000000E+00 0. -1.
     999900   -1    0    0    0    0 -0.00000000000E+00 -0.00000000000E+00 -0.74505805969E-08  0.93827000000E+00  0.93827000000E+00 0. -1.
     999902    2    1    2    0    0  0.77690373737E-03 -0.23635472825E-01 -0.19902627587E-02  0.10201981585E+01  0.10199220962E+01 0.  0.
     999903    2    3    3    0    0 -0.77256787842E-02 -0.11720073664E+00  0.59179874016E-01  0.13308568641E+00  0.20343147707E-01 0.  0.
         14    1    1    2    0    0 -0.77690373737E-03  0.23635472825E-01  0.19902627587E-02  0.23731841499E-01  0.00000000000E+00 0.  1.
     999901    1    3    3    0    0  0.85025825215E-02  0.93565263811E-01 -0.61170136775E-01  0.88711247209E+00  0.88000000000E+00 0. -1.
        -11    1    4    4    0    0  0.21722273715E-02 -0.11254947191E-01  0.12261015299E-01  0.16792439525E-01  0.51100000000E-03 0. -1.
         11    1    4    4    0    0 -0.98979061557E-02 -0.10594578945E+00  0.46918858717E-01  0.11629324689E+00  0.51100000000E-03 0.  1.
</event>
<event>
 8    1  0.1199892E+005  0.1043930E+01  0.7957747E-01            NaN
         13   -1    0    0    0    0  0.00000000000E+00  0.00000000000E+00  0.74505805969E-08  0.10566000000E+00  0.10566000000E+00 0.  1.
     999900   -1    0    0    0    0 -0.00000000000E+00 -0.00000000000E+00 -0.74505805969E-08  0.93827000000E+00  0.93827000000E+00 0.  1.
     999902    2    1    2    0    0  0.24333969466E-02 -0.19394217968E-01  0.15067123776E-01  0.10192505484E+01  0.10189517187E+01 0.  0.
     999903    2    3    3    0    0 -0.45151521954E-01  0.10898773272E+00  0.45768828008E-01  0.12813392058E+00  0.20162593314E-01 0.  0.
         14    1    1    2    0    0 -0.24333969466E-02  0.19394217968E-01 -0.15067123776E-01  0.24679451578E-01  0.00000000000E+00 0. -1.
     999901    1    3    3    0    0  0.47584918901E-01 -0.12838195069E+00 -0.30701704232E-01  0.89111662784E+00  0.88000000000E+00 0.  1.
        -11    1    4    4    0    0 -0.11664135422E-01  0.25667834164E-01  0.20908376590E-02  0.28275828705E-01  0.51100000000E-03 0.  1.
         11    1    4    4    0    0 -0.33487386532E-01  0.83319898553E-01  0.43677990349E-01  0.99858091878E-01  0.51100000000E-03 0. -1.
</event>
<event>
 8    1  0.1199892E+005  0.1043930E+01  0.7957747E-01            NaN
         13   -1    0    0    0    0  0.00000000000E+00  0.00000000000E+00  0.74505805969E-08  0.10566000000E+00  0.10566000000E+00 0. -1.
     999900   -1    0    0    0    0 -0.00000000000E+00 -0.00000000000E+00 -0.74505805969E-08  0.93827000000E+00  0.93827000000E+00 0.  1.
     999902    2    1    2    0    0  0.11133476467E-01 -0.13914457012E-01 -0.17722035517E-01  0.10187976114E+01  0.10184875729E+01 0.  0.
     999903    2    3    3    0    0  0.94716799521E-01  0.67132269672E-01 -0.54048741499E-01  0.13038646035E+00  0.24522415105E-01 0.  0.
         14    1    1    2    0    0 -0.11133476467E-01  0.13914457012E-01  0.17722035517E-01  0.25132388566E-01  0.00000000000E+00 0. -1.
     999901    1    3    3    0    0 -0.83583323054E-01 -0.81046726684E-01  0.36326705981E-01  0.88841115108E+00  0.88000000000E+00 0.  1.
        -11    1    4    4    0    0  0.55641218340E-01  0.27839695530E-01 -0.37075408376E-01  0.72428177202E-01  0.51100000000E-03 0.  1.
         11    1    4    4    0    0  0.39075581181E-01  0.39292574142E-01 -0.16973333123E-01  0.57958283150E-01  0.51100000000E-03 0. -1.
</event>
<event>
 8    1  0.1199892E+005  0.1043930E+01  0.7957747E-01            NaN
         13   -1    0    0    0    0  0.00000000000E+00  0.00000000000E+00  0.74505805969E-08  0.10566000000E+00  0.10566000000E+00 0.  1.
     999900   -1    0    0    0    0 -0.00000000000E+00 -0.00000000000E+00 -0.74505805969E-08  0.93827000000E+00  0.93827000000E+00 0.  1.
     999902    2    1    2    0    0 -0.20765117531E-01  0.10488446817E-01 -0.16317207562E-02  0.10206091909E+01  0.10203427172E+01 0.  0.
     999903    2    3    3    0    0 -0.82394663891E-01 -0.40005181816E-01 -0.93436701495E-01  0.13225342774E+00  0.19268024102E-01 0.  0.
         14    1    1    2    0    0  0.20765117531E-01 -0.10488446817E-01  0.16317207562E-02  0.23320809063E-01  0.00000000000E+00 0.  1.
     999901    1    3    3    0    0  0.61629546360E-01  0.50493628634E-01  0.91804980739E-01  0.88835576320E+00  0.88000000000E+00 0. -1.
        -11    1    4    4    0    0 -0.23288195964E-01 -0.17558764903E-01 -0.20104880414E-01  0.35427639403E-01  0.51100000000E-03 0. -1.
         11    1    4    4    0    0 -0.59106467928E-01 -0.22446416913E-01 -0.73331821081E-01  0.96825788337E-01  0.51100000000E-03 0.  1.
</event>
<event>
 8    1  0.1199892E+005  0.1043930E+01  0.7957747E-01            NaN
         13   -1    0    0    0    0  0.00000000000E+00  0.00000000000E+00  0.74505805969E-08  0.10566000000E+00  0.10566000000E+00 0.  1.
     999900   -1    0    0    0    0 -0.00000000000E+00 -0.00000000000E+00 -0.74505805969E-08  0.93827000000E+00  0.93827000000E+00 0. -1.
     999902    2    1    2    0    0  0.17642711609E-01  0.10113442129E-01 -0.12619895582E-01  0.10199965767E+01  0.10197157485E+01 0.  0.
     999903    2    3    3    0    0  0.11754702551E+00  0.58456739437E-01 -0.81178629266E-02  0.13301393055E+00  0.19806878352E-01 0.  0.
         14    1    1    2    0    0 -0.17642711609E-01 -0.10113442129E-01  0.12619895582E-01  0.23933423263E-01  0.00000000000E+00 0.  1.
     999901    1    3    3    0    0 -0.99904313905E-01 -0.48343297308E-01 -0.45020326552E-02  0.88698264618E+00  0.88000000000E+00 0. -1.
        -11    1    4    4    0    0  0.28257820291E-01  0.23873456402E-01 -0.31870708874E-02  0.37133069763E-01  0.51100000000E-03 0. -1.
         11    1    4    4    0    0  0.89289205223E-01  0.34583283035E-01 -0.49307920391E-02  0.95880860791E-01  0.51100000000E-03 0.  1.
</event>
<event>
 8    1  0.1199892E+005  0.1043930E+01  0.7957747E-01            NaN
         13   -1    0    0    0    0  0.00000000000E+00  0.00000000000E+00  0.74505805969E-08  0.10566000000E+00  0.10566000000E+00 0.  1.
     999900   -1    0    0    0    0 -0.00000000000E+00 -0.00000000000E+00 -0.74505805969E-08  0.93827000000E+00  0.93827000000E+00 0. -1.
     999902    2    1    2    0    0  0.16744486575E-02  0.18092934303E-02 -0.23507695964E-01  0.10202933951E+01  0.10200195699E+01 0.  0.
     999903    2    3    3    0    0 -0.33316030156E-01  0.12372650563E+00  0.18069251698E-01  0.13022778921E+00  0.14648316081E-01 0.  0.
         14    1    1    2    0    0 -0.16744486575E-02 -0.18092934303E-02  0.23507695964E-01  0.23636604886E-01  0.00000000000E+00 0.  1.
     999901    1    3    3    0    0  0.34990478814E-01 -0.12191721220E+00 -0.41576947662E-01  0.89006560591E+00  0.88000000000E+00 0. -1.
        -11    1    4    4    0    0 -0.14345426321E-01  0.53706319821E-01  0.54209146103E-03  0.55594199600E-01  0.51100000000E-03 0.  1.
         11    1    4    4    0    0 -0.18970603835E-01  0.70020185811E-01  0.17527160237E-01  0.74633589608E-01  0.51100000000E-03 0. -1.
</event>
<event>
 8    1  0.1199892E+005  0.1043930E+01  0.7957747E-01            NaN
         13   -1    0    0    0    0  0.00000000000E+00  0.00000000000E+00  0.74505805969E-08  0.10566000000E+00  0.10566000000E+00 0.  1.
     999900   -1    0    0    0    0 -0.00000000000E+00 -0.00000000000E+00 -0.74505805969E-08  0.93827000000E+00  0.93827000000E+00 0. -1.
     999902    2    1    2    0    0 -0.68232373899E-02  0.22762796640E-01  0.68501629856E-03  0.10201566804E+01  0.10198796408E+01 0.  0.
     999903    2    3    3    0    0 -0.79577379785E-01 -0.74224377440E-01  0.66966344348E-01  0.12937450069E+00  0.20284293764E-01 0.  0.
         14    1    1    2    0    0  0.68232373899E-02 -0.22762796640E-01 -0.68501629856E-03  0.23773319640E-01  0.00000000000E+00 0.  1.
     999901    1    3    3    0    0  0.72754142395E-01  0.96987174080E-01 -0.66281328050E-01  0.89078217967E+00  0.88000000000E+00 0. -1.
        -11    1    4    4    0    0 -0.42186807666E-01 -0.52816047975E-01  0.41634861132E-01  0.79391337356E-01  0.51100000000E-03 0. -1.
         11    1    4    4    0    0 -0.37390572119E-01 -0.21408329466E-01  0.25331483216E-01  0.49983163333E-01  0.51100000000E-03 0.  1.
</event>
<event>
 8    1  0.1199892E+005  0.1043930E+01  0.7957747E-01            NaN
         13   -1    0    0    0    0  0.00000000000E+00  0.00000000000E+00  0.74505805969E-08  0.10566000000E+00  0.10566000000E+00 0. -1.
     999900   -1    0    0    0    0 -0.00000000000E+00 -0.00000000000E+00 -0.74505805969E-08  0.93827000000E+00  0.93827000000E+00 0. -1.
     999902    2    1    2    0    0  0.13470680673E-02 -0.48731142231E-03 -0.23993349609E-01  0.10198939252E+01  0.10196106540E+01 0.  0.
     999903    2    3    3    0    0 -0.58199104303E-01 -0.11046239779E+00 -0.34084628563E-01  0.13099454950E+00  0.20217146854E-01 0.  0.
         14    1    1    2    0    0 -0.13470680673E-02  0.48731142231E-03  0.23993349609E-01  0.24036074769E-01  0.00000000000E+00 0. -1.
     999901    1    3    3    0    0  0.59546172371E-01  0.10997508637E+00  0.10091278954E-01  0.88889937573E+00  0.88000000000E+00 0.  1.
        -11    1    4    4    0    0 -0.58547198489E-01 -0.10264855295E+00 -0.34616115848E-01  0.12313828191E+00  0.51100000000E-03 0.  1.
         11    1    4    4    0    0  0.34809418515E-03 -0.78138448391E-02  0.53148728491E-03  0.78562675913E-02  0.51100000000E-03 0. -1.
</event>
<event>
 7    1  0.1199892E+005  0.1043930E+01  0.7957747E-01            NaN
         13   -1    0    0    0    0  0.00000000000E+00  0.00000000000E+00  0.74505805969E-08  0.10566000000E+00  0.10566000000E+00 0. -1.
     999900   -1    0    0    0    0 -0.00000000000E+00 -0.00000000000E+00 -0.74505805969E-08  0.93827000000E+00  0.93827000000E+00 0.  1.
     999903    2    1    2    0    0 -0.42502178728E-02  0.11275715015E+00  0.28139030782E-01  0.11788703703E+00  0.19321210737E-01 0.  0.
         14    1    1    2    0    0  0.20210136130E-01 -0.35805533053E-01  0.76274331268E-02  0.41817024472E-01  0.00000000000E+00 0.  1.
     999901    1    1    2    0    0 -0.15959918257E-01 -0.76951617101E-01 -0.35766463909E-01  0.88422593849E+00  0.88000000000E+00 0. -1.
        -11    1    3    3    0    0 -0.80962928630E-02  0.41679944709E-01  0.36891542649E-02  0.42622045109E-01  0.51100000000E-03 0.  1.
         11    1    3    3    0    0  0.38460749901E-02  0.71077205445E-01  0.24449876517E-01  0.75264991925E-01  0.51100000000E-03 0. -1.
</event>
<event>
 8    1  0.1199892E+005  0.1043930E+01  0.7957747E-01            NaN
         13   -1    0    0    0    0  0.00000000000E+00  0.00000000000E+00  0.74505805969E-08  0.10566000000E+00  0.10566000000E+00 0.  1.
     999900   -1    0    0    0    0 -0.00000000000E+00 -0.00000000000E+00 -0.74505805969E-08  0.93827000000E+00  0.93827000000E+00 0. -1.
     999902    2    1    2    0    0 -0.82377579214E-02 -0.28744815614E-02  0.21653251484E-01  0.10205850519E+01  0.10203180199E+01 0.  0.
     999903    2    3    3    0    0 -0.10406874841E+00 -0.20908784114E-01 -0.72556805291E-01  0.13020066888E+00  0.20499817898E-01 0.  0.
         14    1    1    2    0    0  0.82377579214E-02  0.28744815614E-02 -0.21653251484E-01  0.23344948054E-01  0.00000000000E+00 0. -1.
     999901    1    3    3    0    0  0.95830990491E-01  0.18034302553E-01  0.94210056776E-01  0.89038438306E+00  0.88000000000E+00 0.  1.
        -11    1    4    4    0    0 -0.28839901110E-01 -0.13397428089E-01 -0.28443217438E-01  0.42667419826E-01  0.51100000000E-03 0.  1.
         11    1    4    4    0    0 -0.75228847303E-01 -0.75113560245E-02 -0.44113587854E-01  0.87533249055E-01  0.51100000000E-03 0. -1.
</event>
<event>
 8    1  0.1199892E+005  0.1043930E+01  0.7957747E-01            NaN
         13   -1    0    0    0    0  0.00000000000E+00  0.00000000000E+00  0.74505805969E-08  0.10566000000E+00  0.10566000000E+00 0.  1.
     999900   -1    0    0    0    0 -0.00000000000E+00 -0.00000000000E+00 -0.74505805969E-08  0.93827000000E+00  0.93827000000E+00 0.  1.
     999902    2    1    2    0    0 -0.21874764769E-01  0.89495724960E-02  0.22880841554E-02  0.10201847792E+01  0.10199084019E+01 0.  0.
     999903    2    3    3    0    0  0.78183555264E-01  0.10127220319E+00 -0.56611885782E-02  0.12968024441E+00  0.20400717711E-01 0.  0.
         14    1    1    2    0    0  0.21874764769E-01 -0.89495724960E-02 -0.22880841554E-02  0.23745220796E-01  0.00000000000E+00 0.  1.
     999901    1    3    3    0    0 -0.10005832003E+00 -0.92322630690E-01  0.79492727337E-02  0.89050453479E+00  0.88000000000E+00 0. -1.
        -11    1    4    4    0    0  0.50014049609E-01  0.61659795797E-01  0.62229148524E-02  0.79638692645E-01  0.51100000000E-03 0. -1.
         11    1    4    4    0    0  0.28169505656E-01  0.39612407388E-01 -0.11884103431E-01  0.50041551768E-01  0.51100000000E-03 0.  1.
</event>
<event>
 8    1  0.1199892E+005  0.1043930E+01  0.7957747E-01            NaN
         13   -1    0    0    0    0  0.00000000000E+00  0.00000000000E+00  0.74505805969E-08  0.10566000000E+00  0.10566000000E+00 0. -1.
     999900   -1    0    0    0    0 -0.00000000000E+00 -0.00000000000E+00 -0.74505805969E-08  0.93827000000E+00  0.93827000000E+00 0. -1.
     999902    2    1    2    0    0  0.17397855103E-01 -0.14672587480E-01 -0.55856690486E-02  0.10204956260E+01  0.10202265203E+01 0.  0.
     999903    2    3    3    0    0 -0.11395531739E-01 -0.10574870695E+00 -0.76499268469E-01  0.13249075145E+00  0.19723437292E-01 0.  0.
         14    1    1    2    0    0 -0.17397855103E-01  0.14672587480E-01  0.55856690486E-02  0.23434373990E-01  0.00000000000E+00 0. -1.
     999901    1    3    3    0    0  0.28793386842E-01  0.91076119466E-01  0.70913599421E-01  0.88800487456E+00  0.88000000000E+00 0.  1.
        -11    1    4    4    0    0 -0.14224540095E-01 -0.83968165455E-01 -0.67813887474E-01  0.10886677549E+00  0.51100000000E-03 0. -1.
         11    1    4    4    0    0  0.28290083562E-02 -0.21780541492E-01 -0.86853809955E-02  0.23623975956E-01  0.51100000000E-03 0.  1.
</event>
<event>
 8    1  0.1199892E+005  0.1043930E+01  0.7957747E-01            NaN
         13   -1    0    0    0    0  0.00000000000E+00  0.00000000000E+00  0.74505805969E-08  0.10566000000E+00  0.10566000000E+00 0.  1.
     999900   -1    0    0    0    0 -0.00000000000E+00 -0.00000000000E+00 -0.74505805969E-08  0.93827000000E+00  0.93827000000E+00 0.  1.
     999902    2    1    2    0    0  0.16001942171E-01 -0.17290888647E-01  0.89765553840E-03  0.10203536820E+01  0.10200812682E+01 0.  0.
     999903    2    3    3    0    0  0.23686099777E-01  0.55583787533E-01 -0.11244061897E+00  0.13006421833E+00  0.24964361321E-01 0.  0.
         14    1    1    2    0    0 -0.16001942171E-01  0.17290888647E-01 -0.89765553840E-03  0.23576317968E-01  0.00000000000E+00 0.  1.
     999901    1    3    3    0    0 -0.76841576064E-02 -0.72874676180E-01  0.11333827451E+00  0.89028946370E+00  0.88000000000E+00 0. -1.
        -11    1    4    4    0    0  0.76844781951E-02  0.36535490528E-01 -0.86003102047E-01  0.93758668698E-01  0.51100000000E-03 0.  1.
         11    1    4    4    0    0  0.16001621582E-01  0.19048297005E-01 -0.26437516926E-01  0.36305549634E-01  0.51100000000E-03 0. -1.
</event>
<event>
 8    1  0.1199892E+005  0.1043930E+01  0.7957747E-01            NaN
         13   -1    0    0    0    0  0.00000000000E+00  0.00000000000E+00  0.74505805969E-08  0.10566000000E+00  0.10566000000E+00 0.  1.
     999900   -1    0    0    0    0 -0.00000000000E+00 -0.00000000000E+00 -0.74505805969E-08  0.93827000000E+00  0.93827000000E+00 0. -1.
     999902    2    1    2    0    0 -0.13912742733E-01 -0.35407896508E-02 -0.13503657423E-01  0.10242208558E+01  0.10240312061E+01 0.  0.
     999903    2    3    3    0    0  0.55649117798E-02 -0.12919742622E+00 -0.32956906082E-01  0.13486862061E+00  0.19504973270E-01 0.  0.
         14    1    1    2    0    0  0.13912742733E-01  0.35407896508E-02  0.13503657423E-01  0.19709144210E-01  0.00000000000E+00 0.  1.
     999901    1    3    3    0    0 -0.19477654513E-01  0.12565663657E+00  0.19453248659E-01  0.88935223518E+00  0.88000000000E+00 0.  1.
        -11    1    4    4    0    0 -0.68985784276E-02 -0.29869682293E-01 -0.84946620261E-02  0.31815227621E-01  0.51100000000E-03 0. -1.
         11    1    4    4    0    0  0.12463490207E-01 -0.99327743924E-01 -0.24462244056E-01  0.10305339299E+00  0.51100000000E-03 0.  1.
</event>
<event>
 8    1  0.1199892E+005  0.1043930E+01  0.7957747E-01            NaN
         13   -1    0    0    0    0  0.00000000000E+00  0.00000000000E+00  0.74505805969E-08  0.10566000000E+00  0.10566000000E+00 0.  1.
     999900   -1    0    0    0    0 -0.00000000000E+00 -0.00000000000E+00 -0.74505805969E-08  0.93827000000E+00  0.93827000000E+00 0. -1.
     999902    2    1    2    0    0  0.18838277905E-01  0.12559181944E-01  0.26481958846E-01  0.10090888188E+01  0.10084871522E+01 0.  0.
     999903    2    3    3    0    0 -0.45627959695E-01  0.10962046589E+00  0.13554325766E-01  0.12131412194E+00  0.20852798068E-01 0.  0.
         14    1    1    2    0    0 -0.18838277905E-01 -0.12559181944E-01 -0.26481958846E-01  0.34841181235E-01  0.00000000000E+00 0. -1.
     999901    1    3    3    0    0  0.64466237600E-01 -0.97061283942E-01  0.12927633080E-01  0.88777469683E+00  0.88000000000E+00 0.  1.
        -11    1    4    4    0    0 -0.13715259077E-01  0.20598797166E-01 -0.41587338097E-02  0.25099302064E-01  0.51100000000E-03 0.  1.
         11    1    4    4    0    0 -0.31912700618E-01  0.89021668721E-01  0.17713059576E-01  0.96214819873E-01  0.51100000000E-03 0. -1.
</event>
<event>
 8    1  0.1199892E+005  0.1043930E+01  0.7957747E-01            NaN
         13   -1    0    0    0    0  0.00000000000E+00  0.00000000000E+00  0.74505805969E-08  0.10566000000E+00  0.10566000000E+00 0.  1.
     999900   -1    0    0    0    0 -0.00000000000E+00 -0.00000000000E+00 -0.74505805969E-08  0.93827000000E+00  0.93827000000E+00 0.  1.
     999902    2    1    2    0    0  0.19057654573E-01 -0.40760970361E-02  0.10538068841E-01  0.10217746472E+01  0.10215344193E+01 0.  0.
     999903    2    3    3    0    0 -0.11473964754E+00  0.19253326044E-01 -0.52688171933E-01  0.12911371625E+00  0.18932273535E-01 0.  0.
         14    1    1    2    0    0 -0.19057654573E-01  0.40760970361E-02 -0.10538068841E-01  0.22155352847E-01  0.00000000000E+00 0. -1.
     999901    1    3    3    0    0  0.13379730211E+00 -0.23329423080E-01  0.63226240775E-01  0.89266093090E+00  0.88000000000E+00 0.  1.
        -11    1    4    4    0    0 -0.14743875963E-01  0.71776185008E-02 -0.12680694194E-01  0.20735506070E-01  0.51100000000E-03 0. -1.
         11    1    4    4    0    0 -0.99995771578E-01  0.12075707543E-01 -0.40007477739E-01  0.10837821018E+00  0.51100000000E-03 0.  1.
</event>
<event>
 8    1  0.1199892E+005  0.1043930E+01  0.7957747E-01            NaN
         13   -1    0    0    0    0  0.00000000000E+00  0.00000000000E+00  0.74505805969E-08  0.10566000000E+00  0.10566000000E+00 0.  1.
     999900   -1    0    0    0    0 -0.00000000000E+00 -0.00000000000E+00 -0.74505805969E-08  0.93827000000E+00  0.93827000000E+00 0. -1.
     999902    2    1    2    0    0  0.10529481549E-01  0.53563671790E-02 -0.19964250634E-01  0.10207323287E+01  0.10204686937E+01 0.  0.
     999903    2    3    3    0    0 -0.90763361770E-01 -0.79326621181E-01 -0.45863925885E-01  0.13050637883E+00  0.19942781876E-01 0.  0.
         14    1    1    2    0    0 -0.10529481549E-01 -0.53563671790E-02  0.19964250634E-01  0.23197671315E-01  0.00000000000E+00 0.  1.
     999901    1    3    3    0    0  0.10129284332E+00  0.84682988360E-01  0.25899675251E-01  0.89022594986E+00  0.88000000000E+00 0.  1.
        -11    1    4    4    0    0 -0.41118718372E-01 -0.28286991918E-01 -0.27444455913E-01  0.56959302961E-01  0.51100000000E-03 0.  1.
         11    1    4    4    0    0 -0.49644643397E-01 -0.51039629263E-01 -0.18419469972E-01  0.73547075865E-01  0.51100000000E-03 0. -1.
</event>
<event>
 8    1  0.1199892E+005  0.1043930E+01  0.7957747E-01            NaN
         13   -1    0    0    0    0  0.00000000000E+00  0.00000000000E+00  0.74505805969E-08  0.10566000000E+00  0.10566000000E+00 0. -1.
     999900   -1    0    0    0    0 -0.00000000000E+00 -0.00000000000E+00 -0.74505805969E-08  0.93827000000E+00  0.93827000000E+00 0.  1.
     999902    2    1    2    0    0 -0.23662890543E-01  0.38036114951E-04  0.15943776121E-02  0.10202134261E+01  0.10199377231E+01 0.  0.
     999903    2    3    3    0    0  0.11473206093E+00 -0.88574425490E-02 -0.51625000077E-01  0.12776477535E+00  0.20415609054E-01 0.  0.
         14    1    1    2    0    0  0.23662890543E-01 -0.38036114951E-04 -0.15943776121E-02  0.23716573858E-01  0.00000000000E+00 0. -1.
     999901    1    3    3    0    0 -0.13839495148E+00  0.88954786639E-02  0.53219377689E-01  0.89244865079E+00  0.88000000000E+00 0.  1.
        -11    1    4    4    0    0  0.17058725972E-01 -0.15410424909E-02 -0.16274501926E-01  0.23632508917E-01  0.51100000000E-03 0. -1.
         11    1    4    4    0    0  0.97673334962E-01 -0.73164000581E-02 -0.35350498151E-01  0.10413226644E+00  0.51100000000E-03 0.  1.
</event>
<event>
 8    1  0.1199892E+005  0.1043930E+01  0.7957747E-01            NaN
         13   -1    0    0    0    0  0.00000000000E+00  0.00000000000E+00  0.74505805969E-08  0.10566000000E+00  0.10566000000E+00 0. -1.
     999900   -1    0    0    0    0 -0.00000000000E+00 -0.00000000000E+00 -0.74505805969E-08  0.93827000000E+00  0.93827000000E+00 0.  1.
     999902    2    1    2    0    0  0.11471842565E-01  0.83589934209E-02  0.18012586274E-01  0.10209968535E+01  0.10207392643E+01 0.  0.
     999903    2    3    3    0    0 -0.97517570546E-02  0.13028950487E+00  0.20891473538E-02  0.13219369944E+00  0.20008942758E-01 0.  0.
         14    1    1    2    0    0 -0.11471842565E-01 -0.83589934209E-02 -0.18012586274E-01  0.22933146472E-01  0.00000000000E+00 0.  1.
     999901    1    3    3    0    0  0.21223599619E-01 -0.12193051145E+00  0.15923438920E-01  0.88880315408E+00  0.88000000000E+00 0. -1.
        -11    1    4    4    0    0  0.15375452358E-02  0.94209841260E-01  0.42921580607E-02  0.94321482057E-01  0.51100000000E-03 0. -1.
         11    1    4    4    0    0 -0.11289302290E-01  0.36079663613E-01 -0.22030107069E-02  0.37872217387E-01  0.51100000000E-03 0.  1.
</event>
<event>
 8    1  0.1199892E+005  0.1043930E+01  0.7957747E-01            NaN
         13   -1    0    0    0    0  0.00000000000E+00  0.00000000000E+00  0.74505805969E-08  0.10566000000E+00  0.10566000000E+00 0.  1.
     999900   -1    0    0    0    0 -0.00000000000E+00 -0.00000000000E+00 -0.74505805969E-08  0.93827000000E+00  0.93827000000E+00 0. -1.
     999902    2    1    2    0    0 -0.97763058042E-02  0.20891603413E-01  0.81049903755E-02  0.10194815621E+01  0.10191883679E+01 0.  0.
     999903    2    3    3    0    0 -0.82648698741E-01 -0.91302994726E-01 -0.30810480301E-01  0.12852004362E+00  0.20026773711E-01 0.  0.
         14    1    1    2    0    0  0.97763058042E-02 -0.20891603413E-01 -0.81049903755E-02  0.24448437932E-01  0.00000000000E+00 0.  1.
     999901    1    3    3    0    0  0.72872392937E-01  0.11219459814E+00  0.38915470676E-01  0.89096151845E+00  0.88000000000E+00 0. -1.
        -11    1    4    4    0    0 -0.29765380983E-01 -0.35841571948E-01 -0.19569973332E-02  0.46633540980E-01  0.51100000000E-03 0.  1.
         11    1    4    4    0    0 -0.52883317758E-01 -0.55461422778E-01 -0.28853482968E-01  0.81886502637E-01  0.51100000000E-03 0. -1.
</event>
<event>
 8    1  0.1199892E+005  0.1043930E+01  0.7957747E-01            NaN
         13   -1    0    0    0    0  0.00000000000E+00  0.00000000000E+00  0.74505805969E-08  0.10566000000E+00  0.10566000000E+00 0.  1.
     999900   -1    0    0    0    0 -0.00000000000E+00 -0.00000000000E+00 -0.74505805969E-08  0.93827000000E+00  0.93827000000E+00 0. -1.
     999902    2    1    2    0    0 -0.21722470716E-01  0.10012964684E-01  0.36325233624E-02  0.10197366038E+01  0.10194495675E+01 0.  0.
     999903    2    3    3    0    0  0.95626048632E-01 -0.76350548485E-01 -0.28616780155E-01  0.12717324523E+00  0.19502993777E-01 0.  0.
         14    1    1    2    0    0  0.21722470716E-01 -0.10012964684E-01 -0.36325233624E-02  0.24193396243E-01  0.00000000000E+00 0. -1.
     999901    1    3    3    0    0 -0.11734851935E+00  0.86363513169E-01  0.32249303517E-01  0.89256335852E+00  0.88000000000E+00 0.  1.
        -11    1    4    4    0    0  0.17748652947E-01 -0.14590812130E-01 -0.13447553715E-01  0.26627134693E-01  0.51100000000E-03 0.  1.
         11    1    4    4    0    0  0.77877395685E-01 -0.61759736355E-01 -0.15169226440E-01  0.10054611054E+00  0.51100000000E-03 0. -1.
</event>
<event>
 8    1  0.1199892E+005  0.1043930E+01  0.7957747E-01            NaN
         13   -1    0    0    0    0  0.00000000000E+00  0.00000000000E+00  0.74505805969E-08  0.10566000000E+00  0.10566000000E+00 0.  1.
     999900   -1    0    0    0    0 -0.00000000000E+00 -0.00000000000E+00 -0.74505805969E-08  0.93827000000E+00  0.93827000000E+00 0. -1.
     999902    2    1    2    0    0 -0.43067510491E-02  0.25047212095E-01  0.62046230737E-03  0.10185076494E+01  0.10181903240E+01 0.  0.
     999903    2    3    3    0    0  0.83227760340E-01  0.49674263576E-01 -0.84121628148E-01  0.12977259084E+00  0.19237579354E-01 0.  0.
         14    1    1    2    0    0  0.43067510491E-02 -0.25047212095E-01 -0.62046230737E-03  0.25422350635E-01  0.00000000000E+00 0. -1.
     999901    1    3    3    0    0 -0.87534511389E-01 -0.24627051481E-01  0.84742090455E-01  0.88873505852E+00  0.88000000000E+00 0. -1.
        -11    1    4    4    0    0  0.51856067513E-01  0.37523010309E-01 -0.45405507488E-01  0.78478973438E-01  0.51100000000E-03 0.  1.
         11    1    4    4    0    0  0.31371692826E-01  0.12151253267E-01 -0.38716120660E-01  0.51293617407E-01  0.51100000000E-03 0. -1.
</event>
<event>
 8    1  0.1199892E+005  0.1043930E+01  0.7957747E-01            NaN
         13   -1    0    0    0    0  0.00000000000E+00  0.00000000000E+00  0.74505805969E-08  0.10566000000E+00  0.10566000000E+00 0.  1.
     999900   -1    0    0    0    0 -0.00000000000E+00 -0.00000000000E+00 -0.74505805969E-08  0.93827000000E+00  0.93827000000E+00 0. -1.
     999902    2    1    2    0    0  0.22469480428E-02  0.25654689956E-02 -0.20987612275E-01  0.10226671151E+01  0.10224460465E+01 0.  0.
     999903    2    3    3    0    0 -0.71530902840E-01 -0.61354907992E-01 -0.95196834244E-01  0.13416500787E+00  0.75310882166E-02 0.  0.
         14    1    1    2    0    0 -0.22469480428E-02 -0.25654689956E-02  0.20987612275E-01  0.21262884933E-01  0.00000000000E+00 0.  1.
     999901    1    3    3    0    0  0.73777850883E-01  0.63920376988E-01  0.74209221969E-01  0.88850210720E+00  0.88000000000E+00 0.  1.
        -11    1    4    4    0    0 -0.46348496114E-01 -0.44313963132E-01 -0.65082082026E-01  0.91366563591E-01  0.51100000000E-03 0.  1.
         11    1    4    4    0    0 -0.25182406726E-01 -0.17040944860E-01 -0.30114752218E-01  0.42798444275E-01  0.51100000000E-03 0. -1.
</event>
<event>
 8    1  0.1199892E+005  0.1043930E+01  0.7957747E-01            NaN
         13   -1    0    0    0    0  0.00000000000E+00  0.00000000000E+00  0.74505805969E-08  0.10566000000E+00  0.10566000000E+00 0. -1.
     999900   -1    0    0    0    0 -0.00000000000E+00 -0.00000000000E+00 -0.74505805969E-08  0.93827000000E+00  0.93827000000E+00 0.  1.
     999902    2    1    2    0    0  0.53346146889E-02 -0.19468240104E-01  0.10947869590E-01  0.10209664128E+01  0.10207081316E+01 0.  0.
     999903    2    3    3    0    0 -0.66790314027E-01  0.38853424392E-01 -0.10140389444E+00  0.12898752252E+00  0.19608582930E-01 0.  0.
         14    1    1    2    0    0 -0.53346146889E-02  0.19468240104E-01 -0.10947869590E-01  0.22963587158E-01  0.00000000000E+00 0.  1.
     999901    1    3    3    0    0  0.72124928716E-01 -0.58321664496E-01  0.11235176403E+00  0.89197889032E+00  0.88000000000E+00 0. -1.
        -11    1    4    4    0    0 -0.13386358497E-01  0.17452425817E-01 -0.24247069242E-01  0.32740849844E-01  0.51100000000E-03 0. -1.
         11    1    4    4    0    0 -0.53403955530E-01  0.21400998574E-01 -0.77156825198E-01  0.96246672680E-01  0.51100000000E-03 0.  1.
</event>
<event>
 8    1  0.1199892E+005  0.1043930E+01  0.7957747E-01            NaN
         13   -1    0    0    0    0  0.00000000000E+00  0.00000000000E+00  0.74505805969E-08  0.10566000000E+00  0.10566000000E+00 0. -1.
     999900   -1    0    0    0    0 -0.00000000000E+00 -0.00000000000E+00 -0.74505805969E-08  0.93827000000E+00  0.93827000000E+00 0. -1.
     999902    2    1    2    0    0  0.17175844274E-01  0.15187325442E-01  0.49817829732E-02  0.10204676335E+01  0.10201978771E+01 0.  0.
     999903    2    3    3    0    0  0.44951950548E-01  0.83280558071E-01 -0.90375396786E-01  0.13226653456E+00  0.19245638719E-01 0.  0.
         14    1    1    2    0    0 -0.17175844274E-01 -0.15187325442E-01 -0.49817829732E-02  0.23462366509E-01  0.00000000000E+00 0. -1.
     999901    1    3    3    0    0 -0.27776106274E-01 -0.68093232630E-01  0.95357179759E-01  0.88820109893E+00  0.88000000000E+00 0.  1.
        -11    1    4    4    0    0  0.40236694935E-01  0.58631084912E-01 -0.61607117432E-01  0.94086629106E-01  0.51100000000E-03 0.  1.
         11    1    4    4    0    0  0.47152556131E-02  0.24649473159E-01 -0.28768279355E-01  0.38179905455E-01  0.51100000000E-03 0. -1.
</event>
<event>
 8    1  0.1199892E+005  0.1043930E+01  0.7957747E-01            NaN
         13   -1    0    0    0    0  0.00000000000E+00  0.00000000000E+00  0.74505805969E-08  0.10566000000E+00  0.10566000000E+00 0.  1.
     999900   -1    0    0    0    0 -0.00000000000E+00 -0.00000000000E+00 -0.74505805969E-08  0.93827000000E+00  0.93827000000E+00 0. -1.
     999902    2    1    2    0    0 -0.16179942312E-01 -0.14772114478E-01  0.82153904126E-02  0.10205313133E+01  0.10202630361E+01 0.  0.
     999903    2    3    3    0    0 -0.10557563039E+00 -0.59567324736E-01 -0.50981106773E-01  0.13289263389E+00  0.19154607444E-01 0.  0.
         14    1    1    2    0    0  0.16179942312E-01  0.14772114478E-01 -0.82153904126E-02  0.23398686694E-01  0.00000000000E+00 0.  1.
     999901    1    3    3    0    0  0.89395688080E-01  0.44795210258E-01  0.59196497186E-01  0.88763867941E+00  0.88000000000E+00 0.  1.
        -11    1    4    4    0    0 -0.72553025380E-01 -0.33194991855E-01 -0.26626292898E-01  0.84113432759E-01  0.51100000000E-03 0.  1.
         11    1    4    4    0    0 -0.33022605013E-01 -0.26372332881E-01 -0.24354813875E-01  0.48779201134E-01  0.51100000000E-03 0. -1.
</event>
<event>
 8    1  0.1199892E+005  0.1043930E+01  0.7957747E-01            NaN
         13   -1    0    0    0    0  0.00000000000E+00  0.00000000000E+00  0.74505805969E-08  0.10566000000E+00  0.10566000000E+00 0.  1.
     999900   -1    0    0    0    0 -0.00000000000E+00 -0.00000000000E+00 -0.74505805969E-08  0.93827000000E+00  0.93827000000E+00 0. -1.
     999902    2    1    2    0    0  0.83476298802E-02  0.21305191475E-01  0.54986365167E-02  0.10203964259E+01  0.10201250104E+01 0.  0.
     999903    2    3    3    0    0 -0.72832895857E-01  0.63468970940E-01  0.87563907345E-01  0.13185674147E+00  0.19642337183E-01 0.  0.
         14    1    1    2    0    0 -0.83476298802E-02 -0.21305191475E-01 -0.54986365167E-02  0.23533574143E-01  0.00000000000E+00 0.  1.
     999901    1    3    3    0    0  0.81180525738E-01 -0.42163779465E-01 -0.82065270828E-01  0.88853968439E+00  0.88000000000E+00 0. -1.
        -11    1    4    4    0    0 -0.63172062422E-01  0.62015387175E-01  0.81614286177E-01  0.12040668813E+00  0.51100000000E-03 0.  1.
         11    1    4    4    0    0 -0.96608334349E-02  0.14535837652E-02  0.59496211676E-02  0.11450053339E-01  0.51100000000E-03 0. -1.
</event>
<event>
 8    1  0.1199892E+005  0.1043930E+01  0.7957747E-01            NaN
         13   -1    0    0    0    0  0.00000000000E+00  0.00000000000E+00  0.74505805969E-08  0.10566000000E+00  0.10566000000E+00 0. -1.
     999900   -1    0    0    0    0 -0.00000000000E+00 -0.00000000000E+00 -0.74505805969E-08  0.93827000000E+00  0.93827000000E+00 0.  1.
     999902    2    1    2    0    0  0.88369406456E-02  0.13339933005E-01  0.17845280423E-01  0.10199612836E+01  0.10196796167E+01 0.  0.
     999903    2    3    3    0    0  0.90084932386E-01 -0.91430766528E-01  0.57748312280E-02  0.12994789528E+00  0.19448051345E-01 0.  0.
         14    1    1    2    0    0 -0.88369406456E-02 -0.13339933005E-01 -0.17845280423E-01  0.23968716402E-01  0.00000000000E+00 0.  1.
     999901    1    3    3    0    0 -0.81247991740E-01  0.10477069953E+00  0.12070449195E-01  0.89001338832E+00  0.88000000000E+00 0. -1.
        -11    1    4    4    0    0  0.31479945048E-01 -0.35371379660E-01 -0.69268389197E-02  0.47857743968E-01  0.51100000000E-03 0.  1.
         11    1    4    4    0    0  0.58604987338E-01 -0.56059386868E-01  0.12701670148E-01  0.82090151312E-01  0.51100000000E-03 0. -1.
</event>
<event>
 8    1  0.1199892E+005  0.1043930E+01  0.7957747E-01            NaN
         13   -1    0    0    0    0  0.00000000000E+00  0.00000000000E+00  0.74505805969E-08  0.10566000000E+00  0.10566000000E+00 0.  1.
     999900   -1    0    0    0    0 -0.00000000000E+00 -0.00000000000E+00 -0.74505805969E-08  0.93827000000E+00  0.93827000000E+00 0. -1.
     999902    2    1    2    0    0  0.10267052173E-01 -0.11501889274E-01  0.16443472012E-01  0.10213890686E+01  0.10211403115E+01 0.  0.
     999903    2    3    3    0    0  0.27106076280E-01  0.11638252045E+00 -0.46508010272E-01  0.12976085901E+00  0.19881022984E-01 0.  0.
         14    1    1    2    0    0 -0.10267052173E-01  0.11501889274E-01 -0.16443472012E-01  0.22540931414E-01  0.00000000000E+00 0. -1.
     999901    1    3    3    0    0 -0.16839024107E-01 -0.12788440972E+00  0.62951482284E-01  0.89162820957E+00  0.88000000000E+00 0.  1.
        -11    1    4    4    0    0  0.21971875999E-01  0.10554738868E+00 -0.35582008040E-01  0.11353129529E+00  0.51100000000E-03 0.  1.
         11    1    4    4    0    0  0.51342002811E-02  0.10835131767E-01 -0.10926002232E-01  0.16229563725E-01  0.51100000000E-03 0. -1.
</event>
<event>
 8    1  0.1199892E+005  0.1043930E+01  0.7957747E-01            NaN
         13   -1    0    0    0    0  0.00000000000E+00  0.00000000000E+00  0.74505805969E-08  0.10566000000E+00  0.10566000000E+00 0. -1.
     999900   -1    0    0    0    0 -0.00000000000E+00 -0.00000000000E+00 -0.74505805969E-08  0.93827000000E+00  0.93827000000E+00 0.  1.
     999902    2    1    2    0    0 -0.19888020803E-01 -0.10443127958E-01  0.46655833257E-02  0.10209874639E+01  0.10207296614E+01 0.  0.
     999903    2    3    3    0    0  0.11974416165E+00 -0.37838183653E-01  0.24185817563E-01  0.12934365894E+00  0.19350347387E-01 0.  0.
         14    1    1    2    0    0  0.19888020803E-01  0.10443127958E-01 -0.46655833257E-02  0.22942536058E-01  0.00000000000E+00 0. -1.
     999901    1    3    3    0    0 -0.13963218246E+00  0.27395055695E-01 -0.19520234237E-01  0.89164380500E+00  0.88000000000E+00 0.  1.
        -11    1    4    4    0    0  0.74593066747E-01 -0.14668090875E-01  0.10232854149E-01  0.76708871205E-01  0.51100000000E-03 0. -1.
         11    1    4    4    0    0  0.45151094908E-01 -0.23170092777E-01  0.13952963414E-01  0.52634787734E-01  0.51100000000E-03 0.  1.
</event>
<event>
 8    1  0.1199892E+005  0.1043930E+01  0.7957747E-01            NaN
         13   -1    0    0    0    0  0.00000000000E+00  0.00000000000E+00  0.74505805969E-08  0.10566000000E+00  0.10566000000E+00 0.  1.
     999900   -1    0    0    0    0 -0.00000000000E+00 -0.00000000000E+00 -0.74505805969E-08  0.93827000000E+00  0.93827000000E+00 0.  1.
     999902    2    1    2    0    0 -0.23368714437E-01  0.11046918786E-01  0.55804426816E-02  0.10174862376E+01  0.10171425520E+01 0.  0.
     999903    2    3    3    0    0  0.98367999295E-01 -0.11046536010E-01 -0.74192876221E-01  0.12525771832E+00  0.19662753469E-01 0.  0.
         14    1    1    2    0    0  0.23368714437E-01 -0.11046918786E-01 -0.55804426816E-02  0.26443762395E-01  0.00000000000E+00 0.  1.
     999901    1    3    3    0    0 -0.12173671373E+00  0.22093454796E-01  0.79773318903E-01  0.89222851928E+00  0.88000000000E+00 0.  1.
        -11    1    4    4    0    0  0.28866651704E-01 -0.90358573276E-02 -0.14189073739E-01  0.33414386614E-01  0.51100000000E-03 0.  1.
         11    1    4    4    0    0  0.69501347591E-01 -0.20106786828E-02 -0.60003802482E-01  0.91843331707E-01  0.51100000000E-03 0. -1.
</event>
<event>
 8    1  0.1199892E+005  0.1043930E+01  0.7957747E-01            NaN
         13   -1    0    0    0    0  0.00000000000E+00  0.00000000000E+00  0.74505805969E-08  0.10566000000E+00  0.10566000000E+00 0. -1.
     999900   -1    0    0    0    0 -0.00000000000E+00 -0.00000000000E+00 -0.74505805969E-08  0.93827000000E+00  0.93827000000E+00 0. -1.
     999902    2    1    2    0    0 -0.22208598590E-01 -0.65819067148E-02  0.22233388795E-02  0.10206601357E+01  0.10203948383E+01 0.  0.
     999903    2    3    3    0    0  0.12183692071E+00  0.28238100137E-01  0.19225925070E-01  0.12810726198E+00  0.20005220028E-01 0.  0.
         14    1    1    2    0    0  0.22208598590E-01  0.65819067148E-02 -0.22233388795E-02  0.23269864269E-01  0.00000000000E+00 0.  1.
     999901    1    3    3    0    0 -0.14404551930E+00 -0.34820006852E-01 -0.17002586190E-01  0.89255287375E+00  0.88000000000E+00 0. -1.
        -11    1    4    4    0    0  0.65896684321E-01  0.19160053306E-01  0.19811287012E-01  0.71429887731E-01  0.51100000000E-03 0.  1.
         11    1    4    4    0    0  0.55940236392E-01  0.90780468311E-02 -0.58536194237E-03  0.56677374246E-01  0.51100000000E-03 0. -1.
</event>
<event>
 8    1  0.1199892E+005  0.1043930E+01  0.7957747E-01            NaN
         13   -1    0    0    0    0  0.00000000000E+00  0.00000000000E+00  0.74505805969E-08  0.10566000000E+00  0.10566000000E+00 0. -1.
     999900   -1    0    0    0    0 -0.00000000000E+00 -0.00000000000E+00 -0.74505805969E-08  0.93827000000E+00  0.93827000000E+00 0.  1.
     999902    2    1    2    0    0 -0.15701650092E-01  0.15348191868E-01 -0.96962396848E-02  0.10199273778E+01  0.10196449039E+01 0.  0.
     999903    2    3    3    0    0 -0.12886887202E+00  0.17646910971E-01  0.14573483316E-01  0.13234576256E+00  0.19606499190E-01 0.  0.
         14    1    1    2    0    0  0.15701650092E-01 -0.15348191868E-01  0.96962396848E-02  0.24002622217E-01  0.00000000000E+00 0.  1.
     999901    1    3    3    0    0  0.11316722192E+00 -0.22987191025E-02 -0.24269723001E-01  0.88758161522E+00  0.88000000000E+00 0.  1.
        -11    1    4    4    0    0 -0.10228976722E+00  0.81467154461E-02  0.16990105086E-01  0.10401197163E+00  0.51100000000E-03 0.  1.
         11    1    4    4    0    0 -0.26579104794E-01  0.95001955248E-02 -0.24166217700E-02  0.28333790929E-01  0.51100000000E-03 0. -1.
</event>
<event>
 8    1  0.1199892E+005  0.1043930E+01  0.7957747E-01            NaN
         13   -1    0    0    0    0  0.00000000000E+00  0.00000000000E+00  0.74505805969E-08  0.10566000000E+00  0.10566000000E+00 0. -1.
     999900   -1    0    0    0    0 -0.00000000000E+00 -0.00000000000E+00 -0.74505805969E-08  0.93827000000E+00  0.93827000000E+00 0. -1.
     999902    2    1    2    0    0  0.80436550311E-02 -0.21867264411E-01  0.19699772192E-02  0.10205471334E+01  0.10202792231E+01 0.  0.
     999903    2    3    3    0    0 -0.59956609654E-01 -0.11677104837E+00  0.14212030046E-02  0.13283599496E+00  0.20325081995E-01 0.  0.
         14    1    1    2    0    0 -0.80436550311E-02  0.21867264411E-01 -0.19699772192E-02  0.23382866577E-01  0.00000000000E+00 0.  1.
     999901    1    3    3    0    0  0.68000264685E-01  0.94903783963E-01  0.54877421465E-03  0.88771113847E+00  0.88000000000E+00 0. -1.
        -11    1    4    4    0    0 -0.14395770692E-01 -0.47018196631E-01  0.51001860128E-02  0.49439074087E-01  0.51100000000E-03 0.  1.
         11    1    4    4    0    0 -0.45560838962E-01 -0.69752851743E-01 -0.36789830082E-02  0.83396920868E-01  0.51100000000E-03 0. -1.
</event>
<event>
 8    1  0.1199892E+005  0.1043930E+01  0.7957747E-01            NaN
         13   -1    0    0    0    0  0.00000000000E+00  0.00000000000E+00  0.74505805969E-08  0.10566000000E+00  0.10566000000E+00 0.  1.
     999900   -1    0    0    0    0 -0.00000000000E+00 -0.00000000000E+00 -0.74505805969E-08  0.93827000000E+00  0.93827000000E+00 0.  1.
     999902    2    1    2    0    0  0.24309937671E-02 -0.18413144174E-01  0.14831795192E-01  0.10201616227E+01  0.10198846997E+01 0.  0.
     999903    2    3    3    0    0  0.78310308851E-02 -0.12811889995E+00  0.30411142874E-01  0.13319644342E+00  0.18457447291E-01 0.  0.
         14    1    1    2    0    0 -0.24309937671E-02  0.18413144174E-01 -0.14831795192E-01  0.23768377263E-01  0.00000000000E+00 0. -1.
     999901    1    3    3    0    0 -0.54000371180E-02  0.10970575577E+00 -0.15579347682E-01  0.88696517932E+00  0.88000000000E+00 0.  1.
        -11    1    4    4    0    0 -0.49023351623E-02 -0.66819367325E-01  0.17862705473E-01  0.69341171807E-01  0.51100000000E-03 0.  1.
         11    1    4    4    0    0  0.12733366047E-01 -0.61299532621E-01  0.12548437401E-01  0.63855271612E-01  0.51100000000E-03 0. -1.
</event>
<event>
 8    1  0.1199892E+005  0.1043930E+01  0.7957747E-01            NaN
         13   -1    0    0    0    0  0.00000000000E+00  0.00000000000E+00  0.74505805969E-08  0.10566000000E+00  0.10566000000E+00 0. -1.
     999900   -1    0    0    0    0 -0.00000000000E+00 -0.00000000000E+00 -0.74505805969E-08  0.93827000000E+00  0.93827000000E+00 0.  1.
     999902    2    1    2    0    0  0.80517459215E-02  0.10152443544E-01  0.18048534465E-02  0.10308471785E+01  0.10307641560E+01 0.  0.
     999903    2    3    3    0    0  0.10676611144E+00  0.11915949961E-01 -0.88692095245E-01  0.14071385499E+00  0.19826971816E-01 0.  0.
         14    1    1    2    0    0 -0.80517459215E-02 -0.10152443544E-01 -0.18048534465E-02  0.13082821495E-01  0.00000000000E+00 0.  1.
     999901    1    3    3    0    0 -0.98714365516E-01 -0.17635064167E-02  0.90496948692E-01  0.89013332352E+00  0.88000000000E+00 0. -1.
        -11    1    4    4    0    0  0.28535952829E-01  0.41432799376E-02 -0.35750334159E-01  0.45932721299E-01  0.51100000000E-03 0.  1.
         11    1    4    4    0    0  0.78230158609E-01  0.77726700236E-02 -0.52941761086E-01  0.94781133688E-01  0.51100000000E-03 0. -1.
</event>
<event>
 8    1  0.1199892E+005  0.1043930E+01  0.7957747E-01            NaN
         13   -1    0    0    0    0  0.00000000000E+00  0.00000000000E+00  0.74505805969E-08  0.10566000000E+00  0.10566000000E+00 0. -1.
     999900   -1    0    0    0    0 -0.00000000000E+00 -0.00000000000E+00 -0.74505805969E-08  0.93827000000E+00  0.93827000000E+00 0.  1.
     999902    2    1    2    0    0  0.13487157325E-01 -0.11239111234E-01 -0.16583208277E-01  0.10197799724E+01  0.10194939766E+01 0.  0.
     999903    2    3    3    0    0 -0.46399522661E-02 -0.38797282498E-01 -0.12494491415E+00  0.13251997436E+00  0.20580421401E-01 0.  0.
         14    1    1    2    0    0 -0.13487157325E-01  0.11239111234E-01  0.16583208277E-01  0.24150027553E-01  0.00000000000E+00 0. -1.
     999901    1    3    3    0    0  0.18127109591E-01  0.27558171263E-01  0.10836170588E+00  0.88725999809E+00  0.88000000000E+00 0. -1.
        -11    1    4    4    0    0 -0.10562753661E-01 -0.21484524824E-01 -0.50983417654E-01  0.56326961293E-01  0.51100000000E-03 0.  1.
         11    1    4    4    0    0  0.59228013951E-02 -0.17312757674E-01 -0.73961496500E-01  0.76193013066E-01  0.51100000000E-03 0. -1.
</event>
<event>
 8    1  0.1199892E+005  0.1043930E+01  0.7957747E-01            NaN
         13   -1    0    0    0    0  0.00000000000E+00  0.00000000000E+00  0.74505805969E-08  0.10566000000E+00  0.10566000000E+00 0. -1.
     999900   -1    0    0    0    0 -0.00000000000E+00 -0.00000000000E+00 -0.74505805969E-08  0.93827000000E+00  0.93827000000E+00 0. -1.
     999902    2    1    2    0    0 -0.13669870694E-01  0.58116395877E-02  0.16584063073E-01  0.10216663151E+01  0.10214237062E+01 0.  0.
     999903    2    3    3    0    0 -0.37933533788E-01 -0.44610410548E-01 -0.11450780392E+00  0.13019775920E+00  0.20257779368E-01 0.  0.
         14    1    1    2    0    0  0.13669870694E-01 -0.58116395877E-02 -0.16584063073E-01  0.22263684949E-01  0.00000000000E+00 0.  1.
     999901    1    3    3    0    0  0.24263663094E-01  0.50422050136E-01  0.13109186700E+00  0.89146855586E+00  0.88000000000E+00 0. -1.
        -11    1    4    4    0    0 -0.22536136161E-01 -0.31964053742E-01 -0.55369974986E-01  0.67791396325E-01  0.51100000000E-03 0. -1.
         11    1    4    4    0    0 -0.15397397627E-01 -0.12646356806E-01 -0.59137828939E-01  0.62406362871E-01  0.51100000000E-03 0.  1.
</event>
<event>
 8    1  0.1199892E+005  0.1043930E+01  0.7957747E-01            NaN
         13   -1    0    0    0    0  0.00000000000E+00  0.00000000000E+00  0.74505805969E-08  0.10566000000E+00  0.10566000000E+00 0. -1.
     999900   -1    0    0    0    0 -0.00000000000E+00 -0.00000000000E+00 -0.74505805969E-08  0.93827000000E+00  0.93827000000E+00 0. -1.
     999902    2    1    2    0    0 -0.13651368405E-01 -0.14826833540E-01 -0.21086644040E-01  0.10147608140E+01  0.10143414949E+01 0.  0.
     999903    2    3    3    0    0 -0.78577743789E-02 -0.78709129321E-01 -0.10007925820E+00  0.12889719783E+00  0.18486698735E-01 0.  0.
         14    1    1    2    0    0  0.13651368405E-01  0.14826833540E-01  0.21086644040E-01  0.29169185951E-01  0.00000000000E+00 0. -1.
     999901    1    3    3    0    0 -0.57935940264E-02  0.63882295781E-01  0.78992614161E-01  0.88586361622E+00  0.88000000000E+00 0. -1.
        -11    1    4    4    0    0 -0.67132694562E-02 -0.30992772642E-01 -0.27222299133E-01  0.41796347136E-01  0.51100000000E-03 0.  1.
         11    1    4    4    0    0 -0.11445049227E-02 -0.47716356679E-01 -0.72856959068E-01  0.87100850696E-01  0.51100000000E-03 0. -1.
</event>
<event>
 8    1  0.1199892E+005  0.1043930E+01  0.7957747E-01            NaN
         13   -1    0    0    0    0  0.00000000000E+00  0.00000000000E+00  0.74505805969E-08  0.10566000000E+00  0.10566000000E+00 0. -1.
     999900   -1    0    0    0    0 -0.00000000000E+00 -0.00000000000E+00 -0.74505805969E-08  0.93827000000E+00  0.93827000000E+00 0. -1.
     999902    2    1    2    0    0 -0.21120853955E-01  0.63355263034E-02  0.50016862234E-02  0.10213192452E+01  0.10210689274E+01 0.  0.
     999903    2    3    3    0    0  0.12324673456E+00  0.17015977342E-01 -0.27049086401E-01  0.12891612744E+00  0.20209249761E-01 0.  0.
         14    1    1    2    0    0  0.21120853955E-01 -0.63355263034E-02 -0.50016862234E-02  0.22610754751E-01  0.00000000000E+00 0. -1.
     999901    1    3    3    0    0 -0.14436758851E+00 -0.10680451038E-01  0.32050772624E-01  0.89240311781E+00  0.88000000000E+00 0. -1.
        -11    1    4    4    0    0  0.40286032597E-01 -0.12235921850E-02 -0.20057179043E-02  0.40357720768E-01  0.51100000000E-03 0.  1.
         11    1    4    4    0    0  0.82960701958E-01  0.18239569527E-01 -0.25043368496E-01  0.88558406674E-01  0.51100000000E-03 0. -1.
</event>
<event>
 8    1  0.1199892E+005  0.1043930E+01  0.7957747E-01            NaN
         13   -1    0    0    0    0  0.00000000000E+00  0.00000000000E+00  0.74505805969E-08  0.10566000000E+00  0.10566000000E+00 0. -1.
     999900   -1    0    0    0    0 -0.00000000000E+00 -0.00000000000E+00 -0.74505805969E-08  0.93827000000E+00  0.93827000000E+00 0. -1.
     999902    2    1    2    0    0  0.10473021916E-01  0.54167887593E-02  0.20228472113E-01  0.10205159685E+01  0.10202473352E+01 0.  0.
     999903    2    3    3    0    0  0.85816307290E-01  0.47916171173E-01 -0.83168757741E-01  0.13024983113E+00  0.19687005549E-01 0.  0.
         14    1    1    2    0    0 -0.10473021916E-01 -0.54167887593E-02 -0.20228472113E-01  0.23414031531E-01  0.00000000000E+00 0.  1.
     999901    1    3    3    0    0 -0.75343285374E-01 -0.42499382414E-01  0.10339722985E+00  0.89026613734E+00  0.88000000000E+00 0.  1.
        -11    1    4    4    0    0  0.53631752928E-01  0.39850700238E-01 -0.59724833346E-01  0.89620087429E-01  0.51100000000E-03 0. -1.
         11    1    4    4    0    0  0.32184554361E-01  0.80654709357E-02 -0.23443924396E-01  0.40629743697E-01  0.51100000000E-03 0.  1.
</event>
<event>
 8    1  0.1199892E+005  0.1043930E+01  0.7957747E-01            NaN
         13   -1    0    0    0    0  0.00000000000E+00  0.00000000000E+00  0.74505805969E-08  0.10566000000E+00  0.10566000000E+00 0.  1.
     999900   -1    0    0    0    0 -0.00000000000E+00 -0.00000000000E+00 -0.74505805969E-08  0.93827000000E+00  0.93827000000E+00 0.  1.
     999902    2    1    2    0    0  0.15997669942E-01 -0.72020651654E-02  0.14774200839E-01  0.10209937362E+01  0.10207360762E+01 0.  0.
     999903    2    3    3    0    0  0.78532856274E-02  0.83628657614E-01 -0.96147456090E-01  0.12935470321E+00  0.20805755459E-01 0.  0.
         14    1    1    2    0    0 -0.15997669942E-01  0.72020651654E-02 -0.14774200839E-01  0.22936263790E-01  0.00000000000E+00 0. -1.
     999901    1    3    3    0    0  0.81443843143E-02 -0.90830722779E-01  0.11092165693E+00  0.89163903300E+00  0.88000000000E+00 0. -1.
        -11    1    4    4    0    0  0.14756704100E-01  0.58719572326E-01 -0.64017556958E-01  0.88115022612E-01  0.51100000000E-03 0. -1.
         11    1    4    4    0    0 -0.69034184729E-02  0.24909085288E-01 -0.32129899131E-01  0.41239680596E-01  0.51100000000E-03 0.  1.
</event>
<event>
 8    1  0.1199892E+005  0.1043930E+01  0.7957747E-01            NaN
         13   -1    0    0    0    0  0.00000000000E+00  0.00000000000E+00  0.74505805969E-08  0.10566000000E+00  0.10566000000E+00 0.  1.
     999900   -1    0    0    0    0 -0.00000000000E+00 -0.00000000000E+00 -0.74505805969E-08  0.93827000000E+00  0.93827000000E+00 0. -1.
     999902    2    1    2    0    0  0.59948092198E-02 -0.14792947705E-01  0.17728205721E-01  0.10200750567E+01  0.10197960890E+01 0.  0.
     999903    2    3    3    0    0 -0.50212425531E-01 -0.79309040087E-01 -0.87365943924E-01  0.12970077607E+00  0.19449206592E-01 0.  0.
         14    1    1    2    0    0 -0.59948092198E-02  0.14792947705E-01 -0.17728205721E-01  0.23854943250E-01  0.00000000000E+00 0. -1.
     999901    1    3    3    0    0  0.56207234751E-01  0.64516092382E-01  0.10509414964E+00  0.89037428068E+00  0.88000000000E+00 0. -1.
        -11    1    4    4    0    0 -0.41912403212E-01 -0.52278502494E-01 -0.67706146706E-01  0.95257938193E-01  0.51100000000E-03 0.  1.
         11    1    4    4    0    0 -0.83000223192E-02 -0.27030537593E-01 -0.19659797218E-01  0.34442837873E-01  0.51100000000E-03 0. -1.
</event>
<event>
 8    1  0.1199892E+005  0.1043930E+01  0.7957747E-01            NaN
         13   -1    0    0    0    0  0.00000000000E+00  0.00000000000E+00  0.74505805969E-08  0.10566000000E+00  0.10566000000E+00 0. -1.
     999900   -1    0    0    0    0 -0.00000000000E+00 -0.00000000000E+00 -0.74505805969E-08  0.93827000000E+00  0.93827000000E+00 0.  1.
     999902    2    1    2    0    0 -0.15268921471E-01 -0.48852226193E-02 -0.19247873941E-01  0.10188803291E+01  0.10185723533E+01 0.  0.
     999903    2    3    3    0    0  0.41294706014E-01 -0.73908514965E-01  0.93168372669E-01  0.12725200327E+00  0.18574319439E-01 0.  0.
         14    1    1    2    0    0  0.15268921471E-01  0.48852226193E-02  0.19247873941E-01  0.25049670940E-01  0.00000000000E+00 0. -1.
     999901    1    3    3    0    0 -0.56563627485E-01  0.69023292346E-01 -0.11241624661E+00  0.89162832579E+00  0.88000000000E+00 0.  1.
        -11    1    4    4    0    0  0.99384808011E-02 -0.21944299828E-01  0.39310667958E-01  0.46107650470E-01  0.51100000000E-03 0.  1.
         11    1    4    4    0    0  0.31356225213E-01 -0.51964215137E-01  0.53857704711E-01  0.81144352805E-01  0.51100000000E-03 0. -1.
</event>
<event>
 8    1  0.1199892E+005  0.1043930E+01  0.7957747E-01            NaN
         13   -1    0    0    0    0  0.00000000000E+00  0.00000000000E+00  0.74505805969E-08  0.10566000000E+00  0.10566000000E+00 0. -1.
     999900   -1    0    0    0    0 -0.00000000000E+00 -0.00000000000E+00 -0.74505805969E-08  0.93827000000E+00  0.93827000000E+00 0. -1.
     999902    2    1    2    0    0 -0.21603645936E-01  0.17163457514E-02 -0.18245226680E-02  0.10221816152E+01  0.10219502249E+01 0.  0.
     999903    2    3    3    0    0  0.10198702539E-01  0.86975777536E-01  0.97045445210E-01  0.13198173275E+00  0.18236225848E-01 0.  0.
         14    1    1    2    0    0  0.21603645936E-01 -0.17163457514E-02  0.18245226680E-02  0.21748384846E-01  0.00000000000E+00 0. -1.
     999901    1    3    3    0    0 -0.31802348475E-01 -0.85259431784E-01 -0.98869967878E-01  0.89019988240E+00  0.88000000000E+00 0. -1.
        -11    1    4    4    0    0  0.15435339999E-01  0.61179105788E-01  0.69864473551E-01  0.94140525235E-01  0.51100000000E-03 0. -1.
         11    1    4    4    0    0 -0.52366374600E-02  0.25796671747E-01  0.27180971659E-01  0.37841207518E-01  0.51100000000E-03 0.  1.
</event>
<event>
 8    1  0.1199892E+005  0.1043930E+01  0.7957747E-01            NaN
         13   -1    0    0    0    0  0.00000000000E+00  0.00000000000E+00  0.74505805969E-08  0.10566000000E+00  0.10566000000E+00 0.  1.
     999900   -1    0    0    0    0 -0.00000000000E+00 -0.00000000000E+00 -0.74505805969E-08  0.93827000000E+00  0.93827000000E+00 0. -1.
     999902    2    1    2    0    0 -0.14358974500E-01  0.14416897938E-01  0.14200097691E-01  0.10191173043E+01  0.10188151991E+01 0.  0.
     999903    2    3    3    0    0  0.90251529884E-01 -0.88628774691E-02  0.90180800990E-01  0.12936544401E+00  0.19466689310E-01 0.  0.
         14    1    1    2    0    0  0.14358974500E-01 -0.14416897938E-01 -0.14200097691E-01  0.24812695728E-01  0.00000000000E+00 0. -1.
     999901    1    3    3    0    0 -0.10461050438E+00  0.23279775407E-01 -0.75980703299E-01  0.88975186026E+00  0.88000000000E+00 0. -1.
        -11    1    4    4    0    0  0.41715544601E-01 -0.44488843657E-02  0.28354061802E-01  0.50637863058E-01  0.51100000000E-03 0. -1.
         11    1    4    4    0    0  0.48535985283E-01 -0.44139931034E-02  0.61826739188E-01  0.78727580950E-01  0.51100000000E-03 0.  1.
</event>
<event>
 8    1  0.1199892E+005  0.1043930E+01  0.7957747E-01            NaN
         13   -1    0    0    0    0  0.00000000000E+00  0.00000000000E+00  0.74505805969E-08  0.10566000000E+00  0.10566000000E+00 0.  1.
     999900   -1    0    0    0    0 -0.00000000000E+00 -0.00000000000E+00 -0.74505805969E-08  0.93827000000E+00  0.93827000000E+00 0. -1.
     999902    2    1    2    0    0 -0.10241242949E-01 -0.19570980579E-01 -0.80643911425E-02  0.10204153079E+01  0.10201443329E+01 0.  0.
     999903    2    3    3    0    0  0.10594880164E+00  0.38900689650E-01 -0.60819815889E-01  0.12929118779E+00  0.16695778224E-01 0.  0.
         14    1    1    2    0    0  0.10241242949E-01  0.19570980579E-01  0.80643911425E-02  0.23514692056E-01  0.00000000000E+00 0. -1.
     999901    1    3    3    0    0 -0.11619004459E+00 -0.58471670229E-01  0.52755424746E-01  0.89112412015E+00  0.88000000000E+00 0.  1.
        -11    1    4    4    0    0  0.54686102698E-01  0.12731077069E-01 -0.35331809163E-01  0.66341902380E-01  0.51100000000E-03 0. -1.
         11    1    4    4    0    0  0.51262698945E-01  0.26169612581E-01 -0.25488006725E-01  0.62949285410E-01  0.51100000000E-03 0.  1.
</event>
<event>
 8    1  0.1199892E+005  0.1043930E+01  0.7957747E-01            NaN
         13   -1    0    0    0    0  0.00000000000E+00  0.00000000000E+00  0.74505805969E-08  0.10566000000E+00  0.10566000000E+00 0.  1.
     999900   -1    0    0    0    0 -0.00000000000E+00 -0.00000000000E+00 -0.74505805969E-08  0.93827000000E+00  0.93827000000E+00 0.  1.
     999902    2    1    2    0    0  0.36463605363E-02 -0.16010715155E-01 -0.16630827587E-01  0.10205585779E+01  0.10202909328E+01 0.  0.
     999903    2    3    3    0    0 -0.68082501113E-01  0.52734177521E-01 -0.97126167742E-01  0.13131710920E+00  0.19863792985E-01 0.  0.
         14    1    1    2    0    0 -0.36463605363E-02  0.16010715155E-01  0.16630827587E-01  0.23371422104E-01  0.00000000000E+00 0.  1.
     999901    1    3    3    0    0  0.71728861650E-01 -0.68744892675E-01  0.80495340155E-01  0.88924146870E+00  0.88000000000E+00 0. -1.
        -11    1    4    4    0    0 -0.40988268679E-02  0.71703446663E-02 -0.18054673922E-01  0.19860679640E-01  0.51100000000E-03 0. -1.
         11    1    4    4    0    0 -0.63983674246E-01  0.45563832854E-01 -0.79071493820E-01  0.11145642956E+00  0.51100000000E-03 0.  1.
</event>
<event>
 8    1  0.1199892E+005  0.1043930E+01  0.7957747E-01            NaN
         13   -1    0    0    0    0  0.00000000000E+00  0.00000000000E+00  0.74505805969E-08  0.10566000000E+00  0.10566000000E+00 0. -1.
     999900   -1    0    0    0    0 -0.00000000000E+00 -0.00000000000E+00 -0.74505805969E-08  0.93827000000E+00  0.93827000000E+00 0. -1.
     999902    2    1    2    0    0  0.21774180294E-01  0.30422428830E-03  0.81764408212E-02  0.10206692678E+01  0.10204041809E+01 0.  0.
     999903    2    3    3    0    0  0.10618607804E+00 -0.56129201518E-01 -0.53233900281E-01  0.13270455561E+00  0.18726465411E-01 0.  0.
         14    1    1    2    0    0 -0.21774180294E-01 -0.30422428830E-03 -0.81764408212E-02  0.23260732242E-01  0.00000000000E+00 0.  1.
     999901    1    3    3    0    0 -0.84411897749E-01  0.56433425806E-01  0.61410341103E-01  0.88796471215E+00  0.88000000000E+00 0.  1.
        -11    1    4    4    0    0  0.54661764271E-01 -0.30286143834E-01 -0.37775676323E-01  0.73023433391E-01  0.51100000000E-03 0.  1.
         11    1    4    4    0    0  0.51524313772E-01 -0.25843057684E-01 -0.15458223958E-01  0.59681122217E-01  0.51100000000E-03 0. -1.
</event>
<event>
 8    1  0.1199892E+005  0.1043930E+01  0.7957747E-01            NaN
         13   -1    0    0    0    0  0.00000000000E+00  0.00000000000E+00  0.74505805969E-08  0.10566000000E+00  0.10566000000E+00 0.  1.
     999900   -1    0    0    0    0 -0.00000000000E+00 -0.00000000000E+00 -0.74505805969E-08  0.93827000000E+00  0.93827000000E+00 0. -1.
     999902    2    1    2    0    0 -0.14082246433E-01 -0.69101115705E-02 -0.17974996860E-01  0.10200729294E+01  0.10197939113E+01 0.  0.
     999903    2    3    3    0    0  0.12043229221E+00 -0.41982909017E-01 -0.10011204846E-02  0.12899920925E+00  0.19320768322E-01 0.  0.
         14    1    1    2    0    0  0.14082246433E-01  0.69101115705E-02  0.17974996860E-01  0.23857070622E-01  0.00000000000E+00 0. -1.
     999901    1    3    3    0    0 -0.13451453864E+00  0.35072797447E-01 -0.16973876375E-01  0.89107372013E+00  0.88000000000E+00 0.  1.
        -11    1    4    4    0    0  0.87897126763E-01 -0.27527361222E-01 -0.88703800273E-02  0.92534346444E-01  0.51100000000E-03 0. -1.
         11    1    4    4    0    0  0.32535165445E-01 -0.14455547796E-01  0.78692595427E-02  0.36464862805E-01  0.51100000000E-03 0.  1.
</event>
<event>
 8    1  0.1199892E+005  0.1043930E+01  0.7957747E-01            NaN
         13   -1    0    0    0    0  0.00000000000E+00  0.00000000000E+00  0.74505805969E-08  0.10566000000E+00  0.10566000000E+00 0.  1.
     999900   -1    0    0    0    0 -0.00000000000E+00 -0.00000000000E+00 -0.74505805969E-08  0.93827000000E+00  0.93827000000E+00 0.  1.
     999902    2    1    2    0    0 -0.17742566983E-01 -0.14883413095E-01  0.33221747672E-02  0.10205344553E+01  0.10202662510E+01 0.  0.
     999903    2    3    3    0    0  0.11271117585E+00  0.30755250839E-01 -0.49409048764E-01  0.12818830684E+00  0.18474125031E-01 0.  0.
         14    1    1    2    0    0  0.17742566983E-01  0.14883413095E-01 -0.33221747672E-02  0.23395544740E-01  0.00000000000E+00 0. -1.
     999901    1    3    3    0    0 -0.13045374283E+00 -0.45638663934E-01  0.52731223531E-01  0.89234614842E+00  0.88000000000E+00 0.  1.
        -11    1    4    4    0    0  0.62464279074E-01  0.24917601385E-01 -0.33660711746E-01  0.75206234152E-01  0.51100000000E-03 0.  1.
         11    1    4    4    0    0  0.50246896774E-01  0.58376494540E-02 -0.15748337017E-01  0.52982072688E-01  0.51100000000E-03 0. -1.
</event>
<event>
 8    1  0.1199892E+005  0.1043930E+01  0.7957747E-01            NaN
         13   -1    0    0    0    0  0.00000000000E+00  0.00000000000E+00  0.74505805969E-08  0.10566000000E+00  0.10566000000E+00 0.  1.
     999900   -1    0    0    0    0 -0.00000000000E+00 -0.00000000000E+00 -0.74505805969E-08  0.93827000000E+00  0.93827000000E+00 0.  1.
     999902    2    1    2    0    0 -0.17417854882E-01  0.34934711319E-02  0.14984744525E-01  0.10206893335E+01  0.10204247091E+01 0.  0.
     999903    2    3    3    0    0 -0.22814913743E-01 -0.95235744019E-01  0.86991413568E-01  0.13222912252E+00  0.18073947553E-01 0.  0.
         14    1    1    2    0    0  0.17417854882E-01 -0.34934711319E-02 -0.14984744525E-01  0.23240666465E-01  0.00000000000E+00 0. -1.
     999901    1    3    3    0    0  0.53970588609E-02  0.98729215151E-01 -0.72006669042E-01  0.88846021101E+00  0.88000000000E+00 0. -1.
        -11    1    4    4    0    0 -0.57142510320E-02 -0.54697002842E-01  0.55390165657E-01  0.78056046256E-01  0.51100000000E-03 0.  1.
         11    1    4    4    0    0 -0.17100662711E-01 -0.40538741177E-01  0.31601247911E-01  0.54173076264E-01  0.51100000000E-03 0. -1.
</event>
<event>
 8    1  0.1199892E+005  0.1043930E+01  0.7957747E-01            NaN
         13   -1    0    0    0    0  0.00000000000E+00  0.00000000000E+00  0.74505805969E-08  0.10566000000E+00  0.10566000000E+00 0. -1.
     999900   -1    0    0    0    0 -0.00000000000E+00 -0.00000000000E+00 -0.74505805969E-08  0.93827000000E+00  0.93827000000E+00 0. -1.
     999902    2    1    2    0    0  0.19753782173E-01  0.76964640056E-02 -0.10679444662E-01  0.10201918870E+01  0.10199156771E+01 0.  0.
     999903    2    3    3    0    0 -0.12256591980E+00  0.23760717372E-01 -0.23358604432E-01  0.12852282349E+00  0.19634545378E-01 0.  0.
         14    1    1    2    0    0 -0.19753782173E-01 -0.76964640056E-02  0.10679444662E-01  0.23738112954E-01  0.00000000000E+00 0.  1.
     999901    1    3    3    0    0  0.14231970197E+00 -0.16064253366E-01  0.12679159770E-01  0.89166906355E+00  0.88000000000E+00 0.  1.
        -11    1    4    4    0    0 -0.90556032181E-02  0.61581464695E-02 -0.55316228287E-02  0.12279523187E-01  0.51100000000E-03 0.  1.
         11    1    4    4    0    0 -0.11351031658E+00  0.17602570902E-01 -0.17826981604E-01  0.11624330031E+00  0.51100000000E-03 0. -1.
</event>
<event>
 8    1  0.1199892E+005  0.1043930E+01  0.7957747E-01            NaN
         13   -1    0    0    0    0  0.00000000000E+00  0.00000000000E+00  0.74505805969E-08  0.10566000000E+00  0.10566000000E+00 0. -1.
     999900   -1    0    0    0    0 -0.00000000000E+00 -0.00000000000E+00 -0.74505805969E-08  0.93827000000E+00  0.93827000000E+00 0. -1.
     999902    2    1    2    0    0 -0.12557609914E-01 -0.20992883174E-01 -0.44141352315E-04  0.10194678525E+01  0.10191743255E+01 0.  0.
     999903    2    3    3    0    0 -0.98116369925E-01 -0.44218455815E-01 -0.73625652892E-01  0.13195787090E+00  0.20249667827E-01 0.  0.
         14    1    1    2    0    0  0.12557609914E-01  0.20992883174E-01  0.44141352315E-04  0.24462147476E-01  0.00000000000E+00 0. -1.
     999901    1    3    3    0    0  0.85558760011E-01  0.23225572641E-01  0.73581511539E-01  0.88750998162E+00  0.88000000000E+00 0.  1.
        -11    1    4    4    0    0 -0.15502233976E-01 -0.64949991397E-04 -0.14163910137E-01  0.21004783934E-01  0.51100000000E-03 0.  1.
         11    1    4    4    0    0 -0.82614135949E-01 -0.44153505824E-01 -0.59461742755E-01  0.11095308697E+00  0.51100000000E-03 0. -1.
</event>
<event>
 8    1  0.1199892E+005  0.1043930E+01  0.7957747E-01            NaN
         13   -1    0    0    0    0  0.00000000000E+00  0.00000000000E+00  0.74505805969E-08  0.10566000000E+00  0.10566000000E+00 0. -1.
     999900   -1    0    0    0    0 -0.00000000000E+00 -0.00000000000E+00 -0.74505805969E-08  0.93827000000E+00  0.93827000000E+00 0.  1.
     999902    2    1    2    0    0  0.12347095143E-01  0.19198736930E-01  0.17466003377E-02  0.10210369253E+01  0.10207802456E+01 0.  0.
     999903    2    3    3    0    0  0.44035429018E-01  0.82630839775E-01 -0.92533424743E-01  0.13316502836E+00  0.20087692595E-01 0.  0.
         14    1    1    2    0    0 -0.12347095143E-01 -0.19198736930E-01 -0.17466003377E-02  0.22893074737E-01  0.00000000000E+00 0.  1.
     999901    1    3    3    0    0 -0.31688333875E-01 -0.63432102845E-01  0.94280025080E-01  0.88787189690E+00  0.88000000000E+00 0.  1.
        -11    1    4    4    0    0  0.15132750265E-01  0.13194348568E-01 -0.14398422599E-01  0.24711670503E-01  0.51100000000E-03 0.  1.
         11    1    4    4    0    0  0.28902678753E-01  0.69436491207E-01 -0.78135002144E-01  0.10845335786E+00  0.51100000000E-03 0. -1.
</event>
<event>
 8    1  0.1199892E+005  0.1043930E+01  0.7957747E-01            NaN
         13   -1    0    0    0    0  0.00000000000E+00  0.00000000000E+00  0.74505805969E-08  0.10566000000E+00  0.10566000000E+00 0.  1.
     999900   -1    0    0    0    0 -0.00000000000E+00 -0.00000000000E+00 -0.74505805969E-08  0.93827000000E+00  0.93827000000E+00 0.  1.
     999902    2    1    2    0    0 -0.49034577313E-02  0.86376883182E-03  0.23082810115E-01  0.10203163150E+01  0.10200430269E+01 0.  0.
     999903    2    3    3    0    0 -0.66032814963E-01 -0.56233079427E-01 -0.92934921768E-01  0.12876880509E+00  0.20542969758E-01 0.  0.
         14    1    1    2    0    0  0.49034577313E-02 -0.86376883182E-03 -0.23082810115E-01  0.23613684955E-01  0.00000000000E+00 0. -1.
     999901    1    3    3    0    0  0.61129357232E-01  0.57096848259E-01  0.11601773188E+00  0.89154750996E+00  0.88000000000E+00 0. -1.
        -11    1    4    4    0    0 -0.56736335338E-01 -0.37180484570E-01 -0.68279203384E-01  0.96248173573E-01  0.51100000000E-03 0. -1.
         11    1    4    4    0    0 -0.92964796247E-02 -0.19052594857E-01 -0.24655718384E-01  0.32520631517E-01  0.51100000000E-03 0.  1.
</event>
<event>
 8    1  0.1199892E+005  0.1043930E+01  0.7957747E-01            NaN
         13   -1    0    0    0    0  0.00000000000E+00  0.00000000000E+00  0.74505805969E-08  0.10566000000E+00  0.10566000000E+00 0. -1.
     999900   -1    0    0    0    0 -0.00000000000E+00 -0.00000000000E+00 -0.74505805969E-08  0.93827000000E+00  0.93827000000E+00 0. -1.
     999902    2    1    2    0    0 -0.24435304791E-02  0.10610982867E-01 -0.20889376237E-01  0.10203730512E+01  0.10201010899E+01 0.  0.
     999903    2    3    3    0    0  0.86914367503E-01  0.73485319177E-01 -0.65005103190E-01  0.13251933942E+00  0.19532344138E-01 0.  0.
         14    1    1    2    0    0  0.24435304791E-02 -0.10610982867E-01  0.20889376237E-01  0.23556948830E-01  0.00000000000E+00 0. -1.
     999901    1    3    3    0    0 -0.89357897982E-01 -0.62874336309E-01  0.44115726953E-01  0.88785371175E+00  0.88000000000E+00 0.  1.
        -11    1    4    4    0    0  0.55222050189E-01  0.58237798839E-01 -0.43409637879E-01  0.91245678377E-01  0.51100000000E-03 0. -1.
         11    1    4    4    0    0  0.31692317314E-01  0.15247520338E-01 -0.21595465311E-01  0.41273661047E-01  0.51100000000E-03 0.  1.
</event>
<event>
 8    1  0.1199892E+005  0.1043930E+01  0.7957747E-01            NaN
         13   -1    0    0    0    0  0.00000000000E+00  0.00000000000E+00  0.74505805969E-08  0.10566000000E+00  0.10566000000E+00 0.  1.
     999900   -1    0    0    0    0 -0.00000000000E+00 -0.00000000000E+00 -0.74505805969E-08  0.93827000000E+00  0.93827000000E+00 0.  1.
     999902    2    1    2    0    0 -0.82712559291E-02  0.16351619055E-01  0.16754823289E-01  0.10191003157E+01  0.10187977916E+01 0.  0.
     999903    2    3    3    0    0 -0.21447910375E-01 -0.71285352400E-01 -0.10077382553E+00  0.12687453355E+00  0.20004225184E-01 0.  0.
         14    1    1    2    0    0  0.82712559291E-02 -0.16351619055E-01 -0.16754823289E-01  0.24829684328E-01  0.00000000000E+00 0. -1.
     999901    1    3    3    0    0  0.13176654446E-01  0.87636971455E-01  0.11752864882E+00  0.89222578212E+00  0.88000000000E+00 0. -1.
        -11    1    4    4    0    0 -0.62544611727E-02 -0.52270667511E-01 -0.65977151102E-01  0.84407266009E-01  0.51100000000E-03 0. -1.
         11    1    4    4    0    0 -0.15193449203E-01 -0.19014684889E-01 -0.34796674429E-01  0.42467267541E-01  0.51100000000E-03 0.  1.
</event>
<event>
 8    1  0.1426949E+005  0.1043930E+01  0.7957747E-01            NaN
         13   -1    0    0    0    0  0.00000000000E+00  0.00000000000E+00  0.74505805969E-08  0.10566000000E+00  0.10566000000E+00 0.  1.
     999900   -1    0    0    0    0 -0.00000000000E+00 -0.00000000000E+00 -0.74505805969E-08  0.93827000000E+00  0.93827000000E+00 0. -1.
     999902    2    1    2    0    0  0.30486729270E-01  0.23705593254E-02  0.19191460843E-01  0.10078277510E+01  0.10071809189E+01 0.  0.
     999903    2    3    3    0    0  0.66060178430E-01 -0.91336392517E-01  0.39163704930E-01  0.12191276996E+00  0.24952833972E-01 0.  0.
         14    1    1    2    0    0 -0.30486729270E-01 -0.23705593254E-02 -0.19191460843E-01  0.36102248994E-01  0.00000000000E+00 0.  1.
     999901    1    3    3    0    0 -0.35573449160E-01  0.93706951842E-01 -0.19972244086E-01  0.88591498105E+00  0.88000000000E+00 0.  1.
        -11    1    4    4    0    0  0.18796752508E-01 -0.46743166438E-01  0.14780780401E-01  0.52506895773E-01  0.51100000000E-03 0. -1.
         11    1    4    4    0    0  0.47263425922E-01 -0.44593226079E-01  0.24382924529E-01  0.69405874187E-01  0.51100000000E-03 0.  1.
</event>
<event>
 8    1  0.1199892E+005  0.1043930E+01  0.7957747E-01            NaN
         13   -1    0    0    0    0  0.00000000000E+00  0.00000000000E+00  0.74505805969E-08  0.10566000000E+00  0.10566000000E+00 0.  1.
     999900   -1    0    0    0    0 -0.00000000000E+00 -0.00000000000E+00 -0.74505805969E-08  0.93827000000E+00  0.93827000000E+00 0.  1.
     999902    2    1    2    0    0  0.14753568808E-01 -0.21930566637E-02 -0.17639444250E-01  0.10208296259E+01  0.10205682230E+01 0.  0.
     999903    2    3    3    0    0  0.51298076485E-01  0.83545951655E-01 -0.87714571821E-01  0.13313756100E+00  0.20502325460E-01 0.  0.
         14    1    1    2    0    0 -0.14753568808E-01  0.21930566637E-02  0.17639444250E-01  0.23100374100E-01  0.00000000000E+00 0.  1.
     999901    1    3    3    0    0 -0.36544507677E-01 -0.85739008319E-01  0.70075127571E-01  0.88769206490E+00  0.88000000000E+00 0. -1.
        -11    1    4    4    0    0  0.35022837831E-01  0.47023768245E-01 -0.63307019344E-01  0.86289476583E-01  0.51100000000E-03 0.  1.
         11    1    4    4    0    0  0.16275238653E-01  0.36522183410E-01 -0.24407552477E-01  0.46848084413E-01  0.51100000000E-03 0. -1.
</event>
<event>
 8    1  0.1199892E+005  0.1043930E+01  0.7957747E-01            NaN
         13   -1    0    0    0    0  0.00000000000E+00  0.00000000000E+00  0.74505805969E-08  0.10566000000E+00  0.10566000000E+00 0.  1.
     999900   -1    0    0    0    0 -0.00000000000E+00 -0.00000000000E+00 -0.74505805969E-08  0.93827000000E+00  0.93827000000E+00 0.  1.
     999902    2    1    2    0    0  0.12369889572E-01  0.62539513721E-02  0.19021981152E-01  0.10203936060E+01  0.10201221247E+01 0.  0.
     999903    2    3    3    0    0  0.10633250655E+00 -0.74664771948E-01 -0.33479268693E-02  0.13141822616E+00  0.19445087627E-01 0.  0.
         14    1    1    2    0    0 -0.12369889572E-01 -0.62539513721E-02 -0.19021981152E-01  0.23536394005E-01  0.00000000000E+00 0. -1.
     999901    1    3    3    0    0 -0.93962616978E-01  0.80918723320E-01  0.22369908022E-01  0.88897537984E+00  0.88000000000E+00 0. -1.
        -11    1    4    4    0    0  0.33146391058E-01 -0.19520122720E-01 -0.93304493367E-02  0.39585816108E-01  0.51100000000E-03 0.  1.
         11    1    4    4    0    0  0.73186115492E-01 -0.55144649228E-01  0.59825224674E-02  0.91832410049E-01  0.51100000000E-03 0. -1.
</event>
<event>
 8    1  0.1199892E+005  0.1043930E+01  0.7957747E-01            NaN
         13   -1    0    0    0    0  0.00000000000E+00  0.00000000000E+00  0.74505805969E-08  0.10566000000E+00  0.10566000000E+00 0. -1.
     999900   -1    0    0    0    0 -0.00000000000E+00 -0.00000000000E+00 -0.74505805969E-08  0.93827000000E+00  0.93827000000E+00 0.  1.
     999902    2    1    2    0    0 -0.17519941055E-01 -0.13418778477E-01 -0.64494112609E-02  0.10209385482E+01  0.10206796326E+01 0.  0.
     999903    2    3    3    0    0 -0.57379139777E-01  0.23246814289E-02 -0.11834612574E+00  0.13281834971E+00  0.18361337550E-01 0.  0.
         14    1    1    2    0    0  0.17519941055E-01  0.13418778477E-01  0.64494112609E-02  0.22991451802E-01  0.00000000000E+00 0.  1.
     999901    1    3    3    0    0  0.39859198722E-01 -0.15743459905E-01  0.11189671448E+00  0.88812019849E+00  0.88000000000E+00 0. -1.
        -11    1    4    4    0    0 -0.16995565798E-01  0.78350851138E-02 -0.27748391231E-01  0.33473454444E-01  0.51100000000E-03 0.  1.
         11    1    4    4    0    0 -0.40383573978E-01 -0.55104036849E-02 -0.90597734509E-01  0.99344895265E-01  0.51100000000E-03 0. -1.
</event>
<event>
 8    1  0.1199892E+005  0.1043930E+01  0.7957747E-01            NaN
         13   -1    0    0    0    0  0.00000000000E+00  0.00000000000E+00  0.74505805969E-08  0.10566000000E+00  0.10566000000E+00 0.  1.
     999900   -1    0    0    0    0 -0.00000000000E+00 -0.00000000000E+00 -0.74505805969E-08  0.93827000000E+00  0.93827000000E+00 0. -1.
     999902    2    1    2    0    0 -0.15614238061E-01  0.17020558096E-01  0.74285913216E-03  0.10208203555E+01  0.10205587404E+01 0.  0.
     999903    2    3    3    0    0 -0.86720673392E-03 -0.51310999731E-02 -0.12924793720E+00  0.13087329079E+00  0.19892429153E-01 0.  0.
         14    1    1    2    0    0  0.15614238061E-01 -0.17020558096E-01 -0.74285913216E-03  0.23109644477E-01  0.00000000000E+00 0. -1.
     999901    1    3    3    0    0 -0.14747031328E-01  0.22151658069E-01  0.12999079634E+00  0.88994706473E+00  0.88000000000E+00 0.  1.
        -11    1    4    4    0    0 -0.93628527285E-03 -0.12751555061E-01 -0.87788124012E-01  0.88715808203E-01  0.51100000000E-03 0.  1.
         11    1    4    4    0    0  0.69078538927E-04  0.76204550875E-02 -0.41459813191E-01  0.42157482591E-01  0.51100000000E-03 0. -1.
</event>
<event>
 8    1  0.1199892E+005  0.1043930E+01  0.7957747E-01            NaN
         13   -1    0    0    0    0  0.00000000000E+00  0.00000000000E+00  0.74505805969E-08  0.10566000000E+00  0.10566000000E+00 0. -1.
     999900   -1    0    0    0    0 -0.00000000000E+00 -0.00000000000E+00 -0.74505805969E-08  0.93827000000E+00  0.93827000000E+00 0.  1.
     999902    2    1    2    0    0 -0.21155826795E-01  0.91694740183E-02 -0.33796740460E-02  0.10206261278E+01  0.10203600455E+01 0.  0.
     999903    2    3    3    0    0  0.26184030077E-01 -0.87106058714E-01  0.89542414680E-01  0.12925384039E+00  0.20387308152E-01 0.  0.
         14    1    1    2    0    0  0.21155826795E-01 -0.91694740183E-02  0.33796740460E-02  0.23303872163E-01  0.00000000000E+00 0.  1.
     999901    1    3    3    0    0 -0.47339856872E-01  0.96275532732E-01 -0.92922088726E-01  0.89137228744E+00  0.88000000000E+00 0. -1.
        -11    1    4    4    0    0  0.10032090833E-01 -0.60515400601E-01  0.51413447145E-01  0.80039741534E-01  0.51100000000E-03 0.  1.
         11    1    4    4    0    0  0.16151939244E-01 -0.26590658113E-01  0.38128967534E-01  0.49214098858E-01  0.51100000000E-03 0. -1.
</event>
<event>
 8    1  0.1199892E+005  0.1043930E+01  0.7957747E-01            NaN
         13   -1    0    0    0    0  0.00000000000E+00  0.00000000000E+00  0.74505805969E-08  0.10566000000E+00  0.10566000000E+00 0. -1.
     999900   -1    0    0    0    0 -0.00000000000E+00 -0.00000000000E+00 -0.74505805969E-08  0.93827000000E+00  0.93827000000E+00 0. -1.
     999902    2    1    2    0    0 -0.11531670196E-01  0.10569122621E-01  0.16069657579E-01  0.10215041296E+01  0.10212579336E+01 0.  0.
     999903    2    3    3    0    0  0.29342983375E-01  0.69578748939E-01  0.10799650928E+00  0.13380856273E+00  0.23222240744E-01 0.  0.
         14    1    1    2    0    0  0.11531670196E-01 -0.10569122621E-01 -0.16069657579E-01  0.22425870445E-01  0.00000000000E+00 0.  1.
     999901    1    3    3    0    0 -0.40874653571E-01 -0.59009626318E-01 -0.91926851700E-01  0.88769556683E+00  0.88000000000E+00 0. -1.
        -11    1    4    4    0    0 -0.38901284947E-02  0.54230243212E-02  0.78212774286E-02  0.10294454532E-01  0.51100000000E-03 0. -1.
         11    1    4    4    0    0  0.33233111870E-01  0.64155724618E-01  0.10017523185E+00  0.12351410820E+00  0.51100000000E-03 0.  1.
</event>
<event>
 8    1  0.1199892E+005  0.1043930E+01  0.7957747E-01            NaN
         13   -1    0    0    0    0  0.00000000000E+00  0.00000000000E+00  0.74505805969E-08  0.10566000000E+00  0.10566000000E+00 0. -1.
     999900   -1    0    0    0    0 -0.00000000000E+00 -0.00000000000E+00 -0.74505805969E-08  0.93827000000E+00  0.93827000000E+00 0. -1.
     999902    2    1    2    0    0 -0.17744637127E-01 -0.20966819382E-02 -0.14883908697E-01  0.10206749154E+01  0.10204099588E+01 0.  0.
     999903    2    3    3    0    0 -0.11213758306E+00 -0.63881198811E-01 -0.26415440122E-01  0.13339799640E+00  0.21014396758E-01 0.  0.
         14    1    1    2    0    0  0.17744637127E-01  0.20966819382E-02  0.14883908697E-01  0.23255084606E-01  0.00000000000E+00 0. -1.
     999901    1    3    3    0    0  0.94392945929E-01  0.61784516873E-01  0.11531531425E-01  0.88727691900E+00  0.88000000000E+00 0.  1.
        -11    1    4    4    0    0 -0.30384574433E-01 -0.23507999766E-01 -0.16023328622E-01  0.41627594185E-01  0.51100000000E-03 0.  1.
         11    1    4    4    0    0 -0.81753008623E-01 -0.40373199045E-01 -0.10392111500E-01  0.91770402213E-01  0.51100000000E-03 0. -1.
</event>
<event>
 8    1  0.1199892E+005  0.1043930E+01  0.7957747E-01            NaN
         13   -1    0    0    0    0  0.00000000000E+00  0.00000000000E+00  0.74505805969E-08  0.10566000000E+00  0.10566000000E+00 0.  1.
     999900   -1    0    0    0    0 -0.00000000000E+00 -0.00000000000E+00 -0.74505805969E-08  0.93827000000E+00  0.93827000000E+00 0. -1.
     999902    2    1    2    0    0  0.18489577166E-01  0.78337305692E-02  0.73752421154E-02  0.10225378053E+01  0.10223140111E+01 0.  0.
     999903    2    3    3    0    0 -0.12018579405E+00  0.22500176781E-01  0.42324479462E-01  0.13087227808E+00  0.19629278163E-01 0.  0.
         14    1    1    2    0    0 -0.18489577166E-01 -0.78337305692E-02 -0.73752421154E-02  0.21392194714E-01  0.00000000000E+00 0. -1.
     999901    1    3    3    0    0  0.13867537121E+00 -0.14666446212E-01 -0.34949237347E-01  0.89166552721E+00  0.88000000000E+00 0.  1.
        -11    1    4    4    0    0 -0.37566026271E-01  0.57707109270E-02  0.22864896830E-01  0.44357322535E-01  0.51100000000E-03 0. -1.
         11    1    4    4    0    0 -0.82619767776E-01  0.16729465854E-01  0.19459582632E-01  0.86514955541E-01  0.51100000000E-03 0.  1.
</event>
<event>
 8    1  0.1199892E+005  0.1043930E+01  0.7957747E-01            NaN
         13   -1    0    0    0    0  0.00000000000E+00  0.00000000000E+00  0.74505805969E-08  0.10566000000E+00  0.10566000000E+00 0. -1.
     999900   -1    0    0    0    0 -0.00000000000E+00 -0.00000000000E+00 -0.74505805969E-08  0.93827000000E+00  0.93827000000E+00 0.  1.
     999902    2    1    2    0    0 -0.24259171058E-01  0.74120091633E-02 -0.10183712188E-01  0.10165958958E+01  0.10162283513E+01 0.  0.
     999903    2    3    3    0    0  0.10826233262E+00 -0.55896716855E-01 -0.14834831956E-01  0.12441229547E+00  0.20326618162E-01 0.  0.
         14    1    1    2    0    0  0.24259171058E-01 -0.74120091633E-02  0.10183712188E-01  0.27334104232E-01  0.00000000000E+00 0.  1.
     999901    1    3    3    0    0 -0.13252150368E+00  0.63308726019E-01  0.46511197688E-02  0.89218360030E+00  0.88000000000E+00 0.  1.
        -11    1    4    4    0    0  0.72635591360E-01 -0.39121756625E-01 -0.50456960216E-03  0.82504282829E-01  0.51100000000E-03 0.  1.
         11    1    4    4    0    0  0.35626741257E-01 -0.16774960231E-01 -0.14330262354E-01  0.41908012641E-01  0.51100000000E-03 0. -1.
</event>
<event>
 8    1  0.1199892E+005  0.1043930E+01  0.7957747E-01            NaN
         13   -1    0    0    0    0  0.00000000000E+00  0.00000000000E+00  0.74505805969E-08  0.10566000000E+00  0.10566000000E+00 0.  1.
     999900   -1    0    0    0    0 -0.00000000000E+00 -0.00000000000E+00 -0.74505805969E-08  0.93827000000E+00  0.93827000000E+00 0.  1.
     999902    2    1    2    0    0  0.24777881453E-03  0.80303525906E-03  0.21243891821E-01  0.10226694920E+01  0.10224484734E+01 0.  0.
     999903    2    3    3    0    0  0.71895460846E-01 -0.10922959830E+00 -0.20458710267E-02  0.13262287310E+00  0.22013142618E-01 0.  0.
         14    1    1    2    0    0 -0.24777881453E-03 -0.80303525906E-03 -0.21243891821E-01  0.21260507983E-01  0.00000000000E+00 0. -1.
     999901    1    3    3    0    0 -0.71647682031E-01  0.11003263355E+00  0.23289762848E-01  0.89004661891E+00  0.88000000000E+00 0.  1.
        -11    1    4    4    0    0  0.68757380692E-02 -0.23826967206E-01 -0.47297749864E-02  0.25251376846E-01  0.51100000000E-03 0.  1.
         11    1    4    4    0    0  0.65019722777E-01 -0.85402631089E-01  0.26839039597E-02  0.10737149626E+00  0.51100000000E-03 0. -1.
</event>
<event>
 8    1  0.1199892E+005  0.1043930E+01  0.7957747E-01            NaN
         13   -1    0    0    0    0  0.00000000000E+00  0.00000000000E+00  0.74505805969E-08  0.10566000000E+00  0.10566000000E+00 0. -1.
     999900   -1    0    0    0    0 -0.00000000000E+00 -0.00000000000E+00 -0.74505805969E-08  0.93827000000E+00  0.93827000000E+00 0. -1.
     999902    2    1    2    0    0  0.14978406506E-01 -0.53848830003E-02  0.18100990549E-01  0.10198261521E+01  0.10195412620E+01 0.  0.
     999903    2    3    3    0    0  0.10607346818E+00 -0.73080084180E-01 -0.17835911285E-01  0.13181015478E+00  0.21529463918E-01 0.  0.
         14    1    1    2    0    0 -0.14978406506E-01  0.53848830003E-02 -0.18100990549E-01  0.24103847935E-01  0.00000000000E+00 0. -1.
     999901    1    3    3    0    0 -0.91095061671E-01  0.67695201179E-01  0.35936901834E-01  0.88801599729E+00  0.88000000000E+00 0. -1.
        -11    1    4    4    0    0  0.17408019082E-01 -0.12886880824E-01  0.50032188935E-02  0.22235200607E-01  0.51100000000E-03 0.  1.
         11    1    4    4    0    0  0.88665449095E-01 -0.60193203356E-01 -0.22839130179E-01  0.10957495417E+00  0.51100000000E-03 0. -1.
</event>
<event>
 8    1  0.1199892E+005  0.1043930E+01  0.7957747E-01            NaN
         13   -1    0    0    0    0  0.00000000000E+00  0.00000000000E+00  0.74505805969E-08  0.10566000000E+00  0.10566000000E+00 0. -1.
     999900   -1    0    0    0    0 -0.00000000000E+00 -0.00000000000E+00 -0.74505805969E-08  0.93827000000E+00  0.93827000000E+00 0.  1.
     999902    2    1    2    0    0  0.14802699211E-01 -0.26362383213E-02 -0.20979731083E-01  0.10181187859E+01  0.10177915521E+01 0.  0.
     999903    2    3    3    0    0 -0.34626368102E-01  0.11740687033E+00 -0.33527973728E-01  0.12850592684E+00  0.20156627776E-01 0.  0.
         14    1    1    2    0    0 -0.14802699211E-01  0.26362383213E-02  0.20979731083E-01  0.25811214089E-01  0.00000000000E+00 0. -1.
     999901    1    3    3    0    0  0.49429067313E-01 -0.12004310865E+00  0.12548242645E-01  0.88961285907E+00  0.88000000000E+00 0. -1.
        -11    1    4    4    0    0 -0.32150157992E-01  0.11251805333E+00 -0.36053477522E-01  0.12245023212E+00  0.51100000000E-03 0.  1.
         11    1    4    4    0    0 -0.24762101100E-02  0.48888169944E-02  0.25255037937E-02  0.60556947187E-02  0.51100000000E-03 0. -1.
</event>
<event>
 8    1  0.1199892E+005  0.1043930E+01  0.7957747E-01            NaN
         13   -1    0    0    0    0  0.00000000000E+00  0.00000000000E+00  0.74505805969E-08  0.10566000000E+00  0.10566000000E+00 0. -1.
     999900   -1    0    0    0    0 -0.00000000000E+00 -0.00000000000E+00 -0.74505805969E-08  0.93827000000E+00  0.93827000000E+00 0.  1.
     999902    2    1    2    0    0  0.14427741252E-01  0.15625786862E-01  0.78528507257E-02  0.10212586040E+01  0.10210069265E+01 0.  0.
     999903    2    3    3    0    0 -0.51969549323E-01  0.25609594751E-02 -0.11724336921E+00  0.12983931198E+00  0.20120803730E-01 0.  0.
         14    1    1    2    0    0 -0.14427741252E-01 -0.15625786862E-01 -0.78528507257E-02  0.22671396014E-01  0.00000000000E+00 0. -1.
     999901    1    3    3    0    0  0.66397290575E-01  0.13064827386E-01  0.12509621994E+00  0.89141929200E+00  0.88000000000E+00 0. -1.
        -11    1    4    4    0    0 -0.51505572102E-01  0.46803233493E-02 -0.11654133502E+00  0.12750244419E+00  0.51100000000E-03 0. -1.
         11    1    4    4    0    0 -0.46397722016E-03 -0.21193638742E-02 -0.70203418608E-03  0.23368677948E-02  0.51100000000E-03 0.  1.
</event>
<event>
 8    1  0.1199892E+005  0.1043930E+01  0.7957747E-01            NaN
         13   -1    0    0    0    0  0.00000000000E+00  0.00000000000E+00  0.74505805969E-08  0.10566000000E+00  0.10566000000E+00 0. -1.
     999900   -1    0    0    0    0 -0.00000000000E+00 -0.00000000000E+00 -0.74505805969E-08  0.93827000000E+00  0.93827000000E+00 0. -1.
     999902    2    1    2    0    0 -0.12289330491E-01 -0.12720543081E-01 -0.16288918188E-01  0.10198848609E+01  0.10196013734E+01 0.  0.
     999903    2    3    3    0    0  0.16018136971E-01 -0.82187097786E-02 -0.12898892530E+00  0.13223466466E+00  0.22885274407E-01 0.  0.
         14    1    1    2    0    0  0.12289330491E-01  0.12720543081E-01  0.16288918188E-01  0.24045139133E-01  0.00000000000E+00 0. -1.
     999901    1    3    3    0    0 -0.28307467462E-01 -0.45018333024E-02  0.11270000712E+00  0.88765019620E+00  0.88000000000E+00 0.  1.
        -11    1    4    4    0    0 -0.31324802775E-02 -0.91537396882E-02 -0.51815672104E-01  0.52713645098E-01  0.51100000000E-03 0. -1.
         11    1    4    4    0    0  0.19150617249E-01  0.93502990956E-03 -0.77173253201E-01  0.79521019565E-01  0.51100000000E-03 0.  1.
</event>
<event>
 8    1  0.1199892E+005  0.1043930E+01  0.7957747E-01            NaN
         13   -1    0    0    0    0  0.00000000000E+00  0.00000000000E+00  0.74505805969E-08  0.10566000000E+00  0.10566000000E+00 0. -1.
     999900   -1    0    0    0    0 -0.00000000000E+00 -0.00000000000E+00 -0.74505805969E-08  0.93827000000E+00  0.93827000000E+00 0.  1.
     999902    2    1    2    0    0 -0.12259585865E-01  0.16936091784E-01  0.10670193542E-01  0.10204570010E+01  0.10201869972E+01 0.  0.
     999903    2    3    3    0    0 -0.13519749411E-01 -0.11722375075E+00  0.49289804983E-01  0.12945086988E+00  0.20096056120E-01 0.  0.
         14    1    1    2    0    0  0.12259585865E-01 -0.16936091784E-01 -0.10670193542E-01  0.23472998972E-01  0.00000000000E+00 0.  1.
     999901    1    3    3    0    0  0.12601635465E-02  0.13415984254E+00 -0.38619611442E-01  0.89100613115E+00  0.88000000000E+00 0. -1.
        -11    1    4    4    0    0 -0.16790996556E-01 -0.58822400839E-01  0.23734417811E-01  0.65617041351E-01  0.51100000000E-03 0.  1.
         11    1    4    4    0    0  0.32712471444E-02 -0.58401349914E-01  0.25555387173E-01  0.63833828526E-01  0.51100000000E-03 0. -1.
</event>
<event>
 8    1  0.1199892E+005  0.1043930E+01  0.7957747E-01            NaN
         13   -1    0    0    0    0  0.00000000000E+00  0.00000000000E+00  0.74505805969E-08  0.10566000000E+00  0.10566000000E+00 0. -1.
     999900   -1    0    0    0    0 -0.00000000000E+00 -0.00000000000E+00 -0.74505805969E-08  0.93827000000E+00  0.93827000000E+00 0.  1.
     999902    2    1    2    0    0 -0.19501285469E-01 -0.69960295777E-02 -0.12533964001E-01  0.10197154420E+01  0.10194278973E+01 0.  0.
     999903    2    3    3    0    0 -0.54107670622E-01  0.68484156068E-02  0.11592718177E+00  0.12960784373E+00  0.19609713549E-01 0.  0.
         14    1    1    2    0    0  0.19501285469E-01  0.69960295777E-02  0.12533964001E-01  0.24214557984E-01  0.00000000000E+00 0. -1.
     999901    1    3    3    0    0  0.34606385154E-01 -0.13844445184E-01 -0.12846114577E+00  0.89010759829E+00  0.88000000000E+00 0.  1.
        -11    1    4    4    0    0 -0.45548122235E-02 -0.27276314750E-02  0.25469216473E-01  0.26021690887E-01  0.51100000000E-03 0. -1.
         11    1    4    4    0    0 -0.49552858399E-01  0.95760470818E-02  0.90457965300E-01  0.10358615284E+00  0.51100000000E-03 0.  1.
</event>
<event>
 8    1  0.1199892E+005  0.1043930E+01  0.7957747E-01            NaN
         13   -1    0    0    0    0  0.00000000000E+00  0.00000000000E+00  0.74505805969E-08  0.10566000000E+00  0.10566000000E+00 0. -1.
     999900   -1    0    0    0    0 -0.00000000000E+00 -0.00000000000E+00 -0.74505805969E-08  0.93827000000E+00  0.93827000000E+00 0. -1.
     999902    2    1    2    0    0  0.93624301702E-03 -0.21550657889E-01  0.32878327938E-02  0.10221098888E+01  0.10218769533E+01 0.  0.
     999903    2    3    3    0    0  0.69146419397E-01 -0.11051106636E+00  0.26951172838E-01  0.13468297011E+00  0.20474706754E-01 0.  0.
         14    1    1    2    0    0 -0.93624301702E-03  0.21550657889E-01 -0.32878327938E-02  0.21820111157E-01  0.00000000000E+00 0.  1.
     999901    1    3    3    0    0 -0.68210176380E-01  0.88960408467E-01 -0.23663340044E-01  0.88742691874E+00  0.88000000000E+00 0. -1.
        -11    1    4    4    0    0  0.24686710011E-01 -0.54278116526E-01  0.18851703516E-01  0.62539550935E-01  0.51100000000E-03 0.  1.
         11    1    4    4    0    0  0.44459709387E-01 -0.56232949830E-01  0.80994693215E-02  0.72143419171E-01  0.51100000000E-03 0. -1.
</event>
<event>
 8    1  0.1199892E+005  0.1043930E+01  0.7957747E-01            NaN
         13   -1    0    0    0    0  0.00000000000E+00  0.00000000000E+00  0.74505805969E-08  0.10566000000E+00  0.10566000000E+00 0. -1.
     999900   -1    0    0    0    0 -0.00000000000E+00 -0.00000000000E+00 -0.74505805969E-08  0.93827000000E+00  0.93827000000E+00 0.  1.
     999902    2    1    2    0    0  0.85143531672E-02  0.11269556921E-01  0.20107849171E-01  0.10193571955E+01  0.10190609743E+01 0.  0.
     999903    2    3    3    0    0  0.73139856323E-01  0.13400203380E-01  0.10802316431E+00  0.13261591533E+00  0.19722396838E-01 0.  0.
         14    1    1    2    0    0 -0.85143531672E-02 -0.11269556921E-01 -0.20107849171E-01  0.24572804507E-01  0.00000000000E+00 0.  1.
     999901    1    3    3    0    0 -0.64625503156E-01 -0.21306464588E-02 -0.87915315140E-01  0.88674128016E+00  0.88000000000E+00 0.  1.
        -11    1    4    4    0    0  0.38273674490E-01 -0.28368538345E-02  0.57002115936E-01  0.68719896979E-01  0.51100000000E-03 0.  1.
         11    1    4    4    0    0  0.34866181833E-01  0.16237057214E-01  0.51021048375E-01  0.63896018349E-01  0.51100000000E-03 0. -1.
</event>
<event>
 8    1  0.1199892E+005  0.1043930E+01  0.7957747E-01            NaN
         13   -1    0    0    0    0  0.00000000000E+00  0.00000000000E+00  0.74505805969E-08  0.10566000000E+00  0.10566000000E+00 0. -1.
     999900   -1    0    0    0    0 -0.00000000000E+00 -0.00000000000E+00 -0.74505805969E-08  0.93827000000E+00  0.93827000000E+00 0.  1.
     999902    2    1    2    0    0  0.81128826101E-02  0.21734234785E-01  0.92432884886E-03  0.10207125451E+01  0.10204484551E+01 0.  0.
     999903    2    3    3    0    0 -0.11997895172E-01 -0.11964847589E+00 -0.39628699081E-01  0.12827875918E+00  0.20622778522E-01 0.  0.
         14    1    1    2    0    0 -0.81128826101E-02 -0.21734234785E-01 -0.92432884886E-03  0.23217454851E-01  0.00000000000E+00 0. -1.
     999901    1    3    3    0    0  0.20110777782E-01  0.14138271068E+00  0.40553027930E-01  0.89243378597E+00  0.88000000000E+00 0. -1.
        -11    1    4    4    0    0 -0.14997257956E-01 -0.76176359913E-01 -0.32287578026E-01  0.84086291223E-01  0.51100000000E-03 0. -1.
         11    1    4    4    0    0  0.29993627832E-02 -0.43472115981E-01 -0.73411210558E-02  0.44192467959E-01  0.51100000000E-03 0.  1.
</event>
<event>
 8    1  0.1199892E+005  0.1043930E+01  0.7957747E-01            NaN
         13   -1    0    0    0    0  0.00000000000E+00  0.00000000000E+00  0.74505805969E-08  0.10566000000E+00  0.10566000000E+00 0. -1.
     999900   -1    0    0    0    0 -0.00000000000E+00 -0.00000000000E+00 -0.74505805969E-08  0.93827000000E+00  0.93827000000E+00 0.  1.
     999902    2    1    2    0    0 -0.19864578644E-01 -0.55790877585E-04  0.11705788373E-01  0.10208728953E+01  0.10206124819E+01 0.  0.
     999903    2    3    3    0    0  0.30066270825E-01  0.20239289649E-01 -0.12235683910E+00  0.12908941924E+00  0.19474922315E-01 0.  0.
         14    1    1    2    0    0  0.19864578644E-01  0.55790877585E-04 -0.11705788373E-01  0.23057104735E-01  0.00000000000E+00 0.  1.
     999901    1    3    3    0    0 -0.49930849470E-01 -0.20295080527E-01  0.13406262747E+00  0.89178347602E+00  0.88000000000E+00 0. -1.
        -11    1    4    4    0    0  0.12349131836E-01  0.13559425520E-01 -0.33099188941E-01  0.37844107957E-01  0.51100000000E-03 0.  1.
         11    1    4    4    0    0  0.17717138989E-01  0.66798641290E-02 -0.89257650158E-01  0.91245311285E-01  0.51100000000E-03 0. -1.
</event>
<event>
 8    1  0.1199892E+005  0.1043930E+01  0.7957747E-01            NaN
         13   -1    0    0    0    0  0.00000000000E+00  0.00000000000E+00  0.74505805969E-08  0.10566000000E+00  0.10566000000E+00 0.  1.
     999900   -1    0    0    0    0 -0.00000000000E+00 -0.00000000000E+00 -0.74505805969E-08  0.93827000000E+00  0.93827000000E+00 0. -1.
     999902    2    1    2    0    0 -0.83155489076E-02 -0.23968311857E-03  0.16927192603E-01  0.10250690443E+01  0.10248955117E+01 0.  0.
     999903    2    3    3    0    0  0.27164039567E-01  0.10924264734E+00 -0.66206090901E-01  0.13369015474E+00  0.28600174071E-01 0.  0.
         14    1    1    2    0    0  0.83155489076E-02  0.23968311857E-03 -0.16927192603E-01  0.18860955730E-01  0.00000000000E+00 0. -1.
     999901    1    3    3    0    0 -0.35479588474E-01 -0.10948233046E+00  0.83133283504E-01  0.89137888953E+00  0.88000000000E+00 0.  1.
        -11    1    4    4    0    0 -0.58465566957E-02  0.20432828287E-01 -0.96521987733E-02  0.23347564309E-01  0.51100000000E-03 0.  1.
         11    1    4    4    0    0  0.33010596263E-01  0.88809819055E-01 -0.56553892127E-01  0.11034259043E+00  0.51100000000E-03 0. -1.
</event>
<event>
 8    1  0.1199892E+005  0.1043930E+01  0.7957747E-01            NaN
         13   -1    0    0    0    0  0.00000000000E+00  0.00000000000E+00  0.74505805969E-08  0.10566000000E+00  0.10566000000E+00 0.  1.
     999900   -1    0    0    0    0 -0.00000000000E+00 -0.00000000000E+00 -0.74505805969E-08  0.93827000000E+00  0.93827000000E+00 0. -1.
     999902    2    1    2    0    0  0.83411948459E-02  0.22029174533E-01  0.15244352459E-02  0.10203252555E+01  0.10200521766E+01 0.  0.
     999903    2    3    3    0    0  0.12607670304E-01  0.10388556105E+00 -0.79515220463E-01  0.13280844062E+00  0.19085294587E-01 0.  0.
         14    1    1    2    0    0 -0.83411948459E-02 -0.22029174533E-01 -0.15244352459E-02  0.23604744542E-01  0.00000000000E+00 0. -1.
     999901    1    3    3    0    0 -0.42664754577E-02 -0.81856386515E-01  0.81039655709E-01  0.88751681484E+00  0.88000000000E+00 0.  1.
        -11    1    4    4    0    0  0.69808390046E-02  0.19343444700E-01 -0.85177593274E-02  0.22264642620E-01  0.51100000000E-03 0.  1.
         11    1    4    4    0    0  0.56268312989E-02  0.84542116349E-01 -0.70997461135E-01  0.11054379800E+00  0.51100000000E-03 0. -1.
</event>
<event>
 8    1  0.1199892E+005  0.1043930E+01  0.7957747E-01            NaN
         13   -1    0    0    0    0  0.00000000000E+00  0.00000000000E+00  0.74505805969E-08  0.10566000000E+00  0.10566000000E+00 0. -1.
     999900   -1    0    0    0    0 -0.00000000000E+00 -0.00000000000E+00 -0.74505805969E-08  0.93827000000E+00  0.93827000000E+00 0.  1.
     999902    2    1    2    0    0 -0.16068446516E-03  0.14883802094E-01  0.16213899343E-01  0.10219199133E+01  0.10216828595E+01 0.  0.
     999903    2    3    3    0    0  0.16934904694E-01  0.11115950840E+00  0.71688246916E-01  0.13476791166E+00  0.19492510436E-01 0.  0.
         14    1    1    2    0    0  0.16068446516E-03 -0.14883802094E-01 -0.16213899343E-01  0.22010086692E-01  0.00000000000E+00 0.  1.
     999901    1    3    3    0    0 -0.17095589159E-01 -0.96275706302E-01 -0.55474347573E-01  0.88715200165E+00  0.88000000000E+00 0.  1.
        -11    1    4    4    0    0  0.80023812279E-02  0.16194588575E-01  0.17034476936E-01  0.24834196784E-01  0.51100000000E-03 0.  1.
         11    1    4    4    0    0  0.89325234661E-02  0.94964919821E-01  0.54653769980E-01  0.10993371487E+00  0.51100000000E-03 0. -1.
</event>
<event>
 8    1  0.1199892E+005  0.1043930E+01  0.7957747E-01            NaN
         13   -1    0    0    0    0  0.00000000000E+00  0.00000000000E+00  0.74505805969E-08  0.10566000000E+00  0.10566000000E+00 0.  1.
     999900   -1    0    0    0    0 -0.00000000000E+00 -0.00000000000E+00 -0.74505805969E-08  0.93827000000E+00  0.93827000000E+00 0.  1.
     999902    2    1    2    0    0  0.86050732854E-02  0.19495919932E-01  0.86962675367E-02  0.10209134136E+01  0.10206539251E+01 0.  0.
     999903    2    3    3    0    0  0.19709546664E-01 -0.93979595470E-01 -0.83473421110E-01  0.12878379666E+00  0.19920433122E-01 0.  0.
         14    1    1    2    0    0 -0.86050732854E-02 -0.19495919932E-01 -0.86962675367E-02  0.23016586396E-01  0.00000000000E+00 0. -1.
     999901    1    3    3    0    0 -0.11104473379E-01  0.11347551540E+00  0.92169688647E-01  0.89212961694E+00  0.88000000000E+00 0. -1.
        -11    1    4    4    0    0 -0.19888708882E-02 -0.30200906569E-01 -0.31574706881E-01  0.43740983078E-01  0.51100000000E-03 0.  1.
         11    1    4    4    0    0  0.21698417553E-01 -0.63778688901E-01 -0.51898714229E-01  0.85042813581E-01  0.51100000000E-03 0. -1.
</event>
<event>
 8    1  0.1199892E+005  0.1043930E+01  0.7957747E-01            NaN
         13   -1    0    0    0    0  0.00000000000E+00  0.00000000000E+00  0.74505805969E-08  0.10566000000E+00  0.10566000000E+00 0.  1.
     999900   -1    0    0    0    0 -0.00000000000E+00 -0.00000000000E+00 -0.74505805969E-08  0.93827000000E+00  0.93827000000E+00 0.  1.
     999902    2    1    2    0    0  0.10565802329E-01  0.14526960872E-01  0.15408462800E-01  0.10202637900E+01  0.10199892704E+01 0.  0.
     999903    2    3    3    0    0 -0.90648890723E-02 -0.92267070479E-01  0.89067125464E-01  0.13053578223E+00  0.22610906571E-01 0.  0.
         14    1    1    2    0    0 -0.10565802329E-01 -0.14526960872E-01 -0.15408462800E-01  0.23666210024E-01  0.00000000000E+00 0. -1.
     999901    1    3    3    0    0  0.19630691401E-01  0.10679403135E+00 -0.73658662664E-01  0.88972800774E+00  0.88000000000E+00 0.  1.
        -11    1    4    4    0    0  0.75913995974E-02 -0.29289832122E-01  0.26950783075E-01  0.40523196356E-01  0.51100000000E-03 0. -1.
         11    1    4    4    0    0 -0.16656288670E-01 -0.62977238357E-01  0.62116342389E-01  0.90012585876E-01  0.51100000000E-03 0.  1.
</event>
<event>
 8    1  0.1199892E+005  0.1043930E+01  0.7957747E-01            NaN
         13   -1    0    0    0    0  0.00000000000E+00  0.00000000000E+00  0.74505805969E-08  0.10566000000E+00  0.10566000000E+00 0.  1.
     999900   -1    0    0    0    0 -0.00000000000E+00 -0.00000000000E+00 -0.74505805969E-08  0.93827000000E+00  0.93827000000E+00 0.  1.
     999902    2    1    2    0    0  0.14663205665E-01 -0.21676922553E-03  0.18566915868E-01  0.10202701827E+01  0.10199958131E+01 0.  0.
     999903    2    3    3    0    0  0.80233950777E-01 -0.98266168125E-01  0.32001978452E-01  0.13229850065E+00  0.19622435977E-01 0.  0.
         14    1    1    2    0    0 -0.14663205665E-01  0.21676922553E-03 -0.18566915868E-01  0.23659817288E-01  0.00000000000E+00 0. -1.
     999901    1    3    3    0    0 -0.65570745113E-01  0.98049398900E-01 -0.13435062584E-01  0.88797168206E+00  0.88000000000E+00 0.  1.
        -11    1    4    4    0    0  0.67682852138E-01 -0.91001128703E-01  0.31797775069E-01  0.11778596486E+00  0.51100000000E-03 0. -1.
         11    1    4    4    0    0  0.12551098639E-01 -0.72650394225E-02  0.20420338247E-03  0.14512535784E-01  0.51100000000E-03 0.  1.
</event>
<event>
 8    1  0.1199892E+005  0.1043930E+01  0.7957747E-01            NaN
         13   -1    0    0    0    0  0.00000000000E+00  0.00000000000E+00  0.74505805969E-08  0.10566000000E+00  0.10566000000E+00 0.  1.
     999900   -1    0    0    0    0 -0.00000000000E+00 -0.00000000000E+00 -0.74505805969E-08  0.93827000000E+00  0.93827000000E+00 0.  1.
     999902    2    1    2    0    0 -0.23283156742E-01 -0.45672499571E-02 -0.41223241257E-02  0.10198476680E+01  0.10195632924E+01 0.  0.
     999903    2    3    3    0    0  0.37147819407E-02  0.46586868877E-01  0.11901448288E+00  0.12939367937E+00  0.19852988940E-01 0.  0.
         14    1    1    2    0    0  0.23283156742E-01  0.45672499571E-02  0.41223241257E-02  0.24082332035E-01  0.00000000000E+00 0. -1.
     999901    1    3    3    0    0 -0.26997938683E-01 -0.51154118834E-01 -0.12313680700E+00  0.89045398860E+00  0.88000000000E+00 0.  1.
        -11    1    4    4    0    0 -0.40394198156E-02  0.20951422354E-01  0.73953010738E-01  0.76971344858E-01  0.51100000000E-03 0. -1.
         11    1    4    4    0    0  0.77542017564E-02  0.25635446523E-01  0.45061472138E-01  0.52422334511E-01  0.51100000000E-03 0.  1.
</event>
<event>
 8    1  0.1199892E+005  0.1043930E+01  0.7957747E-01            NaN
         13   -1    0    0    0    0  0.00000000000E+00  0.00000000000E+00  0.74505805969E-08  0.10566000000E+00  0.10566000000E+00 0.  1.
     999900   -1    0    0    0    0 -0.00000000000E+00 -0.00000000000E+00 -0.74505805969E-08  0.93827000000E+00  0.93827000000E+00 0.  1.
     999902    2    1    2    0    0  0.16763067322E-01  0.11977214658E-01 -0.10792696029E-01  0.10206719609E+01  0.10204069361E+01 0.  0.
     999903    2    3    3    0    0  0.81158617347E-01 -0.42212057863E-01 -0.94114672252E-01  0.13273850849E+00  0.19833333164E-01 0.  0.
         14    1    1    2    0    0 -0.16763067322E-01 -0.11977214658E-01  0.10792696029E-01  0.23258039138E-01  0.00000000000E+00 0.  1.
     999901    1    3    3    0    0 -0.64395550025E-01  0.54189272521E-01  0.83321976223E-01  0.88793345237E+00  0.88000000000E+00 0. -1.
        -11    1    4    4    0    0  0.43450769137E-01 -0.19784779461E-01 -0.35383904339E-01  0.59428012286E-01  0.51100000000E-03 0.  1.
         11    1    4    4    0    0  0.37707848209E-01 -0.22427278402E-01 -0.58730767913E-01  0.73310496204E-01  0.51100000000E-03 0. -1.
</event>
<event>
 8    1  0.1199892E+005  0.1043930E+01  0.7957747E-01            NaN
         13   -1    0    0    0    0  0.00000000000E+00  0.00000000000E+00  0.74505805969E-08  0.10566000000E+00  0.10566000000E+00 0. -1.
     999900   -1    0    0    0    0 -0.00000000000E+00 -0.00000000000E+00 -0.74505805969E-08  0.93827000000E+00  0.93827000000E+00 0.  1.
     999902    2    1    2    0    0 -0.19741078983E-01 -0.13577744984E-01 -0.28047201574E-02  0.10198067371E+01  0.10195213824E+01 0.  0.
     999903    2    3    3    0    0  0.11133149073E+00  0.29407032261E-01  0.51041082984E-01  0.12743513281E+00  0.19366118580E-01 0.  0.
         14    1    1    2    0    0  0.19741078983E-01  0.13577744984E-01  0.28047201574E-02  0.24123262910E-01  0.00000000000E+00 0. -1.
     999901    1    3    3    0    0 -0.13107256971E+00 -0.42984777245E-01 -0.53845803141E-01  0.89237160428E+00  0.88000000000E+00 0.  1.
        -11    1    4    4    0    0  0.89776654317E-01  0.26799577157E-01  0.48693489980E-01  0.10559063445E+00  0.51100000000E-03 0.  1.
         11    1    4    4    0    0  0.21554836411E-01  0.26074551041E-02  0.23475930038E-02  0.21844498363E-01  0.51100000000E-03 0. -1.
</event>
<event>
 8    1  0.1199892E+005  0.1043930E+01  0.7957747E-01            NaN
         13   -1    0    0    0    0  0.00000000000E+00  0.00000000000E+00  0.74505805969E-08  0.10566000000E+00  0.10566000000E+00 0. -1.
     999900   -1    0    0    0    0 -0.00000000000E+00 -0.00000000000E+00 -0.74505805969E-08  0.93827000000E+00  0.93827000000E+00 0. -1.
     999902    2    1    2    0    0 -0.19953399905E-01 -0.11306564750E-01 -0.44683778564E-02  0.10205645774E+01  0.10202970712E+01 0.  0.
     999903    2    3    3    0    0 -0.66875372962E-01  0.11045672519E+00  0.96117788571E-02  0.13083078507E+00  0.18743115567E-01 0.  0.
         14    1    1    2    0    0  0.19953399905E-01  0.11306564750E-01  0.44683778564E-02  0.23365422634E-01  0.00000000000E+00 0. -1.
     999901    1    3    3    0    0  0.46921973058E-01 -0.12176328994E+00 -0.14080156713E-01  0.88973379229E+00  0.88000000000E+00 0.  1.
        -11    1    4    4    0    0 -0.42241062054E-02  0.19261782706E-01 -0.44615535331E-03  0.19731181461E-01  0.51100000000E-03 0.  1.
         11    1    4    4    0    0 -0.62651266757E-01  0.91194942486E-01  0.10057934210E-01  0.11109960361E+00  0.51100000000E-03 0. -1.
</event>
<event>
 8    1  0.1199892E+005  0.1043930E+01  0.7957747E-01            NaN
         13   -1    0    0    0    0  0.00000000000E+00  0.00000000000E+00  0.74505805969E-08  0.10566000000E+00  0.10566000000E+00 0. -1.
     999900   -1    0    0    0    0 -0.00000000000E+00 -0.00000000000E+00 -0.74505805969E-08  0.93827000000E+00  0.93827000000E+00 0.  1.
     999902    2    1    2    0    0 -0.25295142938E-01  0.10685966602E-01 -0.97485219253E-02  0.10147912317E+01  0.10143727994E+01 0.  0.
     999903    2    3    3    0    0  0.36461823414E-02 -0.12254784923E+00 -0.81822674721E-03  0.12424724055E+00  0.20135473517E-01 0.  0.
         14    1    1    2    0    0  0.25295142938E-01 -0.10685966602E-01  0.97485219253E-02  0.29138768303E-01  0.00000000000E+00 0. -1.
     999901    1    3    3    0    0 -0.28941325280E-01  0.13323381583E+00 -0.89302951781E-02  0.89054399114E+00  0.88000000000E+00 0.  1.
        -11    1    4    4    0    0  0.71399619946E-02 -0.98099428178E-01  0.62357723443E-02  0.98557713265E-01  0.51100000000E-03 0.  1.
         11    1    4    4    0    0 -0.34937796532E-02 -0.24448421051E-01 -0.70539990915E-02  0.25689527289E-01  0.51100000000E-03 0. -1.
</event>
<event>
 8    1  0.1199892E+005  0.1043930E+01  0.7957747E-01            NaN
         13   -1    0    0    0    0  0.00000000000E+00  0.00000000000E+00  0.74505805969E-08  0.10566000000E+00  0.10566000000E+00 0. -1.
     999900   -1    0    0    0    0 -0.00000000000E+00 -0.00000000000E+00 -0.74505805969E-08  0.93827000000E+00  0.93827000000E+00 0. -1.
     999902    2    1    2    0    0 -0.29108345984E-03 -0.11328995839E-01 -0.20764723988E-01  0.10202740359E+01  0.10199997567E+01 0.  0.
     999903    2    3    3    0    0 -0.53582568005E-01  0.28519123663E-01 -0.11622429109E+00  0.13261397487E+00  0.19848135504E-01 0.  0.
         14    1    1    2    0    0  0.29108345984E-03  0.11328995839E-01  0.20764723988E-01  0.23655964123E-01  0.00000000000E+00 0. -1.
     999901    1    3    3    0    0  0.53291484545E-01 -0.39848119502E-01  0.95459567104E-01  0.88766006101E+00  0.88000000000E+00 0. -1.
        -11    1    4    4    0    0 -0.45523531212E-01  0.24255528558E-01 -0.11019511124E+00  0.12167146840E+00  0.51100000000E-03 0. -1.
         11    1    4    4    0    0 -0.80590367926E-02  0.42635951052E-02 -0.60291798490E-02  0.10942506472E-01  0.51100000000E-03 0.  1.
</event>
<event>
 8    1  0.1199892E+005  0.1043930E+01  0.7957747E-01            NaN
         13   -1    0    0    0    0  0.00000000000E+00  0.00000000000E+00  0.74505805969E-08  0.10566000000E+00  0.10566000000E+00 0. -1.
     999900   -1    0    0    0    0 -0.00000000000E+00 -0.00000000000E+00 -0.74505805969E-08  0.93827000000E+00  0.93827000000E+00 0.  1.
     999902    2    1    2    0    0 -0.18340614411E-01  0.12683431496E-01  0.86812067932E-02  0.10200007099E+01  0.10197199799E+01 0.  0.
     999903    2    3    3    0    0  0.19834354864E-01  0.56208515304E-01  0.11558449347E+00  0.13164263241E+00  0.20425687589E-01 0.  0.
         14    1    1    2    0    0  0.18340614411E-01 -0.12683431496E-01 -0.86812067932E-02  0.23929290062E-01  0.00000000000E+00 0.  1.
     999901    1    3    3    0    0 -0.38174969275E-01 -0.43525083808E-01 -0.10690328667E+00  0.88835807752E+00  0.88000000000E+00 0. -1.
        -11    1    4    4    0    0  0.20339527683E-01  0.33080339051E-01  0.60462525933E-01  0.71860861262E-01  0.51100000000E-03 0.  1.
         11    1    4    4    0    0 -0.50517281851E-03  0.23128176253E-01  0.55121967534E-01  0.59781771153E-01  0.51100000000E-03 0. -1.
</event>
<event>
 8    1  0.1199892E+005  0.1043930E+01  0.7957747E-01            NaN
         13   -1    0    0    0    0  0.00000000000E+00  0.00000000000E+00  0.74505805969E-08  0.10566000000E+00  0.10566000000E+00 0. -1.
     999900   -1    0    0    0    0 -0.00000000000E+00 -0.00000000000E+00 -0.74505805969E-08  0.93827000000E+00  0.93827000000E+00 0. -1.
     999902    2    1    2    0    0  0.29243058132E-02 -0.15833115876E-01 -0.16749963257E-01  0.10206963952E+01  0.10204319334E+01 0.  0.
     999903    2    3    3    0    0  0.97788514371E-01 -0.63730091689E-01  0.56747085421E-01  0.13126109428E+00  0.19624602899E-01 0.  0.
         14    1    1    2    0    0 -0.29243058132E-02  0.15833115876E-01  0.16749963257E-01  0.23233604798E-01  0.00000000000E+00 0. -1.
     999901    1    3    3    0    0 -0.94864208557E-01  0.47896975813E-01 -0.73497048678E-01  0.88943530092E+00  0.88000000000E+00 0. -1.
        -11    1    4    4    0    0  0.35785290411E-01 -0.23973956200E-01  0.31623318459E-01  0.53438122880E-01  0.51100000000E-03 0.  1.
         11    1    4    4    0    0  0.62003223960E-01 -0.39756135489E-01  0.25123766963E-01  0.77822971402E-01  0.51100000000E-03 0. -1.
</event>
<event>
 8    1  0.1199892E+005  0.1043930E+01  0.7957747E-01            NaN
         13   -1    0    0    0    0  0.00000000000E+00  0.00000000000E+00  0.74505805969E-08  0.10566000000E+00  0.10566000000E+00 0.  1.
     999900   -1    0    0    0    0 -0.00000000000E+00 -0.00000000000E+00 -0.74505805969E-08  0.93827000000E+00  0.93827000000E+00 0. -1.
     999902    2    1    2    0    0 -0.34739561941E-02  0.23672397731E-01 -0.26377179832E-02  0.10198590976E+01  0.10195749951E+01 0.  0.
     999903    2    3    3    0    0 -0.10524202773E+00  0.46391012913E-01  0.59895054386E-01  0.13149924739E+00  0.21831721042E-01 0.  0.
         14    1    1    2    0    0  0.34739561941E-02 -0.23672397731E-01  0.26377179832E-02  0.24070902395E-01  0.00000000000E+00 0.  1.
     999901    1    3    3    0    0  0.10176807154E+00 -0.22718615182E-01 -0.62532772369E-01  0.88835985022E+00  0.88000000000E+00 0. -1.
        -11    1    4    4    0    0 -0.24448890842E-01  0.36449324335E-02  0.62035170792E-02  0.25490754029E-01  0.51100000000E-03 0. -1.
         11    1    4    4    0    0 -0.80793136888E-01  0.42746080479E-01  0.53691537306E-01  0.10600849336E+00  0.51100000000E-03 0.  1.
</event>
<event>
 8    1  0.1199892E+005  0.1043930E+01  0.7957747E-01            NaN
         13   -1    0    0    0    0  0.00000000000E+00  0.00000000000E+00  0.74505805969E-08  0.10566000000E+00  0.10566000000E+00 0.  1.
     999900   -1    0    0    0    0 -0.00000000000E+00 -0.00000000000E+00 -0.74505805969E-08  0.93827000000E+00  0.93827000000E+00 0. -1.
     999902    2    1    2    0    0  0.94267965265E-02  0.28329181078E-02  0.22266923669E-01  0.10195844499E+01  0.10192937480E+01 0.  0.
     999903    2    3    3    0    0 -0.86330832238E-01  0.85263604697E-01 -0.37712380946E-01  0.12853907594E+00  0.19421006295E-01 0.  0.
         14    1    1    2    0    0 -0.94267965265E-02 -0.28329181078E-02 -0.22266923669E-01  0.24345550054E-01  0.00000000000E+00 0. -1.
     999901    1    3    3    0    0  0.95757628765E-01 -0.82430686590E-01  0.59979304615E-01  0.89104537401E+00  0.88000000000E+00 0.  1.
        -11    1    4    4    0    0 -0.53761794908E-01  0.48378301339E-01 -0.13042992006E-01  0.73492662176E-01  0.51100000000E-03 0. -1.
         11    1    4    4    0    0 -0.32569037330E-01  0.36885303358E-01 -0.24669388940E-01  0.55046413763E-01  0.51100000000E-03 0.  1.
</event>
<event>
 8    1  0.1199892E+005  0.1043930E+01  0.7957747E-01            NaN
         13   -1    0    0    0    0  0.00000000000E+00  0.00000000000E+00  0.74505805969E-08  0.10566000000E+00  0.10566000000E+00 0. -1.
     999900   -1    0    0    0    0 -0.00000000000E+00 -0.00000000000E+00 -0.74505805969E-08  0.93827000000E+00  0.93827000000E+00 0.  1.
     999902    2    1    2    0    0 -0.12392380032E-01 -0.17975938207E-01  0.20396078132E-02  0.10220013558E+01  0.10217660719E+01 0.  0.
     999903    2    3    3    0    0  0.80163787255E-01  0.69414516271E-01  0.72900864160E-01  0.13002318716E+00  0.18624858359E-01 0.  0.
         14    1    1    2    0    0  0.12392380032E-01  0.17975938207E-01 -0.20396078132E-02  0.21928644220E-01  0.00000000000E+00 0.  1.
     999901    1    3    3    0    0 -0.92556167287E-01 -0.87390454478E-01 -0.70861256347E-01  0.89197816862E+00  0.88000000000E+00 0.  1.
        -11    1    4    4    0    0  0.43100694634E-01  0.32187139009E-01  0.26668657486E-01  0.60042986340E-01  0.51100000000E-03 0.  1.
         11    1    4    4    0    0  0.37063092620E-01  0.37227377262E-01  0.46232206675E-01  0.69980200824E-01  0.51100000000E-03 0. -1.
</event>
<event>
 8    1  0.1199892E+005  0.1043930E+01  0.7957747E-01            NaN
         13   -1    0    0    0    0  0.00000000000E+00  0.00000000000E+00  0.74505805969E-08  0.10566000000E+00  0.10566000000E+00 0.  1.
     999900   -1    0    0    0    0 -0.00000000000E+00 -0.00000000000E+00 -0.74505805969E-08  0.93827000000E+00  0.93827000000E+00 0. -1.
     999902    2    1    2    0    0 -0.39972079898E-02 -0.16935455485E-01 -0.17132707403E-01  0.10195103975E+01  0.10192179029E+01 0.  0.
     999903    2    3    3    0    0 -0.23142453275E-01 -0.77518798134E-01 -0.10363078502E+00  0.13298978336E+00  0.20055065886E-01 0.  0.
         14    1    1    2    0    0  0.39972079898E-02  0.16935455485E-01  0.17132707403E-01  0.24419602518E-01  0.00000000000E+00 0.  1.
     999901    1    3    3    0    0  0.19145245285E-01  0.60583342648E-01  0.86498077618E-01  0.88652061412E+00  0.88000000000E+00 0. -1.
        -11    1    4    4    0    0  0.18849004614E-02 -0.25745544108E-01 -0.33515481514E-01  0.42307617674E-01  0.51100000000E-03 0.  1.
         11    1    4    4    0    0 -0.25027353736E-01 -0.51773254026E-01 -0.70115303506E-01  0.90682165690E-01  0.51100000000E-03 0. -1.
</event>
<event>
 8    1  0.1199892E+005  0.1043930E+01  0.7957747E-01            NaN
         13   -1    0    0    0    0  0.00000000000E+00  0.00000000000E+00  0.74505805969E-08  0.10566000000E+00  0.10566000000E+00 0. -1.
     999900   -1    0    0    0    0 -0.00000000000E+00 -0.00000000000E+00 -0.74505805969E-08  0.93827000000E+00  0.93827000000E+00 0.  1.
     999902    2    1    2    0    0 -0.13082925846E-01  0.68755425957E-02 -0.18060833761E-01  0.10205926962E+01  0.10203258409E+01 0.  0.
     999903    2    3    3    0    0 -0.80345299046E-01 -0.99953545380E-01 -0.20785307827E-01  0.13157970207E+00  0.20859306390E-01 0.  0.
         14    1    1    2    0    0  0.13082925846E-01 -0.68755425957E-02  0.18060833761E-01  0.23337303846E-01  0.00000000000E+00 0. -1.
     999901    1    3    3    0    0  0.67262373200E-01  0.10682908798E+00  0.27244740668E-02  0.88901299408E+00  0.88000000000E+00 0.  1.
        -11    1    4    4    0    0 -0.32913288147E-01 -0.50580529948E-01 -0.11764800512E-02  0.60359918595E-01  0.51100000000E-03 0. -1.
         11    1    4    4    0    0 -0.47432010900E-01 -0.49373015432E-01 -0.19608827776E-01  0.71219783478E-01  0.51100000000E-03 0.  1.
</event>
<event>
 8    1  0.1199892E+005  0.1043930E+01  0.7957747E-01            NaN
         13   -1    0    0    0    0  0.00000000000E+00  0.00000000000E+00  0.74505805969E-08  0.10566000000E+00  0.10566000000E+00 0. -1.
     999900   -1    0    0    0    0 -0.00000000000E+00 -0.00000000000E+00 -0.74505805969E-08  0.93827000000E+00  0.93827000000E+00 0.  1.
     999902    2    1    2    0    0 -0.15113479880E-01 -0.88954298470E-02  0.15411586549E-01  0.10205834168E+01  0.10203163469E+01 0.  0.
     999903    2    3    3    0    0  0.85393167328E-01  0.79892143300E-01  0.51739579299E-01  0.12968244458E+00  0.21582510951E-01 0.  0.
         14    1    1    2    0    0  0.15113479880E-01  0.88954298470E-02 -0.15411586549E-01  0.23346583181E-01  0.00000000000E+00 0.  1.
     999901    1    3    3    0    0 -0.10050664721E+00 -0.88787573147E-01 -0.36327992750E-01  0.89090097224E+00  0.88000000000E+00 0. -1.
        -11    1    4    4    0    0  0.14732649323E-01  0.25828654675E-01  0.97251409663E-02  0.31289133037E-01  0.51100000000E-03 0.  1.
         11    1    4    4    0    0  0.70660518005E-01  0.54063488625E-01  0.42014438333E-01  0.98393311544E-01  0.51100000000E-03 0. -1.
</event>
<event>
 8    1  0.1199892E+005  0.1043930E+01  0.7957747E-01            NaN
         13   -1    0    0    0    0  0.00000000000E+00  0.00000000000E+00  0.74505805969E-08  0.10566000000E+00  0.10566000000E+00 0. -1.
     999900   -1    0    0    0    0 -0.00000000000E+00 -0.00000000000E+00 -0.74505805969E-08  0.93827000000E+00  0.93827000000E+00 0. -1.
     999902    2    1    2    0    0 -0.36313495527E-02 -0.18866890549E-01 -0.14315875910E-01  0.10199698130E+01  0.10196883489E+01 0.  0.
     999903    2    3    3    0    0  0.25815058746E-01 -0.10715573833E+00 -0.72024984319E-01  0.13318215363E+00  0.20027934601E-01 0.  0.
         14    1    1    2    0    0  0.36313495527E-02  0.18866890549E-01  0.14315875910E-01  0.23960187011E-01  0.00000000000E+00 0. -1.
     999901    1    3    3    0    0 -0.29446408299E-01  0.88288847777E-01  0.57709108409E-01  0.88678765936E+00  0.88000000000E+00 0.  1.
        -11    1    4    4    0    0  0.38829456522E-02 -0.51988187265E-01 -0.40101018841E-01  0.65773868026E-01  0.51100000000E-03 0. -1.
         11    1    4    4    0    0  0.21932113094E-01 -0.55167551061E-01 -0.31923965478E-01  0.67408285601E-01  0.51100000000E-03 0.  1.
</event>
<event>
 8    1  0.1199892E+005  0.1043930E+01  0.7957747E-01            NaN
         13   -1    0    0    0    0  0.00000000000E+00  0.00000000000E+00  0.74505805969E-08  0.10566000000E+00  0.10566000000E+00 0.  1.
     999900   -1    0    0    0    0 -0.00000000000E+00 -0.00000000000E+00 -0.74505805969E-08  0.93827000000E+00  0.93827000000E+00 0. -1.
     999902    2    1    2    0    0  0.17674800798E-01  0.10581723763E-01  0.10288259848E-01  0.10209034989E+01  0.10206437843E+01 0.  0.
     999903    2    3    3    0    0  0.12819815019E+00 -0.23678966926E-01  0.19878727826E-01  0.13327678529E+00  0.19289336172E-01 0.  0.
         14    1    1    2    0    0 -0.17674800798E-01 -0.10581723763E-01 -0.10288259848E-01  0.23026501075E-01  0.00000000000E+00 0. -1.
     999901    1    3    3    0    0 -0.11052334939E+00  0.34260690689E-01 -0.95904679781E-02  0.88762671364E+00  0.88000000000E+00 0.  1.
        -11    1    4    4    0    0  0.42749138448E-01 -0.31524454209E-02  0.14410183227E-01  0.45225449161E-01  0.51100000000E-03 0. -1.
         11    1    4    4    0    0  0.85449011741E-01 -0.20526521505E-01  0.54685445998E-02  0.88051336127E-01  0.51100000000E-03 0.  1.
</event>
<event>
 8    1  0.1199892E+005  0.1043930E+01  0.7957747E-01            NaN
         13   -1    0    0    0    0  0.00000000000E+00  0.00000000000E+00  0.74505805969E-08  0.10566000000E+00  0.10566000000E+00 0. -1.
     999900   -1    0    0    0    0 -0.00000000000E+00 -0.00000000000E+00 -0.74505805969E-08  0.93827000000E+00  0.93827000000E+00 0. -1.
     999902    2    1    2    0    0 -0.13711342130E-01 -0.12210001639E-01 -0.18856144788E-01  0.10176119598E+01  0.10172715771E+01 0.  0.
     999903    2    3    3    0    0 -0.12711566955E+00  0.71499698494E-02  0.12435527219E-01  0.12957225422E+00  0.20610948822E-01 0.  0.
         14    1    1    2    0    0  0.13711342130E-01  0.12210001639E-01  0.18856144788E-01  0.26318040187E-01  0.00000000000E+00 0.  1.
     999901    1    3    3    0    0  0.11340432742E+00 -0.19359971489E-01 -0.31291672008E-01  0.88803970559E+00  0.88000000000E+00 0. -1.
        -11    1    4    4    0    0 -0.74917945207E-01  0.14039657559E-01  0.98278554737E-02  0.76854787506E-01  0.51100000000E-03 0.  1.
         11    1    4    4    0    0 -0.52197724346E-01 -0.68896877099E-02  0.26076717457E-02  0.52717466713E-01  0.51100000000E-03 0. -1.
</event>
<event>
 8    1  0.1199892E+005  0.1043930E+01  0.7957747E-01            NaN
         13   -1    0    0    0    0  0.00000000000E+00  0.00000000000E+00  0.74505805969E-08  0.10566000000E+00  0.10566000000E+00 0. -1.
     999900   -1    0    0    0    0 -0.00000000000E+00 -0.00000000000E+00 -0.74505805969E-08  0.93827000000E+00  0.93827000000E+00 0. -1.
     999902    2    1    2    0    0 -0.17450637179E-01 -0.12549744654E-01  0.10515606041E-01  0.10200009633E+01  0.10197202392E+01 0.  0.
     999903    2    3    3    0    0 -0.10834298212E+00 -0.73855771633E-01 -0.71952105010E-02  0.13302096330E+00  0.21211526208E-01 0.  0.
         14    1    1    2    0    0  0.17450637179E-01  0.12549744654E-01 -0.10515606041E-01  0.23929036739E-01  0.00000000000E+00 0.  1.
     999901    1    3    3    0    0  0.90892344942E-01  0.61306026979E-01  0.17710816542E-01  0.88697999996E+00  0.88000000000E+00 0. -1.
        -11    1    4    4    0    0 -0.34487818769E-01 -0.35738681609E-01 -0.43703130133E-02  0.49860041751E-01  0.51100000000E-03 0. -1.
         11    1    4    4    0    0 -0.73855163352E-01 -0.38117090025E-01 -0.28248974877E-02  0.83160921546E-01  0.51100000000E-03 0.  1.
</event>
<event>
 8    1  0.1199892E+005  0.1043930E+01  0.7957747E-01            NaN
         13   -1    0    0    0    0  0.00000000000E+00  0.00000000000E+00  0.74505805969E-08  0.10566000000E+00  0.10566000000E+00 0.  1.
     999900   -1    0    0    0    0 -0.00000000000E+00 -0.00000000000E+00 -0.74505805969E-08  0.93827000000E+00  0.93827000000E+00 0.  1.
     999902    2    1    2    0    0  0.18378154555E-01  0.68056655570E-02  0.80662736982E-02  0.10227371139E+01  0.10225175137E+01 0.  0.
     999903    2    3    3    0    0 -0.77622531314E-01  0.92979950452E-01  0.49410198131E-01  0.13237120086E+00  0.20254347319E-01 0.  0.
         14    1    1    2    0    0 -0.18378154555E-01 -0.68056655570E-02 -0.80662736982E-02  0.21192886068E-01  0.00000000000E+00 0. -1.
     999901    1    3    3    0    0  0.96000685869E-01 -0.86174284895E-01 -0.41343924432E-01  0.89036591307E+00  0.88000000000E+00 0. -1.
        -11    1    4    4    0    0 -0.73739763096E-01  0.79313139548E-01  0.40669387013E-01  0.11568226713E+00  0.51100000000E-03 0. -1.
         11    1    4    4    0    0 -0.38827682176E-02  0.13666810904E-01  0.87408111176E-02  0.16688933738E-01  0.51100000000E-03 0.  1.
</event>
<event>
 8    1  0.1199892E+005  0.1043930E+01  0.7957747E-01            NaN
         13   -1    0    0    0    0  0.00000000000E+00  0.00000000000E+00  0.74505805969E-08  0.10566000000E+00  0.10566000000E+00 0.  1.
     999900   -1    0    0    0    0 -0.00000000000E+00 -0.00000000000E+00 -0.74505805969E-08  0.93827000000E+00  0.93827000000E+00 0.  1.
     999902    2    1    2    0    0 -0.27751858395E-02  0.17013813897E-01 -0.16974776062E-01  0.10197367253E+01  0.10194496919E+01 0.  0.
     999903    2    3    3    0    0  0.47406522922E-02 -0.73618772280E-01 -0.10578551587E+00  0.13060338262E+00  0.20602688384E-01 0.  0.
         14    1    1    2    0    0  0.27751858395E-02 -0.17013813897E-01  0.16974776062E-01  0.24193274729E-01  0.00000000000E+00 0.  1.
     999901    1    3    3    0    0 -0.75158381316E-02  0.90632586177E-01  0.88810739810E-01  0.88913334265E+00  0.88000000000E+00 0.  1.
        -11    1    4    4    0    0  0.22786328663E-02 -0.36063872355E-01 -0.69435300713E-01  0.78277181625E-01  0.51100000000E-03 0.  1.
         11    1    4    4    0    0  0.24620194259E-02 -0.37554899925E-01 -0.36350215159E-01  0.52326201000E-01  0.51100000000E-03 0. -1.
</event>
<event>
 8    1  0.1199892E+005  0.1043930E+01  0.7957747E-01            NaN
         13   -1    0    0    0    0  0.00000000000E+00  0.00000000000E+00  0.74505805969E-08  0.10566000000E+00  0.10566000000E+00 0.  1.
     999900   -1    0    0    0    0 -0.00000000000E+00 -0.00000000000E+00 -0.74505805969E-08  0.93827000000E+00  0.93827000000E+00 0.  1.
     999902    2    1    2    0    0  0.89421494876E-03 -0.18132735360E-01  0.14253918539E-01  0.10208481910E+01  0.10205872129E+01 0.  0.
     999903    2    3    3    0    0  0.44972038583E-01 -0.15296407512E-01  0.12267827446E+00  0.13309442998E+00  0.20191679693E-01 0.  0.
         14    1    1    2    0    0 -0.89421494876E-03  0.18132735360E-01 -0.14253918539E-01  0.23081808979E-01  0.00000000000E+00 0. -1.
     999901    1    3    3    0    0 -0.44077823634E-01 -0.28363278481E-02 -0.10842435592E+00  0.88775376104E+00  0.88000000000E+00 0.  1.
        -11    1    4    4    0    0  0.29414390456E-01 -0.12555059894E-01  0.55272450505E-01  0.63860322586E-01  0.51100000000E-03 0. -1.
         11    1    4    4    0    0  0.15557648127E-01 -0.27413476174E-02  0.67405823956E-01  0.69234107391E-01  0.51100000000E-03 0.  1.
</event>
<event>
 8    1  0.1199892E+005  0.1043930E+01  0.7957747E-01            NaN
         13   -1    0    0    0    0  0.00000000000E+00  0.00000000000E+00  0.74505805969E-08  0.10566000000E+00  0.10566000000E+00 0. -1.
     999900   -1    0    0    0    0 -0.00000000000E+00 -0.00000000000E+00 -0.74505805969E-08  0.93827000000E+00  0.93827000000E+00 0.  1.
     999902    2    1    2    0    0  0.89491356837E-02  0.21969861926E-01 -0.60588198041E-02  0.10194458999E+01  0.10191518393E+01 0.  0.
     999903    2    3    3    0    0  0.41520543122E-01  0.10831952110E+00 -0.61626390108E-01  0.13287671751E+00  0.20033370792E-01 0.  0.
         14    1    1    2    0    0 -0.89491356837E-02 -0.21969861926E-01  0.60588198041E-02  0.24484100146E-01  0.00000000000E+00 0.  1.
     999901    1    3    3    0    0 -0.32571407438E-01 -0.86349659172E-01  0.55567570304E-01  0.88656918235E+00  0.88000000000E+00 0. -1.
        -11    1    4    4    0    0  0.12166516627E-01  0.54416022479E-01 -0.35928407632E-01  0.66334299010E-01  0.51100000000E-03 0. -1.
         11    1    4    4    0    0  0.29354026494E-01  0.53903498619E-01 -0.25697982476E-01  0.66542418495E-01  0.51100000000E-03 0.  1.
</event>
<event>
 8    1  0.1309445E+005  0.1043930E+01  0.7957747E-01            NaN
         13   -1    0    0    0    0  0.00000000000E+00  0.00000000000E+00  0.74505805969E-08  0.10566000000E+00  0.10566000000E+00 0.  1.
     999900   -1    0    0    0    0 -0.00000000000E+00 -0.00000000000E+00 -0.74505805969E-08  0.93827000000E+00  0.93827000000E+00 0.  1.
     999902    2    1    2    0    0 -0.19749872876E-01  0.50029097742E-02 -0.27279166532E-01  0.10098823935E+01  0.10093082825E+01 0.  0.
     999903    2    3    3    0    0 -0.59004082231E-01 -0.14206577233E-01 -0.10765947426E+00  0.12513898929E+00  0.19644227803E-01 0.  0.
         14    1    1    2    0    0  0.19749872876E-01 -0.50029097742E-02  0.27279166532E-01  0.34047606546E-01  0.00000000000E+00 0.  1.
     999901    1    3    3    0    0  0.39254209355E-01  0.19209487007E-01  0.80380307727E-01  0.88474340417E+00  0.88000000000E+00 0. -1.
        -11    1    4    4    0    0 -0.36099225021E-01 -0.67515581341E-03 -0.50411801716E-01  0.62009844023E-01  0.51100000000E-03 0.  1.
         11    1    4    4    0    0 -0.22904857210E-01 -0.13531421419E-01 -0.57247672543E-01  0.63129145266E-01  0.51100000000E-03 0. -1.
</event>
<event>
 8    1  0.1199892E+005  0.1043930E+01  0.7957747E-01            NaN
         13   -1    0    0    0    0  0.00000000000E+00  0.00000000000E+00  0.74505805969E-08  0.10566000000E+00  0.10566000000E+00 0.  1.
     999900   -1    0    0    0    0 -0.00000000000E+00 -0.00000000000E+00 -0.74505805969E-08  0.93827000000E+00  0.93827000000E+00 0.  1.
     999902    2    1    2    0    0 -0.14322526255E-01  0.12622701396E-01 -0.13877243297E-01  0.10203281943E+01  0.10200551843E+01 0.  0.
     999903    2    3    3    0    0 -0.90145625969E-02  0.50762923143E-01  0.11741263937E+00  0.12975540996E+00  0.19814182401E-01 0.  0.
         14    1    1    2    0    0  0.14322526255E-01 -0.12622701396E-01  0.13877243297E-01  0.23601805659E-01  0.00000000000E+00 0. -1.
     999901    1    3    3    0    0 -0.53079636577E-02 -0.38140221747E-01 -0.13128988267E+00  0.89057278438E+00  0.88000000000E+00 0.  1.
        -11    1    4    4    0    0 -0.12943209329E-01  0.38081126384E-01  0.72406270297E-01  0.82828907718E-01  0.51100000000E-03 0. -1.
         11    1    4    4    0    0  0.39286467316E-02  0.12681796759E-01  0.45006369074E-01  0.46926502239E-01  0.51100000000E-03 0.  1.
</event>
<event>
 8    1  0.1199892E+005  0.1043930E+01  0.7957747E-01            NaN
         13   -1    0    0    0    0  0.00000000000E+00  0.00000000000E+00  0.74505805969E-08  0.10566000000E+00  0.10566000000E+00 0. -1.
     999900   -1    0    0    0    0 -0.00000000000E+00 -0.00000000000E+00 -0.74505805969E-08  0.93827000000E+00  0.93827000000E+00 0.  1.
     999902    2    1    2    0    0 -0.19690389732E-01 -0.11072139485E-01 -0.19663221746E-02  0.10212546799E+01  0.10210029143E+01 0.  0.
     999903    2    3    3    0    0  0.11891832565E+00 -0.40957294933E-01 -0.24181595832E-01  0.12962750616E+00  0.19986810476E-01 0.  0.
         14    1    1    2    0    0  0.19690389732E-01  0.11072139485E-01  0.19663221746E-02  0.22675320140E-01  0.00000000000E+00 0. -1.
     999901    1    3    3    0    0 -0.13860871538E+00  0.29885155448E-01  0.22215273657E-01  0.89162717370E+00  0.88000000000E+00 0. -1.
        -11    1    4    4    0    0  0.45621884851E-01 -0.25195983733E-01 -0.13988008010E-01  0.53964057138E-01  0.51100000000E-03 0.  1.
         11    1    4    4    0    0  0.73296440798E-01 -0.15761311200E-01 -0.10193587822E-01  0.75663449023E-01  0.51100000000E-03 0. -1.
</event>
<event>
 8    1  0.1199892E+005  0.1043930E+01  0.7957747E-01            NaN
         13   -1    0    0    0    0  0.00000000000E+00  0.00000000000E+00  0.74505805969E-08  0.10566000000E+00  0.10566000000E+00 0.  1.
     999900   -1    0    0    0    0 -0.00000000000E+00 -0.00000000000E+00 -0.74505805969E-08  0.93827000000E+00  0.93827000000E+00 0.  1.
     999902    2    1    2    0    0  0.11126419913E-01 -0.59255738915E-02  0.20424467175E-01  0.10199285728E+01  0.10196461274E+01 0.  0.
     999903    2    3    3    0    0  0.20756706420E-01  0.90608516975E-01  0.91337126526E-01  0.13176182140E+00  0.19441262488E-01 0.  0.
         14    1    1    2    0    0 -0.11126419913E-01  0.59255738915E-02 -0.20424467175E-01  0.24001427153E-01  0.00000000000E+00 0. -1.
     999901    1    3    3    0    0 -0.96302865070E-02 -0.96534090866E-01 -0.70912659351E-01  0.88816675145E+00  0.88000000000E+00 0.  1.
        -11    1    4    4    0    0  0.54242822999E-02  0.53333443298E-01  0.61656289482E-01  0.81704578612E-01  0.51100000000E-03 0.  1.
         11    1    4    4    0    0  0.15332424120E-01  0.37275073676E-01  0.29680837044E-01  0.50057242788E-01  0.51100000000E-03 0. -1.
</event>
<event>
 8    1  0.1199892E+005  0.1043930E+01  0.7957747E-01            NaN
         13   -1    0    0    0    0  0.00000000000E+00  0.00000000000E+00  0.74505805969E-08  0.10566000000E+00  0.10566000000E+00 0.  1.
     999900   -1    0    0    0    0 -0.00000000000E+00 -0.00000000000E+00 -0.74505805969E-08  0.93827000000E+00  0.93827000000E+00 0.  1.
     999902    2    1    2    0    0 -0.19600591281E-01 -0.12526412027E-01 -0.27626483939E-02  0.10205050901E+01  0.10202362043E+01 0.  0.
     999903    2    3    3    0    0 -0.11864005802E+00  0.45196814157E-01  0.30329548835E-01  0.13245335720E+00  0.22489884952E-01 0.  0.
         14    1    1    2    0    0  0.19600591281E-01  0.12526412027E-01  0.27626483939E-02  0.23424909882E-01  0.00000000000E+00 0.  1.
     999901    1    3    3    0    0  0.99039466739E-01 -0.57723226184E-01 -0.33092197229E-01  0.88805173291E+00  0.88000000000E+00 0.  1.
        -11    1    4    4    0    0 -0.11432690538E+00  0.39409675541E-01  0.31862695556E-01  0.12505701223E+00  0.51100000000E-03 0. -1.
         11    1    4    4    0    0 -0.43131526434E-02  0.57871386158E-02 -0.15331467205E-02  0.73963449724E-02  0.51100000000E-03 0.  1.
</event>
<event>
 8    1  0.1199892E+005  0.1043930E+01  0.7957747E-01            NaN
         13   -1    0    0    0    0  0.00000000000E+00  0.00000000000E+00  0.74505805969E-08  0.10566000000E+00  0.10566000000E+00 0. -1.
     999900   -1    0    0    0    0 -0.00000000000E+00 -0.00000000000E+00 -0.74505805969E-08  0.93827000000E+00  0.93827000000E+00 0.  1.
     999902    2    1    2    0    0 -0.10170963905E-01 -0.21301994899E-01  0.27899689446E-02  0.10201601153E+01  0.10198831567E+01 0.  0.
     999903    2    3    3    0    0 -0.36639682374E-01 -0.11977392780E+00 -0.40631846871E-01  0.13320872499E+00  0.20133487751E-01 0.  0.
         14    1    1    2    0    0  0.10170963905E-01  0.21301994899E-01 -0.27899689446E-02  0.23769884731E-01  0.00000000000E+00 0.  1.
     999901    1    3    3    0    0  0.26468718469E-01  0.98471932899E-01  0.43421815816E-01  0.88695139028E+00  0.88000000000E+00 0. -1.
        -11    1    4    4    0    0 -0.37784628705E-01 -0.11224853389E+00 -0.34330219164E-01  0.12331357020E+00  0.51100000000E-03 0. -1.
         11    1    4    4    0    0  0.11449463304E-02 -0.75253939084E-02 -0.63016277074E-02  0.98951547910E-02  0.51100000000E-03 0.  1.
</event>
<event>
 8    1  0.1199892E+005  0.1043930E+01  0.7957747E-01            NaN
         13   -1    0    0    0    0  0.00000000000E+00  0.00000000000E+00  0.74505805969E-08  0.10566000000E+00  0.10566000000E+00 0. -1.
     999900   -1    0    0    0    0 -0.00000000000E+00 -0.00000000000E+00 -0.74505805969E-08  0.93827000000E+00  0.93827000000E+00 0.  1.
     999902    2    1    2    0    0 -0.17464811410E-01 -0.15713524711E-02  0.15865905985E-01  0.10202822568E+01  0.10200081704E+01 0.  0.
     999903    2    3    3    0    0 -0.15240324194E-01 -0.11244579501E-02  0.13085666898E+00  0.13279815911E+00  0.16683865272E-01 0.  0.
         14    1    1    2    0    0  0.17464811410E-01  0.15713524711E-02 -0.15865905985E-01  0.23647743209E-01  0.00000000000E+00 0.  1.
     999901    1    3    3    0    0 -0.22244872158E-02 -0.44689452104E-03 -0.11499076299E+00  0.88748409768E+00  0.88000000000E+00 0.  1.
        -11    1    4    4    0    0 -0.12501711185E-01 -0.53859510745E-02  0.12039707498E+00  0.12116525094E+00  0.51100000000E-03 0. -1.
         11    1    4    4    0    0 -0.27386130095E-02  0.42614931244E-02  0.10459594001E-01  0.11632908172E-01  0.51100000000E-03 0.  1.
</event>
<event>
 8    1  0.1199892E+005  0.1043930E+01  0.7957747E-01            NaN
         13   -1    0    0    0    0  0.00000000000E+00  0.00000000000E+00  0.74505805969E-08  0.10566000000E+00  0.10566000000E+00 0.  1.
     999900   -1    0    0    0    0 -0.00000000000E+00 -0.00000000000E+00 -0.74505805969E-08  0.93827000000E+00  0.93827000000E+00 0. -1.
     999902    2    1    2    0    0  0.15581608716E-01 -0.17334303667E-01 -0.52599520083E-02  0.10200358227E+01  0.10197559256E+01 0.  0.
     999903    2    3    3    0    0  0.80385618589E-01  0.77411562785E-01  0.63419423962E-01  0.12992729247E+00  0.20116666312E-01 0.  0.
         14    1    1    2    0    0 -0.15581608716E-01  0.17334303667E-01  0.52599520083E-02  0.23894177302E-01  0.00000000000E+00 0.  1.
     999901    1    3    3    0    0 -0.64804009873E-01 -0.94745866452E-01 -0.68679375970E-01  0.89010853023E+00  0.88000000000E+00 0.  1.
        -11    1    4    4    0    0  0.75190317487E-01  0.70505858298E-01  0.51585069660E-01  0.11526465387E+00  0.51100000000E-03 0. -1.
         11    1    4    4    0    0  0.51953011021E-02  0.69057044869E-02  0.11834354302E-01  0.14662638601E-01  0.51100000000E-03 0.  1.
</event>
<event>
 8    1  0.1199892E+005  0.1043930E+01  0.7957747E-01            NaN
         13   -1    0    0    0    0  0.00000000000E+00  0.00000000000E+00  0.74505805969E-08  0.10566000000E+00  0.10566000000E+00 0. -1.
     999900   -1    0    0    0    0 -0.00000000000E+00 -0.00000000000E+00 -0.74505805969E-08  0.93827000000E+00  0.93827000000E+00 0.  1.
     999902    2    1    2    0    0 -0.11441780252E-01  0.29858570156E-03 -0.20869233366E-01  0.10201281431E+01  0.10198504302E+01 0.  0.
     999903    2    3    3    0    0 -0.75116084601E-01  0.80053789478E-01  0.66498575625E-01  0.12993240982E+00  0.20232033682E-01 0.  0.
         14    1    1    2    0    0  0.11441780252E-01 -0.29858570156E-03  0.20869233366E-01  0.23801856862E-01  0.00000000000E+00 0. -1.
     999901    1    3    3    0    0  0.63674304349E-01 -0.79755203776E-01 -0.87367808991E-01  0.89019573331E+00  0.88000000000E+00 0.  1.
        -11    1    4    4    0    0 -0.45141397719E-01  0.38596256516E-01  0.26726582934E-01  0.65130547068E-01  0.51100000000E-03 0. -1.
         11    1    4    4    0    0 -0.29974686881E-01  0.41457532962E-01  0.39771992691E-01  0.64801862755E-01  0.51100000000E-03 0.  1.
</event>
<event>
 8    1  0.1199892E+005  0.1043930E+01  0.7957747E-01            NaN
         13   -1    0    0    0    0  0.00000000000E+00  0.00000000000E+00  0.74505805969E-08  0.10566000000E+00  0.10566000000E+00 0. -1.
     999900   -1    0    0    0    0 -0.00000000000E+00 -0.00000000000E+00 -0.74505805969E-08  0.93827000000E+00  0.93827000000E+00 0. -1.
     999902    2    1    2    0    0 -0.95711030291E-03  0.21652020973E-01  0.44619065233E-02  0.10218023096E+01  0.10215626879E+01 0.  0.
     999903    2    3    3    0    0 -0.31758974120E-01 -0.10033181777E+00  0.74571266692E-01  0.13009376187E+00  0.16982548906E-01 0.  0.
         14    1    1    2    0    0  0.95711030291E-03 -0.21652020973E-01 -0.44619065233E-02  0.22127690393E-01  0.00000000000E+00 0. -1.
     999901    1    3    3    0    0  0.30801863817E-01  0.12198383874E+00 -0.70109360169E-01  0.89170854774E+00  0.88000000000E+00 0.  1.
        -11    1    4    4    0    0 -0.31116068572E-01 -0.80361484391E-01  0.55736521875E-01  0.10263039944E+00  0.51100000000E-03 0. -1.
         11    1    4    4    0    0 -0.64290554812E-03 -0.19970333375E-01  0.18834744817E-01  0.27463362430E-01  0.51100000000E-03 0.  1.
</event>
<event>
 8    1  0.1199892E+005  0.1043930E+01  0.7957747E-01            NaN
         13   -1    0    0    0    0  0.00000000000E+00  0.00000000000E+00  0.74505805969E-08  0.10566000000E+00  0.10566000000E+00 0. -1.
     999900   -1    0    0    0    0 -0.00000000000E+00 -0.00000000000E+00 -0.74505805969E-08  0.93827000000E+00  0.93827000000E+00 0.  1.
     999902    2    1    2    0    0 -0.78841311710E-02  0.15208368324E-01  0.15715403569E-01  0.10206828948E+01  0.10204181221E+01 0.  0.
     999903    2    3    3    0    0 -0.89056003218E-01  0.95726295945E-01 -0.11635183780E-01  0.13286530986E+00  0.20574683911E-01 0.  0.
         14    1    1    2    0    0  0.78841311710E-02 -0.15208368324E-01 -0.15715403569E-01  0.23247105212E-01  0.00000000000E+00 0.  1.
     999901    1    3    3    0    0  0.81171872047E-01 -0.80517927621E-01  0.27350587349E-01  0.88781758493E+00  0.88000000000E+00 0.  1.
        -11    1    4    4    0    0 -0.24053925591E-01  0.14635228207E-01  0.94867149447E-03  0.28176982443E-01  0.51100000000E-03 0. -1.
         11    1    4    4    0    0 -0.65002077627E-01  0.81091067738E-01 -0.12583855274E-01  0.10468832742E+00  0.51100000000E-03 0.  1.
</event>
<event>
 8    1  0.1199892E+005  0.1043930E+01  0.7957747E-01            NaN
         13   -1    0    0    0    0  0.00000000000E+00  0.00000000000E+00  0.74505805969E-08  0.10566000000E+00  0.10566000000E+00 0.  1.
     999900   -1    0    0    0    0 -0.00000000000E+00 -0.00000000000E+00 -0.74505805969E-08  0.93827000000E+00  0.93827000000E+00 0.  1.
     999902    2    1    2    0    0  0.36484131722E-02 -0.87970148804E-02 -0.20230147877E-01  0.10215702757E+01  0.10213255460E+01 0.  0.
     999903    2    3    3    0    0  0.67670925964E-01  0.10130368267E+00 -0.46478053634E-01  0.13201420755E+00  0.20633738948E-01 0.  0.
         14    1    1    2    0    0 -0.36484131722E-02  0.87970148804E-02  0.20230147877E-01  0.22359724341E-01  0.00000000000E+00 0.  1.
     999901    1    3    3    0    0 -0.64022512791E-01 -0.11010069755E+00  0.26247905757E-01  0.88955606810E+00  0.88000000000E+00 0.  1.
        -11    1    4    4    0    0  0.89978019864E-02  0.26743357810E-01 -0.15549482847E-01  0.32221346424E-01  0.51100000000E-03 0. -1.
         11    1    4    4    0    0  0.58673123977E-01  0.74560324862E-01 -0.30928570787E-01  0.99792861131E-01  0.51100000000E-03 0.  1.
</event>
<event>
 8    1  0.1199892E+005  0.1043930E+01  0.7957747E-01            NaN
         13   -1    0    0    0    0  0.00000000000E+00  0.00000000000E+00  0.74505805969E-08  0.10566000000E+00  0.10566000000E+00 0.  1.
     999900   -1    0    0    0    0 -0.00000000000E+00 -0.00000000000E+00 -0.74505805969E-08  0.93827000000E+00  0.93827000000E+00 0.  1.
     999902    2    1    2    0    0  0.14518639645E-01 -0.93207395251E-02  0.16856250065E-01  0.10198094642E+01  0.10195241748E+01 0.  0.
     999903    2    3    3    0    0  0.46112141876E-01 -0.74637685319E-01  0.97954160928E-01  0.13310696393E+00  0.20623590970E-01 0.  0.
         14    1    1    2    0    0 -0.14518639645E-01  0.93207395251E-02 -0.16856250065E-01  0.24120535830E-01  0.00000000000E+00 0. -1.
     999901    1    3    3    0    0 -0.31593502231E-01  0.65316945794E-01 -0.81097910863E-01  0.88670250024E+00  0.88000000000E+00 0.  1.
        -11    1    4    4    0    0  0.41038455536E-01 -0.51039224669E-01  0.65182399455E-01  0.92402183997E-01  0.51100000000E-03 0.  1.
         11    1    4    4    0    0  0.50736863399E-02 -0.23598460650E-01  0.32771761473E-01  0.40704779931E-01  0.51100000000E-03 0. -1.
</event>
<event>
 7    1  0.1199892E+005  0.1043930E+01  0.7957747E-01            NaN
         13   -1    0    0    0    0  0.00000000000E+00  0.00000000000E+00  0.74505805969E-08  0.10566000000E+00  0.10566000000E+00 0.  1.
     999900   -1    0    0    0    0 -0.00000000000E+00 -0.00000000000E+00 -0.74505805969E-08  0.93827000000E+00  0.93827000000E+00 0. -1.
     999902    2    1    2    0    0 -0.26484795844E-02  0.12033760518E-01  0.19925555189E-01  0.10205023756E+01  0.10202334267E+01 0.  0.
         14    1    1    2    0    0  0.26484795844E-02 -0.12033760518E-01 -0.19925555189E-01  0.23427624419E-01  0.00000000000E+00 0. -1.
     999901    1    3    3    0    0  0.11345555065E+00 -0.16536332839E-01 -0.23679204653E-01  0.88775352267E+00  0.88000000000E+00 0. -1.
        -11    1    3    3    0    0 -0.27758990385E-01  0.78189594442E-02  0.28869689400E-01  0.40809530272E-01  0.51100000000E-03 0. -1.
         11    1    3    3    0    0 -0.88345039854E-01  0.20751133914E-01  0.14735070443E-01  0.91939322640E-01  0.51100000000E-03 0.  1.
</event>
<event>
 8    1  0.1199892E+005  0.1043930E+01  0.7957747E-01            NaN
         13   -1    0    0    0    0  0.00000000000E+00  0.00000000000E+00  0.74505805969E-08  0.10566000000E+00  0.10566000000E+00 0. -1.
     999900   -1    0    0    0    0 -0.00000000000E+00 -0.00000000000E+00 -0.74505805969E-08  0.93827000000E+00  0.93827000000E+00 0. -1.
     999902    2    1    2    0    0  0.16951954701E-01 -0.21430180015E-02 -0.16423080073E-01  0.10202302352E+01  0.10199549274E+01 0.  0.
     999903    2    3    3    0    0 -0.10485568835E+00  0.65459417446E-01 -0.31657159930E-01  0.12914142456E+00  0.19891733249E-01 0.  0.
         14    1    1    2    0    0 -0.16951954701E-01  0.21430180015E-02  0.16423080073E-01  0.23699764839E-01  0.00000000000E+00 0. -1.
     999901    1    3    3    0    0  0.12180764305E+00 -0.67602435448E-01  0.15234079857E-01  0.89108881060E+00  0.88000000000E+00 0. -1.
        -11    1    4    4    0    0 -0.11375791491E-01  0.93070104739E-02  0.23910310104E-02  0.14899906923E-01  0.51100000000E-03 0.  1.
         11    1    4    4    0    0 -0.93479896857E-01  0.56152406972E-01 -0.34048190941E-01  0.11424151764E+00  0.51100000000E-03 0. -1.
</event>
<event>
 8    1  0.1199892E+005  0.1043930E+01  0.7957747E-01            NaN
         13   -1    0    0    0    0  0.00000000000E+00  0.00000000000E+00  0.74505805969E-08  0.10566000000E+00  0.10566000000E+00 0. -1.
     999900   -1    0    0    0    0 -0.00000000000E+00 -0.00000000000E+00 -0.74505805969E-08  0.93827000000E+00  0.93827000000E+00 0.  1.
     999902    2    1    2    0    0 -0.19057093343E-01  0.88675832795E-03  0.23477880947E-01  0.10136782225E+01  0.10132267114E+01 0.  0.
     999903    2    3    3    0    0 -0.12922946984E-01 -0.68660609234E-01 -0.98623985390E-01  0.12250858106E+00  0.20009500770E-01 0.  0.
         14    1    1    2    0    0  0.19057093343E-01 -0.88675832795E-03 -0.23477880947E-01  0.30251777482E-01  0.00000000000E+00 0.  1.
     999901    1    3    3    0    0 -0.61341463596E-02  0.69547367562E-01  0.12210186634E+00  0.89116964145E+00  0.88000000000E+00 0.  1.
        -11    1    4    4    0    0  0.14556131783E-02 -0.27267560548E-01 -0.26124863128E-01  0.37794288754E-01  0.51100000000E-03 0. -1.
         11    1    4    4    0    0 -0.14378560162E-01 -0.41393048685E-01 -0.72499122262E-01  0.84714292310E-01  0.51100000000E-03 0.  1.
</event>
<event>
 8    1  0.1199892E+005  0.1043930E+01  0.7957747E-01            NaN
         13   -1    0    0    0    0  0.00000000000E+00  0.00000000000E+00  0.74505805969E-08  0.10566000000E+00  0.10566000000E+00 0.  1.
     999900   -1    0    0    0    0 -0.00000000000E+00 -0.00000000000E+00 -0.74505805969E-08  0.93827000000E+00  0.93827000000E+00 0. -1.
     999902    2    1    2    0    0 -0.16351350015E-01 -0.16976924880E-01 -0.14025243179E-01  0.10165020932E+01  0.10161319872E+01 0.  0.
     999903    2    3    3    0    0 -0.55268843372E-01 -0.80336277605E-01  0.80943010113E-01  0.12827467411E+00  0.19850908941E-01 0.  0.
         14    1    1    2    0    0  0.16351350015E-01  0.16976924880E-01  0.14025243179E-01  0.27427906809E-01  0.00000000000E+00 0.  1.
     999901    1    3    3    0    0  0.38917493356E-01  0.63359352725E-01 -0.94968253292E-01  0.88822741908E+00  0.88000000000E+00 0. -1.
        -11    1    4    4    0    0 -0.13329924777E-01 -0.14108371494E-01  0.73781752877E-02  0.20770932390E-01  0.51100000000E-03 0. -1.
         11    1    4    4    0    0 -0.41938918594E-01 -0.66227906111E-01  0.73564834826E-01  0.10750374172E+00  0.51100000000E-03 0.  1.
</event>
<event>
 8    1  0.1199892E+005  0.1043930E+01  0.7957747E-01            NaN
         13   -1    0    0    0    0  0.00000000000E+00  0.00000000000E+00  0.74505805969E-08  0.10566000000E+00  0.10566000000E+00 0.  1.
     999900   -1    0    0    0    0 -0.00000000000E+00 -0.00000000000E+00 -0.74505805969E-08  0.93827000000E+00  0.93827000000E+00 0. -1.
     999902    2    1    2    0    0  0.11359663435E-01  0.19135351824E-01 -0.72856191370E-02  0.10205145374E+01  0.10202458709E+01 0.  0.
     999903    2    3    3    0    0 -0.12603943219E+00  0.95533657244E-02 -0.20508906559E-01  0.12970300780E+00  0.20616733957E-01 0.  0.
         14    1    1    2    0    0 -0.11359663435E-01 -0.19135351824E-01  0.72856191370E-02  0.23415462605E-01  0.00000000000E+00 0. -1.
     999901    1    3    3    0    0  0.13739909563E+00  0.95819860999E-02  0.13223287422E-01  0.89081152960E+00  0.88000000000E+00 0.  1.
        -11    1    4    4    0    0 -0.19582814820E-01  0.90304130718E-02 -0.22246292652E-02  0.21685135298E-01  0.51100000000E-03 0.  1.
         11    1    4    4    0    0 -0.10645661737E+00  0.52295265264E-03 -0.18284277294E-01  0.10801787250E+00  0.51100000000E-03 0. -1.
</event>
<event>
 8    1  0.1199892E+005  0.1043930E+01  0.7957747E-01            NaN
         13   -1    0    0    0    0  0.00000000000E+00  0.00000000000E+00  0.74505805969E-08  0.10566000000E+00  0.10566000000E+00 0. -1.
     999900   -1    0    0    0    0 -0.00000000000E+00 -0.00000000000E+00 -0.74505805969E-08  0.93827000000E+00  0.93827000000E+00 0. -1.
     999902    2    1    2    0    0  0.14141235173E-01  0.17357887770E-01  0.68547617093E-02  0.10205150783E+01  0.10202464244E+01 0.  0.
     999903    2    3    3    0    0 -0.36940233495E-01  0.12332801879E+00  0.24320435362E-01  0.13251505867E+00  0.19858905493E-01 0.  0.
         14    1    1    2    0    0 -0.14141235173E-01 -0.17357887770E-01 -0.68547617093E-02  0.23414921699E-01  0.00000000000E+00 0.  1.
     999901    1    3    3    0    0  0.51081468668E-01 -0.10597013103E+00 -0.17465673652E-01  0.88800001963E+00  0.88000000000E+00 0. -1.
        -11    1    4    4    0    0 -0.86781190400E-02  0.63150926879E-01  0.13383382998E-01  0.65136206346E-01  0.51100000000E-03 0. -1.
         11    1    4    4    0    0 -0.28262114455E-01  0.60177091916E-01  0.10937052364E-01  0.67378852323E-01  0.51100000000E-03 0.  1.
</event>
<event>
 8    1  0.1199892E+005  0.1043930E+01  0.7957747E-01            NaN
         13   -1    0    0    0    0  0.00000000000E+00  0.00000000000E+00  0.74505805969E-08  0.10566000000E+00  0.10566000000E+00 0. -1.
     999900   -1    0    0    0    0 -0.00000000000E+00 -0.00000000000E+00 -0.74505805969E-08  0.93827000000E+00  0.93827000000E+00 0. -1.
     999902    2    1    2    0    0  0.15409798854E-01  0.11546900745E-01 -0.13247844662E-01  0.10205569770E+01  0.10202892948E+01 0.  0.
     999903    2    3    3    0    0  0.10688020770E+00  0.57897862815E-01  0.48563408843E-01  0.13244894388E+00  0.20218227876E-01 0.  0.
         14    1    1    2    0    0 -0.15409798854E-01 -0.11546900745E-01  0.13247844662E-01  0.23373023033E-01  0.00000000000E+00 0.  1.
     999901    1    3    3    0    0 -0.91470408848E-01 -0.46350962071E-01 -0.61811253504E-01  0.88810803309E+00  0.88000000000E+00 0. -1.
        -11    1    4    4    0    0  0.76030624161E-01  0.42869760977E-01  0.44246085517E-01  0.97859334869E-01  0.51100000000E-03 0.  1.
         11    1    4    4    0    0  0.30849583542E-01  0.15028101838E-01  0.43173233258E-02  0.34589609007E-01  0.51100000000E-03 0. -1.
</event>
<event>
 8    1  0.1199892E+005  0.1043930E+01  0.7957747E-01            NaN
         13   -1    0    0    0    0  0.00000000000E+00  0.00000000000E+00  0.74505805969E-08  0.10566000000E+00  0.10566000000E+00 0. -1.
     999900   -1    0    0    0    0 -0.00000000000E+00 -0.00000000000E+00 -0.74505805969E-08  0.93827000000E+00  0.93827000000E+00 0. -1.
     999902    2    1    2    0    0 -0.11793252902E-01 -0.15356809211E-02  0.18534840284E-01  0.10219077514E+01  0.10216704326E+01 0.  0.
     999903    2    3    3    0    0  0.82184725957E-01  0.74769912174E-01  0.69046051661E-01  0.13218544272E+00  0.18993816645E-01 0.  0.
         14    1    1    2    0    0  0.11793252902E-01  0.15356809211E-02 -0.18534840284E-01  0.22022248620E-01  0.00000000000E+00 0.  1.
     999901    1    3    3    0    0 -0.93977978859E-01 -0.76305593095E-01 -0.50511211377E-01  0.88972230866E+00  0.88000000000E+00 0. -1.
        -11    1    4    4    0    0  0.43297077287E-01  0.48853135786E-01  0.32894840770E-01  0.73099914145E-01  0.51100000000E-03 0.  1.
         11    1    4    4    0    0  0.38887648670E-01  0.25916776387E-01  0.36151210891E-01  0.59085528577E-01  0.51100000000E-03 0. -1.
</event>
<event>
 7    1  0.1199892E+005  0.1043930E+01  0.7957747E-01            NaN
         13   -1    0    0    0    0  0.00000000000E+00  0.00000000000E+00  0.74505805969E-08  0.10566000000E+00  0.10566000000E+00 0.  1.
     999900   -1    0    0    0    0 -0.00000000000E+00 -0.00000000000E+00 -0.74505805969E-08  0.93827000000E+00  0.93827000000E+00 0.  1.
     999902    2    1    2    0    0 -0.16617310400E-02  0.22037779227E-01 -0.81293867116E-02  0.10203819217E+01  0.10201101676E+01 0.  0.
         14    1    1    2    0    0  0.16617310400E-02 -0.22037779227E-01  0.81293867116E-02  0.23548078300E-01  0.00000000000E+00 0.  1.
     999901    1    3    3    0    0  0.11235161752E+00  0.56246434516E-01  0.28627055703E-01  0.88938521220E+00  0.88000000000E+00 0.  1.
        -11    1    3    3    0    0 -0.30777101217E-01 -0.27765045886E-01 -0.19199283382E-01  0.45683709741E-01  0.51100000000E-03 0. -1.
         11    1    3    3    0    0 -0.83236247345E-01 -0.64436094034E-02 -0.17557159032E-01  0.85312999762E-01  0.51100000000E-03 0.  1.
</event>
<event>
 8    1  0.1199892E+005  0.1043930E+01  0.7957747E-01            NaN
         13   -1    0    0    0    0  0.00000000000E+00  0.00000000000E+00  0.74505805969E-08  0.10566000000E+00  0.10566000000E+00 0.  1.
     999900   -1    0    0    0    0 -0.00000000000E+00 -0.00000000000E+00 -0.74505805969E-08  0.93827000000E+00  0.93827000000E+00 0.  1.
     999902    2    1    2    0    0  0.46617642581E-02 -0.18197537429E-01 -0.15524214257E-01  0.10195602720E+01  0.10192689854E+01 0.  0.
     999903    2    3    3    0    0  0.37545792667E-01  0.14165340755E-01 -0.12409915089E+00  0.13168796582E+00  0.18187294064E-01 0.  0.
         14    1    1    2    0    0 -0.46617642581E-02  0.18197537429E-01  0.15524214257E-01  0.24369728000E-01  0.00000000000E+00 0.  1.
     999901    1    3    3    0    0 -0.32884028409E-01 -0.32362878184E-01  0.10857493663E+00  0.88787230618E+00  0.88000000000E+00 0. -1.
        -11    1    4    4    0    0  0.12687161527E-02 -0.33853982232E-02 -0.13063402449E-01  0.13564076318E-01  0.51100000000E-03 0. -1.
         11    1    4    4    0    0  0.36277076515E-01  0.17550738978E-01 -0.11103574844E+00  0.11812388951E+00  0.51100000000E-03 0.  1.
</event>
<event>
 8    1  0.1199892E+005  0.1043930E+01  0.7957747E-01            NaN
         13   -1    0    0    0    0  0.00000000000E+00  0.00000000000E+00  0.74505805969E-08  0.10566000000E+00  0.10566000000E+00 0. -1.
     999900   -1    0    0    0    0 -0.00000000000E+00 -0.00000000000E+00 -0.74505805969E-08  0.93827000000E+00  0.93827000000E+00 0. -1.
     999902    2    1    2    0    0 -0.86331059990E-02 -0.23090813882E-01  0.10246383826E-02  0.10192568144E+01  0.10189581383E+01 0.  0.
     999903    2    3    3    0    0  0.92261228047E-01  0.70364901144E-01  0.48479781660E-01  0.12731195737E+00  0.19866850446E-01 0.  0.
         14    1    1    2    0    0  0.86331059990E-02  0.23090813882E-01 -0.10246383826E-02  0.24673185622E-01  0.00000000000E+00 0.  1.
     999901    1    3    3    0    0 -0.10089433405E+00 -0.93455715027E-01 -0.47455143277E-01  0.89194485700E+00  0.88000000000E+00 0.  1.
        -11    1    4    4    0    0  0.41370158355E-01  0.32874110005E-01  0.11509111353E-01  0.54082509891E-01  0.51100000000E-03 0. -1.
         11    1    4    4    0    0  0.50891069691E-01  0.37490791140E-01  0.36970670307E-01  0.73229447482E-01  0.51100000000E-03 0.  1.
</event>
<event>
 8    1  0.1199892E+005  0.1043930E+01  0.7957747E-01            NaN
         13   -1    0    0    0    0  0.00000000000E+00  0.00000000000E+00  0.74505805969E-08  0.10566000000E+00  0.10566000000E+00 0. -1.
     999900   -1    0    0    0    0 -0.00000000000E+00 -0.00000000000E+00 -0.74505805969E-08  0.93827000000E+00  0.93827000000E+00 0.  1.
     999902    2    1    2    0    0 -0.20356676796E-01  0.29821771288E-01 -0.39654183484E-02  0.10076056710E+01  0.10069507095E+01 0.  0.
     999903    2    3    3    0    0  0.25620121550E-01  0.13147724290E-01  0.11324644023E+00  0.11848784440E+00  0.19630582333E-01 0.  0.
         14    1    1    2    0    0  0.20356676796E-01 -0.29821771288E-01  0.39654183484E-02  0.36324328977E-01  0.00000000000E+00 0.  1.
     999901    1    3    3    0    0 -0.45976798346E-01  0.16674046998E-01 -0.11721185858E+00  0.88911782662E+00  0.88000000000E+00 0.  1.
        -11    1    4    4    0    0  0.20694117845E-01 -0.56018578906E-04  0.64250556406E-01  0.67502924166E-01  0.51100000000E-03 0. -1.
         11    1    4    4    0    0  0.49260037054E-02  0.13203742869E-01  0.48995883826E-01  0.50984920233E-01  0.51100000000E-03 0.  1.
</event>
<event>
 8    1  0.1199892E+005  0.1043930E+01  0.7957747E-01            NaN
         13   -1    0    0    0    0  0.00000000000E+00  0.00000000000E+00  0.74505805969E-08  0.10566000000E+00  0.10566000000E+00 0. -1.
     999900   -1    0    0    0    0 -0.00000000000E+00 -0.00000000000E+00 -0.74505805969E-08  0.93827000000E+00  0.93827000000E+00 0.  1.
     999902    2    1    2    0    0  0.17494586409E-01  0.11161393082E-01  0.68175229372E-02  0.10220870179E+01  0.10218535885E+01 0.  0.
     999903    2    3    3    0    0  0.85147343692E-01 -0.96513819230E-01 -0.23410277845E-01  0.13243283402E+00  0.20625881233E-01 0.  0.
         14    1    1    2    0    0 -0.17494586409E-01 -0.11161393082E-01 -0.68175229372E-02  0.21842982126E-01  0.00000000000E+00 0. -1.
     999901    1    3    3    0    0 -0.67652757284E-01  0.10767521231E+00  0.30227800782E-01  0.88965418386E+00  0.88000000000E+00 0.  1.
        -11    1    4    4    0    0  0.50694514992E-01 -0.71946674930E-01 -0.14864563577E-01  0.89260709470E-01  0.51100000000E-03 0. -1.
         11    1    4    4    0    0  0.34452828700E-01 -0.24567144300E-01 -0.85457142687E-02  0.43172124546E-01  0.51100000000E-03 0.  1.
</event>
<event>
 8    1  0.1199892E+005  0.1043930E+01  0.7957747E-01            NaN
         13   -1    0    0    0    0  0.00000000000E+00  0.00000000000E+00  0.74505805969E-08  0.10566000000E+00  0.10566000000E+00 0. -1.
     999900   -1    0    0    0    0 -0.00000000000E+00 -0.00000000000E+00 -0.74505805969E-08  0.93827000000E+00  0.93827000000E+00 0. -1.
     999902    2    1    2    0    0 -0.13628042620E-01  0.97703732727E-02 -0.16177071785E-01  0.10206301847E+01  0.10203641961E+01 0.  0.
     999903    2    3    3    0    0 -0.85547500158E-01 -0.75657128426E-01 -0.64784422920E-01  0.13224235220E+00  0.15768398711E-01 0.  0.
         14    1    1    2    0    0  0.13628042620E-01 -0.97703732727E-02  0.16177071785E-01  0.23299815259E-01  0.00000000000E+00 0.  1.
     999901    1    3    3    0    0  0.71919457538E-01  0.85427501698E-01  0.48607351135E-01  0.88838783254E+00  0.88000000000E+00 0. -1.
        -11    1    4    4    0    0 -0.62592914435E-01 -0.53360682650E-01 -0.38450038366E-01  0.90795935821E-01  0.51100000000E-03 0.  1.
         11    1    4    4    0    0 -0.22954585723E-01 -0.22296445776E-01 -0.26334384555E-01  0.41446416381E-01  0.51100000000E-03 0. -1.
</event>
<event>
 8    1  0.1199892E+005  0.1043930E+01  0.7957747E-01            NaN
         13   -1    0    0    0    0  0.00000000000E+00  0.00000000000E+00  0.74505805969E-08  0.10566000000E+00  0.10566000000E+00 0.  1.
     999900   -1    0    0    0    0 -0.00000000000E+00 -0.00000000000E+00 -0.74505805969E-08  0.93827000000E+00  0.93827000000E+00 0. -1.
     999902    2    1    2    0    0 -0.10911269365E-01 -0.17093441037E-01  0.32155105183E-02  0.10233975614E+01  0.10231915694E+01 0.  0.
     999903    2    3    3    0    0  0.25914924292E-01 -0.93984881383E-02 -0.12836631372E+00  0.13281957085E+00  0.20080164878E-01 0.  0.
         14    1    1    2    0    0  0.10911269365E-01  0.17093441037E-01 -0.32155105183E-02  0.20532438568E-01  0.00000000000E+00 0. -1.
     999901    1    3    3    0    0 -0.36826193657E-01 -0.76949528990E-02  0.13158182424E+00  0.89057799058E+00  0.88000000000E+00 0.  1.
        -11    1    4    4    0    0  0.28250281261E-01 -0.59241852126E-02 -0.98063007721E-01  0.10222420930E+00  0.51100000000E-03 0.  1.
         11    1    4    4    0    0 -0.23353569691E-02 -0.34743029257E-02 -0.30303306002E-01  0.30595361554E-01  0.51100000000E-03 0. -1.
</event>
<event>
 8    1  0.1199892E+005  0.1043930E+01  0.7957747E-01            NaN
         13   -1    0    0    0    0  0.00000000000E+00  0.00000000000E+00  0.74505805969E-08  0.10566000000E+00  0.10566000000E+00 0. -1.
     999900   -1    0    0    0    0 -0.00000000000E+00 -0.00000000000E+00 -0.74505805969E-08  0.93827000000E+00  0.93827000000E+00 0.  1.
     999902    2    1    2    0    0 -0.16210721226E-01 -0.42196023056E-02 -0.26552641268E-01  0.10125351711E+01  0.10120483374E+01 0.  0.
     999903    2    3    3    0    0  0.17772210769E-01  0.77219028076E-02 -0.12336274446E+00  0.12649361712E+00  0.20169015677E-01 0.  0.
         14    1    1    2    0    0  0.16210721226E-01  0.42196023056E-02  0.26552641268E-01  0.31394828947E-01  0.00000000000E+00 0. -1.
     999901    1    3    3    0    0 -0.33982931995E-01 -0.11941505113E-01  0.96810103192E-01  0.88604155393E+00  0.88000000000E+00 0. -1.
        -11    1    4    4    0    0  0.13925968297E-01  0.55806746572E-02 -0.35813220546E-01  0.38832002389E-01  0.51100000000E-03 0.  1.
         11    1    4    4    0    0  0.38462424720E-02  0.21412281504E-02 -0.87549523914E-01  0.87661614734E-01  0.51100000000E-03 0. -1.
</event>
<event>
 7    1  0.1199892E+005  0.1043930E+01  0.7957747E-01            NaN
         13   -1    0    0    0    0  0.00000000000E+00  0.00000000000E+00  0.74505805969E-08  0.10566000000E+00  0.10566000000E+00 0. -1.
     999900   -1    0    0    0    0 -0.00000000000E+00 -0.00000000000E+00 -0.74505805969E-08  0.93827000000E+00  0.93827000000E+00 0. -1.
     999902    2    1    2    0    0  0.11110224487E-01 -0.27539253432E-02  0.16511618200E-01  0.10238388395E+01  0.10236416925E+01 0.  0.
         14    1    1    2    0    0 -0.11110224487E-01  0.27539253432E-02 -0.16511618200E-01  0.20091160458E-01  0.00000000000E+00 0.  1.
     999901    1    3    3    0    0 -0.31734969960E-02 -0.12906441681E+00  0.31739484610E-01  0.88998600531E+00  0.88000000000E+00 0.  1.
        -11    1    3    3    0    0  0.24211438478E-01  0.80299694459E-01 -0.20908781121E-01  0.86438839258E-01  0.51100000000E-03 0.  1.
         11    1    3    3    0    0 -0.99277169944E-02  0.46010797009E-01  0.56809147112E-02  0.47413994971E-01  0.51100000000E-03 0. -1.
</event>
<event>
 8    1  0.1199892E+005  0.1043930E+01  0.7957747E-01            NaN
         13   -1    0    0    0    0  0.00000000000E+00  0.00000000000E+00  0.74505805969E-08  0.10566000000E+00  0.10566000000E+00 0.  1.
     999900   -1    0    0    0    0 -0.00000000000E+00 -0.00000000000E+00 -0.74505805969E-08  0.93827000000E+00  0.93827000000E+00 0. -1.
     999902    2    1    2    0    0  0.43615901433E-02 -0.10201423618E-01  0.19867792316E-01  0.10211743044E+01  0.10209207306E+01 0.  0.
     999903    2    3    3    0    0  0.80929466296E-01  0.57350240380E-01  0.86175154318E-01  0.13279232952E+00  0.19209814458E-01 0.  0.
         14    1    1    2    0    0 -0.43615901433E-02  0.10201423618E-01 -0.19867792316E-01  0.22755695637E-01  0.00000000000E+00 0. -1.
     999901    1    3    3    0    0 -0.76567876153E-01 -0.67551663998E-01 -0.66307362001E-01  0.88838197484E+00  0.88000000000E+00 0. -1.
        -11    1    4    4    0    0  0.65844968337E-01  0.36576467844E-01  0.62813450006E-01  0.98077461620E-01  0.51100000000E-03 0.  1.
         11    1    4    4    0    0  0.15084497959E-01  0.20773772536E-01  0.23361704311E-01  0.34714867901E-01  0.51100000000E-03 0. -1.
</event>
<event>
 8    1  0.1199892E+005  0.1043930E+01  0.7957747E-01            NaN
         13   -1    0    0    0    0  0.00000000000E+00  0.00000000000E+00  0.74505805969E-08  0.10566000000E+00  0.10566000000E+00 0. -1.
     999900   -1    0    0    0    0 -0.00000000000E+00 -0.00000000000E+00 -0.74505805969E-08  0.93827000000E+00  0.93827000000E+00 0. -1.
     999902    2    1    2    0    0  0.74693784153E-02  0.14890486656E-01  0.16873900479E-01  0.10202182577E+01  0.10199426683E+01 0.  0.
     999903    2    3    3    0    0  0.37109555922E-01 -0.52324834143E-01  0.11339949866E+00  0.13189757764E+00  0.20555225172E-01 0.  0.
         14    1    1    2    0    0 -0.74693784153E-02 -0.14890486656E-01 -0.16873900479E-01  0.23711742326E-01  0.00000000000E+00 0.  1.
     999901    1    3    3    0    0 -0.29640177507E-01  0.67215320799E-01 -0.96525598181E-01  0.88832068003E+00  0.88000000000E+00 0. -1.
        -11    1    4    4    0    0  0.31030065007E-01 -0.51403952892E-01  0.10854635774E+00  0.12404758848E+00  0.51100000000E-03 0.  1.
         11    1    4    4    0    0  0.60794909147E-02 -0.92088125151E-03  0.48531409200E-02  0.78499891624E-02  0.51100000000E-03 0. -1.
</event>
<event>
 8    1  0.1199892E+005  0.1043930E+01  0.7957747E-01            NaN
         13   -1    0    0    0    0  0.00000000000E+00  0.00000000000E+00  0.74505805969E-08  0.10566000000E+00  0.10566000000E+00 0.  1.
     999900   -1    0    0    0    0 -0.00000000000E+00 -0.00000000000E+00 -0.74505805969E-08  0.93827000000E+00  0.93827000000E+00 0. -1.
     999902    2    1    2    0    0 -0.13623337301E-01  0.19194052004E-01 -0.48979626537E-02  0.10198884320E+01  0.10196050298E+01 0.  0.
     999903    2    3    3    0    0 -0.25680083083E-01  0.50833287417E-01 -0.11741971789E+00  0.13207789385E+00  0.20339373567E-01 0.  0.
         14    1    1    2    0    0  0.13623337301E-01 -0.19194052004E-01  0.48979626537E-02  0.24041567955E-01  0.00000000000E+00 0.  1.
     999901    1    3    3    0    0  0.12056745781E-01 -0.31639235412E-01  0.11252175523E+00  0.88781053820E+00  0.88000000000E+00 0.  1.
        -11    1    4    4    0    0 -0.15274216859E-01  0.16890805017E-01 -0.29582885811E-01  0.37336433261E-01  0.51100000000E-03 0.  1.
         11    1    4    4    0    0 -0.10405866224E-01  0.33942482400E-01 -0.87836832077E-01  0.94741460585E-01  0.51100000000E-03 0. -1.
</event>
<event>
 8    1  0.1199892E+005  0.1043930E+01  0.7957747E-01            NaN
         13   -1    0    0    0    0  0.00000000000E+00  0.00000000000E+00  0.74505805969E-08  0.10566000000E+00  0.10566000000E+00 0. -1.
     999900   -1    0    0    0    0 -0.00000000000E+00 -0.00000000000E+00 -0.74505805969E-08  0.93827000000E+00  0.93827000000E+00 0.  1.
     999902    2    1    2    0    0  0.74761323798E-02  0.18606183350E-01  0.14774431439E-01  0.10190228436E+01  0.10187184053E+01 0.  0.
     999903    2    3    3    0    0  0.37995017672E-01  0.18670553677E-01  0.12332102036E+00  0.13182851967E+00  0.19454397799E-01 0.  0.
         14    1    1    2    0    0 -0.74761323798E-02 -0.18606183350E-01 -0.14774431439E-01  0.24907156372E-01  0.00000000000E+00 0.  1.
     999901    1    3    3    0    0 -0.30518885292E-01 -0.64370327114E-04 -0.10854658892E+00  0.88719432396E+00  0.88000000000E+00 0.  1.
        -11    1    4    4    0    0  0.14035504363E-01  0.56674923882E-02  0.73407594985E-01  0.74953665522E-01  0.51100000000E-03 0. -1.
         11    1    4    4    0    0  0.23959513308E-01  0.13003061289E-01  0.49913425370E-01  0.56874854145E-01  0.51100000000E-03 0.  1.
</event>
<event>
 8    1  0.1199892E+005  0.1043930E+01  0.7957747E-01            NaN
         13   -1    0    0    0    0  0.00000000000E+00  0.00000000000E+00  0.74505805969E-08  0.10566000000E+00  0.10566000000E+00 0.  1.
     999900   -1    0    0    0    0 -0.00000000000E+00 -0.00000000000E+00 -0.74505805969E-08  0.93827000000E+00  0.93827000000E+00 0. -1.
     999902    2    1    2    0    0 -0.24557969954E-01 -0.45167937930E-02  0.14365748360E-01  0.10151225350E+01  0.10147136990E+01 0.  0.
     999903    2    3    3    0    0 -0.86040281033E-01  0.78160704007E-01  0.50724748254E-01  0.12836573626E+00  0.19817581815E-01 0.  0.
         14    1    1    2    0    0  0.24557969954E-01  0.45167937930E-02 -0.14365748360E-01  0.28807465012E-01  0.00000000000E+00 0. -1.
     999901    1    3    3    0    0  0.61482311079E-01 -0.82677497800E-01 -0.36358999895E-01  0.88675679873E+00  0.88000000000E+00 0.  1.
        -11    1    4    4    0    0 -0.49773835643E-01  0.53750614935E-01  0.39497892092E-01  0.83228047684E-01  0.51100000000E-03 0. -1.
         11    1    4    4    0    0 -0.36266445390E-01  0.24410089071E-01  0.11226856162E-01  0.45137688576E-01  0.51100000000E-03 0.  1.
</event>
<event>
 8    1  0.1199892E+005  0.1043930E+01  0.7957747E-01            NaN
         13   -1    0    0    0    0  0.00000000000E+00  0.00000000000E+00  0.74505805969E-08  0.10566000000E+00  0.10566000000E+00 0. -1.
     999900   -1    0    0    0    0 -0.00000000000E+00 -0.00000000000E+00 -0.74505805969E-08  0.93827000000E+00  0.93827000000E+00 0. -1.
     999902    2    1    2    0    0 -0.11300737192E-01 -0.18610535088E-01 -0.50408070452E-02  0.10215812100E+01  0.10213367223E+01 0.  0.
     999903    2    3    3    0    0  0.55133368751E-01  0.11483204331E+00  0.25690859033E-02  0.12901282462E+00  0.20288474389E-01 0.  0.
         14    1    1    2    0    0  0.11300737192E-01  0.18610535088E-01  0.50408070452E-02  0.22348789968E-01  0.00000000000E+00 0.  1.
     999901    1    3    3    0    0 -0.66434105943E-01 -0.13344257840E+00 -0.76098929485E-02  0.89256838541E+00  0.88000000000E+00 0. -1.
        -11    1    4    4    0    0  0.65481135360E-02  0.67396414906E-02 -0.42078994177E-02  0.10308641851E-01  0.51100000000E-03 0. -1.
         11    1    4    4    0    0  0.48585255215E-01  0.10809240182E+00  0.67769853211E-02  0.11870418277E+00  0.51100000000E-03 0.  1.
</event>
<event>
 8    1  0.1199892E+005  0.1043930E+01  0.7957747E-01            NaN
         13   -1    0    0    0    0  0.00000000000E+00  0.00000000000E+00  0.74505805969E-08  0.10566000000E+00  0.10566000000E+00 0. -1.
     999900   -1    0    0    0    0 -0.00000000000E+00 -0.00000000000E+00 -0.74505805969E-08  0.93827000000E+00  0.93827000000E+00 0.  1.
     999902    2    1    2    0    0 -0.98852591229E-02  0.81381961314E-02 -0.20297995095E-01  0.10199308919E+01  0.10196485017E+01 0.  0.
     999903    2    3    3    0    0 -0.45883544333E-02 -0.31697926602E-02  0.12611462537E+00  0.12774672749E+00  0.19576186342E-01 0.  0.
         14    1    1    2    0    0  0.98852591229E-02 -0.81381961314E-02  0.20297995095E-01  0.23999108089E-01  0.00000000000E+00 0. -1.
     999901    1    3    3    0    0 -0.52969046896E-02  0.11307988792E-01 -0.14641262046E+00  0.89218416442E+00  0.88000000000E+00 0.  1.
        -11    1    4    4    0    0 -0.72668938134E-02  0.58072549230E-02  0.88110537926E-01  0.88601692817E-01  0.51100000000E-03 0. -1.
         11    1    4    4    0    0  0.26785393801E-02 -0.89770475832E-02  0.38004087440E-01  0.39145034675E-01  0.51100000000E-03 0.  1.
</event>
<event>
 8    1  0.1199892E+005  0.1043930E+01  0.7957747E-01            NaN
         13   -1    0    0    0    0  0.00000000000E+00  0.00000000000E+00  0.74505805969E-08  0.10566000000E+00  0.10566000000E+00 0. -1.
     999900   -1    0    0    0    0 -0.00000000000E+00 -0.00000000000E+00 -0.74505805969E-08  0.93827000000E+00  0.93827000000E+00 0. -1.
     999902    2    1    2    0    0  0.13442736400E-01  0.20233081348E-01 -0.23559322910E-04  0.10196383286E+01  0.10193489275E+01 0.  0.
     999903    2    3    3    0    0  0.12577411736E+00 -0.17946086410E-01 -0.26243388704E-01  0.13128959787E+00  0.20175540689E-01 0.  0.
         14    1    1    2    0    0 -0.13442736400E-01 -0.20233081348E-01  0.23559322910E-04  0.24291671367E-01  0.00000000000E+00 0.  1.
     999901    1    3    3    0    0 -0.11233138096E+00  0.38179167759E-01  0.26219829381E-01  0.88834873077E+00  0.88000000000E+00 0. -1.
        -11    1    4    4    0    0  0.19607623053E-01  0.19042147063E-02 -0.98969823046E-02  0.22052126772E-01  0.51100000000E-03 0. -1.
         11    1    4    4    0    0  0.10616649431E+00 -0.19850301117E-01 -0.16346406399E-01  0.10923747110E+00  0.51100000000E-03 0.  1.
</event>
<event>
 8    1  0.1199892E+005  0.1043930E+01  0.7957747E-01            NaN
         13   -1    0    0    0    0  0.00000000000E+00  0.00000000000E+00  0.74505805969E-08  0.10566000000E+00  0.10566000000E+00 0.  1.
     999900   -1    0    0    0    0 -0.00000000000E+00 -0.00000000000E+00 -0.74505805969E-08  0.93827000000E+00  0.93827000000E+00 0. -1.
     999902    2    1    2    0    0 -0.96006172754E-02 -0.18544117260E-01  0.13041494958E-01  0.10193101558E+01  0.10190127855E+01 0.  0.
     999903    2    3    3    0    0  0.40291905450E-01  0.91584191603E-01 -0.75120850812E-01  0.12667915285E+00  0.19833399719E-01 0.  0.
         14    1    1    2    0    0  0.96006172754E-02  0.18544117260E-01 -0.13041494958E-01  0.24619844186E-01  0.00000000000E+00 0. -1.
     999901    1    3    3    0    0 -0.49892522725E-01 -0.11012830886E+00  0.88162345769E-01  0.89263100296E+00  0.88000000000E+00 0.  1.
        -11    1    4    4    0    0  0.17630286653E-01  0.24161131818E-01 -0.14608019696E-01  0.33290278741E-01  0.51100000000E-03 0.  1.
         11    1    4    4    0    0  0.22661618797E-01  0.67423059784E-01 -0.60512831116E-01  0.93388874111E-01  0.51100000000E-03 0. -1.
</event>
<event>
 8    1  0.1199892E+005  0.1043930E+01  0.7957747E-01            NaN
         13   -1    0    0    0    0  0.00000000000E+00  0.00000000000E+00  0.74505805969E-08  0.10566000000E+00  0.10566000000E+00 0. -1.
     999900   -1    0    0    0    0 -0.00000000000E+00 -0.00000000000E+00 -0.74505805969E-08  0.93827000000E+00  0.93827000000E+00 0.  1.
     999902    2    1    2    0    0  0.63427534224E-02  0.19057808679E-01  0.12264406036E-01  0.10203960618E+01  0.10201246378E+01 0.  0.
     999903    2    3    3    0    0 -0.19698024708E-01  0.47081428749E-01  0.12103400723E+00  0.13287464145E+00  0.20044109412E-01 0.  0.
         14    1    1    2    0    0 -0.63427534224E-02 -0.19057808679E-01 -0.12264406036E-01  0.23533938218E-01  0.00000000000E+00 0. -1.
     999901    1    3    3    0    0  0.26040778131E-01 -0.28023620069E-01 -0.10876960120E+00  0.88752142033E+00  0.88000000000E+00 0.  1.
        -11    1    4    4    0    0 -0.14357865243E-02  0.25196258223E-01  0.43883626302E-01  0.50625553723E-01  0.51100000000E-03 0. -1.
         11    1    4    4    0    0 -0.18262238184E-01  0.21885170526E-01  0.77150380933E-01  0.82249087724E-01  0.51100000000E-03 0.  1.
</event>
<event>
 8    1  0.1199892E+005  0.1043930E+01  0.7957747E-01            NaN
         13   -1    0    0    0    0  0.00000000000E+00  0.00000000000E+00  0.74505805969E-08  0.10566000000E+00  0.10566000000E+00 0. -1.
     999900   -1    0    0    0    0 -0.00000000000E+00 -0.00000000000E+00 -0.74505805969E-08  0.93827000000E+00  0.93827000000E+00 0.  1.
     999902    2    1    2    0    0 -0.19346671818E-01  0.13012610258E-01  0.52163464207E-02  0.10200379091E+01  0.10197580615E+01 0.  0.
     999903    2    3    3    0    0 -0.70999715794E-01 -0.40387852370E-01  0.10067785145E+00  0.13176286991E+00  0.23522029089E-01 0.  0.
         14    1    1    2    0    0  0.19346671818E-01 -0.13012610258E-01 -0.52163464207E-02  0.23892090870E-01  0.00000000000E+00 0. -1.
     999901    1    3    3    0    0  0.51653043977E-01  0.53400462628E-01 -0.95461505028E-01  0.88827503922E+00  0.88000000000E+00 0. -1.
        -11    1    4    4    0    0 -0.35713139780E-01 -0.31906906534E-01  0.48128480927E-01  0.67897649700E-01  0.51100000000E-03 0. -1.
         11    1    4    4    0    0 -0.35286576015E-01 -0.84809458362E-02  0.52549370522E-01  0.63865220209E-01  0.51100000000E-03 0.  1.
</event>
<event>
 8    1  0.1199892E+005  0.1043930E+01  0.7957747E-01            NaN
         13   -1    0    0    0    0  0.00000000000E+00  0.00000000000E+00  0.74505805969E-08  0.10566000000E+00  0.10566000000E+00 0. -1.
     999900   -1    0    0    0    0 -0.00000000000E+00 -0.00000000000E+00 -0.74505805969E-08  0.93827000000E+00  0.93827000000E+00 0.  1.
     999902    2    1    2    0    0  0.81776865499E-02 -0.21443408664E-01 -0.15243202095E-02  0.10209296112E+01  0.10206704920E+01 0.  0.
     999903    2    3    3    0    0  0.40833759571E-01  0.10276749149E+00 -0.64145773219E-01  0.12940495468E+00  0.20060130760E-01 0.  0.
         14    1    1    2    0    0 -0.81776865499E-02  0.21443408664E-01  0.15243202095E-02  0.23000388791E-01  0.00000000000E+00 0. -1.
     999901    1    3    3    0    0 -0.32656073021E-01 -0.12421090015E+00  0.62621453010E-01  0.89152465653E+00  0.88000000000E+00 0. -1.
        -11    1    4    4    0    0  0.14136276760E-01  0.31226993886E-01 -0.30781061466E-01  0.46072707038E-01  0.51100000000E-03 0.  1.
         11    1    4    4    0    0  0.26697482811E-01  0.71540497602E-01 -0.33364711753E-01  0.83332247642E-01  0.51100000000E-03 0. -1.
</event>
<event>
 8    1  0.1199892E+005  0.1043930E+01  0.7957747E-01            NaN
         13   -1    0    0    0    0  0.00000000000E+00  0.00000000000E+00  0.74505805969E-08  0.10566000000E+00  0.10566000000E+00 0.  1.
     999900   -1    0    0    0    0 -0.00000000000E+00 -0.00000000000E+00 -0.74505805969E-08  0.93827000000E+00  0.93827000000E+00 0. -1.
     999902    2    1    2    0    0  0.37892621625E-02  0.21066000657E-02 -0.23374770274E-01  0.10201565662E+01  0.10198795239E+01 0.  0.
     999903    2    3    3    0    0  0.12098172917E+00  0.25583038984E-01 -0.41245837201E-01  0.13189726137E+00  0.20114616412E-01 0.  0.
         14    1    1    2    0    0 -0.37892621625E-02 -0.21066000657E-02  0.23374770274E-01  0.23773433848E-01  0.00000000000E+00 0.  1.
     999901    1    3    3    0    0 -0.11719246700E+00 -0.23476438919E-01  0.17871066927E-01  0.88825930479E+00  0.88000000000E+00 0. -1.
        -11    1    4    4    0    0  0.26622018314E-01  0.13347698309E-01 -0.57131069016E-02  0.30328099524E-01  0.51100000000E-03 0. -1.
         11    1    4    4    0    0  0.94359710852E-01  0.12235340676E-01 -0.35532730300E-01  0.10156916184E+00  0.51100000000E-03 0.  1.
</event>
<event>
 8    1  0.1199892E+005  0.1043930E+01  0.7957747E-01            NaN
         13   -1    0    0    0    0  0.00000000000E+00  0.00000000000E+00  0.74505805969E-08  0.10566000000E+00  0.10566000000E+00 0. -1.
     999900   -1    0    0    0    0 -0.00000000000E+00 -0.00000000000E+00 -0.74505805969E-08  0.93827000000E+00  0.93827000000E+00 0. -1.
     999902    2    1    2    0    0 -0.15808559674E-01 -0.12460709879E-01  0.90349097571E-02  0.10218662414E+01  0.10216280174E+01 0.  0.
     999903    2    3    3    0    0 -0.11329690774E+00  0.66417086490E-01  0.11386258858E-03  0.13293133385E+00  0.20574447041E-01 0.  0.
         14    1    1    2    0    0  0.15808559674E-01  0.12460709879E-01 -0.90349097571E-02  0.22063758609E-01  0.00000000000E+00 0. -1.
     999901    1    3    3    0    0  0.97488348070E-01 -0.78877796369E-01  0.89210471685E-02  0.88893490755E+00  0.88000000000E+00 0. -1.
        -11    1    4    4    0    0 -0.75309017167E-01  0.34361677834E-01 -0.51849858135E-02  0.82941655211E-01  0.51100000000E-03 0. -1.
         11    1    4    4    0    0 -0.37987890577E-01  0.32055408656E-01  0.52988484021E-02  0.49989678635E-01  0.51100000000E-03 0.  1.
</event>
<event>
 8    1  0.1199892E+005  0.1043930E+01  0.7957747E-01            NaN
         13   -1    0    0    0    0  0.00000000000E+00  0.00000000000E+00  0.74505805969E-08  0.10566000000E+00  0.10566000000E+00 0. -1.
     999900   -1    0    0    0    0 -0.00000000000E+00 -0.00000000000E+00 -0.74505805969E-08  0.93827000000E+00  0.93827000000E+00 0.  1.
     999902    2    1    2    0    0 -0.10007034404E-01 -0.19943638751E-01  0.28460509359E-02  0.10214357903E+01  0.10211880749E+01 0.  0.
     999903    2    3    3    0    0  0.67958189746E-01 -0.10644635909E+00  0.36843034370E-01  0.13311316215E+00  0.20311618324E-01 0.  0.
         14    1    1    2    0    0  0.10007034404E-01  0.19943638751E-01 -0.28460509359E-02  0.22494209702E-01  0.00000000000E+00 0. -1.
     999901    1    3    3    0    0 -0.77965224150E-01  0.86502720335E-01 -0.33996983434E-01  0.88832262815E+00  0.88000000000E+00 0.  1.
        -11    1    4    4    0    0  0.56933541130E-01 -0.85182686125E-01  0.37610629860E-01  0.10914366093E+00  0.51100000000E-03 0.  1.
         11    1    4    4    0    0  0.11024648616E-01 -0.21263672962E-01 -0.76759548983E-03  0.23969501221E-01  0.51100000000E-03 0. -1.
</event>
<event>
 8    1  0.1199892E+005  0.1043930E+01  0.7957747E-01            NaN
         13   -1    0    0    0    0  0.00000000000E+00  0.00000000000E+00  0.74505805969E-08  0.10566000000E+00  0.10566000000E+00 0. -1.
     999900   -1    0    0    0    0 -0.00000000000E+00 -0.00000000000E+00 -0.74505805969E-08  0.93827000000E+00  0.93827000000E+00 0.  1.
     999902    2    1    2    0    0  0.10324142878E-01  0.17973353662E-01 -0.10715118407E-01  0.10205966948E+01  0.10203299321E+01 0.  0.
     999903    2    3    3    0    0 -0.11774854839E+00  0.27973675125E-01 -0.44928846457E-01  0.13061175121E+00  0.19838880005E-01 0.  0.
         14    1    1    2    0    0 -0.10324142878E-01 -0.17973353662E-01  0.10715118407E-01  0.23333305177E-01  0.00000000000E+00 0.  1.
     999901    1    3    3    0    0  0.12807269127E+00 -0.10000321464E-01  0.34213728049E-01  0.88998494362E+00  0.88000000000E+00 0. -1.
        -11    1    4    4    0    0 -0.51269844843E-01  0.15535453509E-01 -0.29805843712E-01  0.61307395527E-01  0.51100000000E-03 0. -1.
         11    1    4    4    0    0 -0.66478703552E-01  0.12438221616E-01 -0.15123002745E-01  0.69304355678E-01  0.51100000000E-03 0.  1.
</event>
<event>
 8    1  0.1199892E+005  0.1043930E+01  0.7957747E-01            NaN
         13   -1    0    0    0    0  0.00000000000E+00  0.00000000000E+00  0.74505805969E-08  0.10566000000E+00  0.10566000000E+00 0.  1.
     999900   -1    0    0    0    0 -0.00000000000E+00 -0.00000000000E+00 -0.74505805969E-08  0.93827000000E+00  0.93827000000E+00 0.  1.
     999902    2    1    2    0    0 -0.14053508076E-01 -0.19437534353E-01  0.64639341681E-02  0.10190884768E+01  0.10187856606E+01 0.  0.
     999903    2    3    3    0    0 -0.87984249074E-01 -0.22300469121E-01  0.93446079669E-01  0.13171040375E+00  0.19414469912E-01 0.  0.
         14    1    1    2    0    0  0.14053508076E-01  0.19437534353E-01 -0.64639341681E-02  0.24841523220E-01  0.00000000000E+00 0.  1.
     999901    1    3    3    0    0  0.73930740998E-01  0.28629347674E-02 -0.86982145501E-01  0.88737807303E+00  0.88000000000E+00 0. -1.
        -11    1    4    4    0    0 -0.46741849149E-01 -0.21623783215E-01  0.54320267202E-01  0.74855467484E-01  0.51100000000E-03 0.  1.
         11    1    4    4    0    0 -0.41242399925E-01 -0.67668590537E-03  0.39125812467E-01  0.56854936265E-01  0.51100000000E-03 0. -1.
</event>
<event>
 8    1  0.1199892E+005  0.1043930E+01  0.7957747E-01            NaN
         13   -1    0    0    0    0  0.00000000000E+00  0.00000000000E+00  0.74505805969E-08  0.10566000000E+00  0.10566000000E+00 0.  1.
     999900   -1    0    0    0    0 -0.00000000000E+00 -0.00000000000E+00 -0.74505805969E-08  0.93827000000E+00  0.93827000000E+00 0.  1.
     999902    2    1    2    0    0 -0.20340793531E-02  0.23208132526E-01  0.30157335035E-02  0.10204385219E+01  0.10201680878E+01 0.  0.
     999903    2    3    3    0    0  0.55709990196E-01 -0.10625828886E+00  0.41812186042E-01  0.12824958645E+00  0.17471993655E-01 0.  0.
         14    1    1    2    0    0  0.20340793531E-02 -0.23208132526E-01 -0.30157335035E-02  0.23491478088E-01  0.00000000000E+00 0. -1.
     999901    1    3    3    0    0 -0.57744069549E-01  0.12946642139E+00 -0.38796452538E-01  0.89218893546E+00  0.88000000000E+00 0. -1.
        -11    1    4    4    0    0  0.31068825861E-01 -0.76626253121E-01  0.27636028242E-01  0.87182944351E-01  0.51100000000E-03 0.  1.
         11    1    4    4    0    0  0.24641164336E-01 -0.29632035744E-01  0.14176157799E-01  0.41066642097E-01  0.51100000000E-03 0. -1.
</event>
<event>
 8    1  0.1199892E+005  0.1043930E+01  0.7957747E-01            NaN
         13   -1    0    0    0    0  0.00000000000E+00  0.00000000000E+00  0.74505805969E-08  0.10566000000E+00  0.10566000000E+00 0.  1.
     999900   -1    0    0    0    0 -0.00000000000E+00 -0.00000000000E+00 -0.74505805969E-08  0.93827000000E+00  0.93827000000E+00 0. -1.
     999902    2    1    2    0    0  0.19652927717E-01  0.43469379245E-02 -0.13565511270E-01  0.10196574531E+01  0.10193685129E+01 0.  0.
     999903    2    3    3    0    0 -0.36324715175E-01  0.95602349473E-01  0.75486585576E-01  0.12870777854E+00  0.20203304116E-01 0.  0.
         14    1    1    2    0    0 -0.19652927717E-01 -0.43469379245E-02  0.13565511270E-01  0.24272546904E-01  0.00000000000E+00 0.  1.
     999901    1    3    3    0    0  0.55977642892E-01 -0.91255411549E-01 -0.89052096846E-01  0.89094967456E+00  0.88000000000E+00 0. -1.
        -11    1    4    4    0    0 -0.31202975493E-01  0.74014217833E-01  0.68131312907E-01  0.10532742777E+00  0.51100000000E-03 0.  1.
         11    1    4    4    0    0 -0.51217396820E-02  0.21588131641E-01  0.73552726690E-02  0.23380350770E-01  0.51100000000E-03 0. -1.
</event>
<event>
 8    1  0.1199892E+005  0.1043930E+01  0.7957747E-01            NaN
         13   -1    0    0    0    0  0.00000000000E+00  0.00000000000E+00  0.74505805969E-08  0.10566000000E+00  0.10566000000E+00 0.  1.
     999900   -1    0    0    0    0 -0.00000000000E+00 -0.00000000000E+00 -0.74505805969E-08  0.93827000000E+00  0.93827000000E+00 0.  1.
     999902    2    1    2    0    0  0.31659303279E-02 -0.21130075870E-01 -0.91062657574E-02  0.10207044258E+01  0.10204401489E+01 0.  0.
     999903    2    3    3    0    0 -0.15797937248E-01 -0.92107342213E-01 -0.93364927259E-01  0.13363231900E+00  0.20180429364E-01 0.  0.
         14    1    1    2    0    0 -0.31659303279E-02  0.21130075870E-01  0.91062657574E-02  0.23225574205E-01  0.00000000000E+00 0.  1.
     999901    1    3    3    0    0  0.18963867576E-01  0.70977266343E-01  0.84258661501E-01  0.88707210679E+00  0.88000000000E+00 0. -1.
        -11    1    4    4    0    0 -0.58041754310E-02 -0.54289684921E-01 -0.41062120956E-01  0.68318498517E-01  0.51100000000E-03 0. -1.
         11    1    4    4    0    0 -0.99937618166E-02 -0.37817657291E-01 -0.52302806303E-01  0.65313820486E-01  0.51100000000E-03 0.  1.
</event>
<event>
 8    1  0.1199892E+005  0.1043930E+01  0.7957747E-01            NaN
         13   -1    0    0    0    0  0.00000000000E+00  0.00000000000E+00  0.74505805969E-08  0.10566000000E+00  0.10566000000E+00 0. -1.
     999900   -1    0    0    0    0 -0.00000000000E+00 -0.00000000000E+00 -0.74505805969E-08  0.93827000000E+00  0.93827000000E+00 0.  1.
     999902    2    1    2    0    0  0.19299543514E-01 -0.14794078944E-01 -0.21795204312E-02  0.10195150976E+01  0.10192227169E+01 0.  0.
     999903    2    3    3    0    0 -0.83599507733E-03  0.11150497558E+00  0.59633268556E-01  0.12812421138E+00  0.20630762382E-01 0.  0.
         14    1    1    2    0    0 -0.19299543514E-01  0.14794078944E-01  0.21795204312E-02  0.24414902436E-01  0.00000000000E+00 0. -1.
     999901    1    3    3    0    0  0.20135538592E-01 -0.12629905452E+00 -0.61812788987E-01  0.89139088618E+00  0.88000000000E+00 0. -1.
        -11    1    4    4    0    0 -0.79756968989E-02  0.72041546154E-01  0.45592385561E-01  0.85630151555E-01  0.51100000000E-03 0. -1.
         11    1    4    4    0    0  0.71397018216E-02  0.39463429426E-01  0.14040882995E-01  0.42494059826E-01  0.51100000000E-03 0.  1.
</event>
<event>
 8    1  0.1199892E+005  0.1043930E+01  0.7957747E-01            NaN
         13   -1    0    0    0    0  0.00000000000E+00  0.00000000000E+00  0.74505805969E-08  0.10566000000E+00  0.10566000000E+00 0. -1.
     999900   -1    0    0    0    0 -0.00000000000E+00 -0.00000000000E+00 -0.74505805969E-08  0.93827000000E+00  0.93827000000E+00 0. -1.
     999902    2    1    2    0    0  0.96837323937E-02 -0.20779841782E-01  0.55114480179E-02  0.10203513538E+01  0.10200788855E+01 0.  0.
     999903    2    3    3    0    0 -0.61610151120E-01  0.18444371940E-01 -0.11009721895E+00  0.12906760512E+00  0.20026070391E-01 0.  0.
         14    1    1    2    0    0 -0.96837323937E-02  0.20779841782E-01 -0.55114480179E-02  0.23578646204E-01  0.00000000000E+00 0. -1.
     999901    1    3    3    0    0  0.71293883514E-01 -0.39224213723E-01  0.11560866696E+00  0.89128374867E+00  0.88000000000E+00 0.  1.
        -11    1    4    4    0    0 -0.19250130488E-01  0.14654875476E-01 -0.31756442529E-01  0.39925751867E-01  0.51100000000E-03 0. -1.
         11    1    4    4    0    0 -0.42360020632E-01  0.37894964642E-02 -0.78340776418E-01  0.89141853257E-01  0.51100000000E-03 0.  1.
</event>
<event>
 8    1  0.1199892E+005  0.1043930E+01  0.7957747E-01            NaN
         13   -1    0    0    0    0  0.00000000000E+00  0.00000000000E+00  0.74505805969E-08  0.10566000000E+00  0.10566000000E+00 0.  1.
     999900   -1    0    0    0    0 -0.00000000000E+00 -0.00000000000E+00 -0.74505805969E-08  0.93827000000E+00  0.93827000000E+00 0. -1.
     999902    2    1    2    0    0 -0.16473801792E-01  0.65003195040E-03  0.16557889899E-01  0.10205639476E+01  0.10202964269E+01 0.  0.
     999903    2    3    3    0    0  0.11157756342E+00  0.91193709481E-02 -0.56227174694E-01  0.12828229505E+00  0.27606819179E-01 0.  0.
         14    1    1    2    0    0  0.16473801792E-01 -0.65003195040E-03 -0.16557889899E-01  0.23366052403E-01  0.00000000000E+00 0. -1.
     999901    1    3    3    0    0 -0.12805136521E+00 -0.84693389977E-02  0.72785064593E-01  0.89228165254E+00  0.88000000000E+00 0. -1.
        -11    1    4    4    0    0  0.57102719475E-01  0.17825200393E-01 -0.33959958498E-01  0.68789521315E-01  0.51100000000E-03 0.  1.
         11    1    4    4    0    0  0.54474843945E-01 -0.87058294451E-02 -0.22267216196E-01  0.59492773740E-01  0.51100000000E-03 0. -1.
</event>
<event>
 8    1  0.1199892E+005  0.1043930E+01  0.7957747E-01            NaN
         13   -1    0    0    0    0  0.00000000000E+00  0.00000000000E+00  0.74505805969E-08  0.10566000000E+00  0.10566000000E+00 0.  1.
     999900   -1    0    0    0    0 -0.00000000000E+00 -0.00000000000E+00 -0.74505805969E-08  0.93827000000E+00  0.93827000000E+00 0.  1.
     999902    2    1    2    0    0 -0.10849289114E-01 -0.16328656644E-01  0.12990182260E-01  0.10204124122E+01  0.10201413696E+01 0.  0.
     999903    2    3    3    0    0  0.75079512317E-01  0.54911680822E-01  0.88756088792E-01  0.13013188493E+00  0.20110651829E-01 0.  0.
         14    1    1    2    0    0  0.10849289114E-01  0.16328656644E-01 -0.12990182260E-01  0.23517587828E-01  0.00000000000E+00 0. -1.
     999901    1    3    3    0    0 -0.85928801431E-01 -0.71240337466E-01 -0.75765906532E-01  0.89028052724E+00  0.88000000000E+00 0.  1.
        -11    1    4    4    0    0  0.41437750271E-01  0.34480136219E-01  0.38262571221E-01  0.66107884693E-01  0.51100000000E-03 0. -1.
         11    1    4    4    0    0  0.33641762046E-01  0.20431544603E-01  0.50493517571E-01  0.64024000235E-01  0.51100000000E-03 0.  1.
</event>
<event>
 8    1  0.1199892E+005  0.1043930E+01  0.7957747E-01            NaN
         13   -1    0    0    0    0  0.00000000000E+00  0.00000000000E+00  0.74505805969E-08  0.10566000000E+00  0.10566000000E+00 0. -1.
     999900   -1    0    0    0    0 -0.00000000000E+00 -0.00000000000E+00 -0.74505805969E-08  0.93827000000E+00  0.93827000000E+00 0.  1.
     999902    2    1    2    0    0  0.10535444778E-02  0.20275049693E-01 -0.11103930960E-01  0.10207894538E+01  0.10205271305E+01 0.  0.
     999903    2    3    3    0    0  0.63464517183E-01  0.10437924330E+00  0.47678359440E-01  0.13263180869E+00  0.19879621312E-01 0.  0.
         14    1    1    2    0    0 -0.10535444778E-02 -0.20275049693E-01  0.11103930960E-01  0.23140546208E-01  0.00000000000E+00 0.  1.
     999901    1    3    3    0    0 -0.62410972705E-01 -0.84104193605E-01 -0.58782290400E-01  0.88815764511E+00  0.88000000000E+00 0.  1.
        -11    1    4    4    0    0  0.92695436597E-02  0.31692238484E-01  0.10721589773E-01  0.34720829887E-01  0.51100000000E-03 0. -1.
         11    1    4    4    0    0  0.54194973523E-01  0.72687004815E-01  0.36956769667E-01  0.97910978799E-01  0.51100000000E-03 0.  1.
</event>
<event>
 8    1  0.1199892E+005  0.1043930E+01  0.7957747E-01            NaN
         13   -1    0    0    0    0  0.00000000000E+00  0.00000000000E+00  0.74505805969E-08  0.10566000000E+00  0.10566000000E+00 0.  1.
     999900   -1    0    0    0    0 -0.00000000000E+00 -0.00000000000E+00 -0.74505805969E-08  0.93827000000E+00  0.93827000000E+00 0. -1.
     999902    2    1    2    0    0  0.17160665457E-01  0.11641957082E-01  0.12303956405E-01  0.10198175354E+01  0.10195324392E+01 0.  0.
     999903    2    3    3    0    0  0.10057225842E+00 -0.81284594833E-01  0.67994585220E-02  0.13098507801E+00  0.19720382963E-01 0.  0.
         14    1    1    2    0    0 -0.17160665457E-01 -0.11641957082E-01 -0.12303956405E-01  0.24112464553E-01  0.00000000000E+00 0. -1.
     999901    1    3    3    0    0 -0.83411592967E-01  0.92926551915E-01  0.55044978825E-02  0.88883245743E+00  0.88000000000E+00 0.  1.
        -11    1    4    4    0    0  0.93651305725E-01 -0.80138377130E-01  0.90720548955E-02  0.12359324356E+00  0.51100000000E-03 0. -1.
         11    1    4    4    0    0  0.69209526982E-02 -0.11462177031E-02 -0.22725963735E-02  0.73918344510E-02  0.51100000000E-03 0.  1.
</event>
<event>
 8    1  0.1199892E+005  0.1043930E+01  0.7957747E-01            NaN
         13   -1    0    0    0    0  0.00000000000E+00  0.00000000000E+00  0.74505805969E-08  0.10566000000E+00  0.10566000000E+00 0. -1.
     999900   -1    0    0    0    0 -0.00000000000E+00 -0.00000000000E+00 -0.74505805969E-08  0.93827000000E+00  0.93827000000E+00 0. -1.
     999902    2    1    2    0    0 -0.13660226986E-01  0.16111476548E-01  0.11098282364E-01  0.10200688737E+01  0.10197897596E+01 0.  0.
     999903    2    3    3    0    0 -0.12264346020E+00 -0.42566728345E-01  0.75300660555E-02  0.13139952627E+00  0.18862367787E-01 0.  0.
         14    1    1    2    0    0  0.13660226986E-01 -0.16111476548E-01 -0.11098282364E-01  0.23861126321E-01  0.00000000000E+00 0. -1.
     999901    1    3    3    0    0  0.10898323321E+00  0.58678204893E-01  0.35682163082E-02  0.88866934741E+00  0.88000000000E+00 0. -1.
        -11    1    4    4    0    0 -0.70697037000E-01 -0.17304896345E-01 -0.22057249440E-02  0.72819343732E-01  0.51100000000E-03 0.  1.
         11    1    4    4    0    0 -0.51946423199E-01 -0.25261832000E-01  0.97357909995E-02  0.58580182541E-01  0.51100000000E-03 0. -1.
</event>
<event>
 8    1  0.1199892E+005  0.1043930E+01  0.7957747E-01            NaN
         13   -1    0    0    0    0  0.00000000000E+00  0.00000000000E+00  0.74505805969E-08  0.10566000000E+00  0.10566000000E+00 0. -1.
     999900   -1    0    0    0    0 -0.00000000000E+00 -0.00000000000E+00 -0.74505805969E-08  0.93827000000E+00  0.93827000000E+00 0.  1.
     999902    2    1    2    0    0  0.19631818651E-01 -0.11763934770E-01  0.69444324152E-02  0.10200129850E+01  0.10197325463E+01 0.  0.
     999903    2    3    3    0    0 -0.69346652670E-02 -0.94689981568E-01 -0.87560866503E-01  0.13067966232E+00  0.19899412310E-01 0.  0.
         14    1    1    2    0    0 -0.19631818651E-01  0.11763934770E-01 -0.69444324152E-02  0.23917014997E-01  0.00000000000E+00 0.  1.
     999901    1    3    3    0    0  0.26566483918E-01  0.82926046799E-01  0.94505298918E-01  0.88933332268E+00  0.88000000000E+00 0. -1.
        -11    1    4    4    0    0  0.49037086839E-02 -0.20817781719E-01 -0.26842022539E-01  0.34324651339E-01  0.51100000000E-03 0. -1.
         11    1    4    4    0    0 -0.11838373951E-01 -0.73872199849E-01 -0.60718843964E-01  0.96355010984E-01  0.51100000000E-03 0.  1.
</event>
<event>
 8    1  0.1199892E+005  0.1043930E+01  0.7957747E-01            NaN
         13   -1    0    0    0    0  0.00000000000E+00  0.00000000000E+00  0.74505805969E-08  0.10566000000E+00  0.10566000000E+00 0.  1.
     999900   -1    0    0    0    0 -0.00000000000E+00 -0.00000000000E+00 -0.74505805969E-08  0.93827000000E+00  0.93827000000E+00 0.  1.
     999902    2    1    2    0    0 -0.90647311022E-02  0.22256964238E-01  0.39903410906E-02  0.10195688705E+01  0.10192777919E+01 0.  0.
     999903    2    3    3    0    0  0.12620367637E+00 -0.54699137162E-02 -0.14125199399E-01  0.12861741583E+00  0.19637477252E-01 0.  0.
         14    1    1    2    0    0  0.90647311022E-02 -0.22256964238E-01 -0.39903410906E-02  0.24361129471E-01  0.00000000000E+00 0.  1.
     999901    1    3    3    0    0 -0.13526840747E+00  0.27726877955E-01  0.18115540490E-01  0.89095145470E+00  0.88000000000E+00 0. -1.
        -11    1    4    4    0    0  0.28085717753E-01 -0.80868914139E-02  0.12920712609E-02  0.29259800471E-01  0.51100000000E-03 0.  1.
         11    1    4    4    0    0  0.98117958613E-01  0.26169776977E-02 -0.15417270660E-01  0.99357615361E-01  0.51100000000E-03 0. -1.
</event>
<event>
 8    1  0.1199892E+005  0.1043930E+01  0.7957747E-01            NaN
         13   -1    0    0    0    0  0.00000000000E+00  0.00000000000E+00  0.74505805969E-08  0.10566000000E+00  0.10566000000E+00 0. -1.
     999900   -1    0    0    0    0 -0.00000000000E+00 -0.00000000000E+00 -0.74505805969E-08  0.93827000000E+00  0.93827000000E+00 0.  1.
     999902    2    1    2    0    0 -0.71050445162E-02  0.48652745612E-04  0.23814028689E-01  0.10190786019E+01  0.10187755420E+01 0.  0.
     999903    2    3    3    0    0 -0.85751606388E-01 -0.74380310310E-01  0.63294026184E-01  0.13156318095E+00  0.20419800969E-01 0.  0.
         14    1    1    2    0    0  0.71050445162E-02 -0.48652745612E-04 -0.23814028689E-01  0.24851398090E-01  0.00000000000E+00 0.  1.
     999901    1    3    3    0    0  0.78646561872E-01  0.74428963056E-01 -0.39479997495E-01  0.88751542096E+00  0.88000000000E+00 0. -1.
        -11    1    4    4    0    0 -0.51755864029E-01 -0.34251644163E-01  0.27138849587E-01  0.67739374571E-01  0.51100000000E-03 0.  1.
         11    1    4    4    0    0 -0.33995742359E-01 -0.40128666147E-01  0.36155176596E-01  0.63823806381E-01  0.51100000000E-03 0. -1.
</event>
<event>
 8    1  0.1199892E+005  0.1043930E+01  0.7957747E-01            NaN
         13   -1    0    0    0    0  0.00000000000E+00  0.00000000000E+00  0.74505805969E-08  0.10566000000E+00  0.10566000000E+00 0. -1.
     999900   -1    0    0    0    0 -0.00000000000E+00 -0.00000000000E+00 -0.74505805969E-08  0.93827000000E+00  0.93827000000E+00 0. -1.
     999902    2    1    2    0    0 -0.21150469465E-01 -0.39580014963E-02 -0.71509900748E-02  0.10212552388E+01  0.10210034858E+01 0.  0.
     999903    2    3    3    0    0  0.63802589151E-01 -0.30523710050E-01 -0.10840881208E+00  0.13098791632E+00  0.20072280081E-01 0.  0.
         14    1    1    2    0    0  0.21150469465E-01  0.39580014963E-02  0.71509900748E-02  0.22674761156E-01  0.00000000000E+00 0.  1.
     999901    1    3    3    0    0 -0.84953058616E-01  0.26565708554E-01  0.10125782200E+00  0.89026732253E+00  0.88000000000E+00 0. -1.
        -11    1    4    4    0    0  0.29597612829E-01 -0.13984666558E-01 -0.68284193144E-01  0.75727021190E-01  0.51100000000E-03 0.  1.
         11    1    4    4    0    0  0.34204976322E-01 -0.16539043492E-01 -0.40124618934E-01  0.55260895129E-01  0.51100000000E-03 0. -1.
</event>
<event>
 8    1  0.1199892E+005  0.1043930E+01  0.7957747E-01            NaN
         13   -1    0    0    0    0  0.00000000000E+00  0.00000000000E+00  0.74505805969E-08  0.10566000000E+00  0.10566000000E+00 0.  1.
     999900   -1    0    0    0    0 -0.00000000000E+00 -0.00000000000E+00 -0.74505805969E-08  0.93827000000E+00  0.93827000000E+00 0. -1.
     999902    2    1    2    0    0  0.18609511043E-01 -0.12681294930E-01 -0.37286870645E-02  0.10211038691E+01  0.10208487054E+01 0.  0.
     999903    2    3    3    0    0 -0.43958748296E-01 -0.11652383803E+00  0.38059708039E-01  0.13180958108E+00  0.20372724601E-01 0.  0.
         14    1    1    2    0    0 -0.18609511043E-01  0.12681294930E-01  0.37286870645E-02  0.22826130850E-01  0.00000000000E+00 0.  1.
     999901    1    3    3    0    0  0.62568259339E-01  0.10384254310E+00 -0.41788395104E-01  0.88929428807E+00  0.88000000000E+00 0. -1.
        -11    1    4    4    0    0 -0.18627461883E-01 -0.70583323768E-01  0.15127077281E-01  0.74552515171E-01  0.51100000000E-03 0. -1.
         11    1    4    4    0    0 -0.25331286414E-01 -0.45940514258E-01  0.22932630758E-01  0.57257065906E-01  0.51100000000E-03 0.  1.
</event>
<event>
 8    1  0.1199892E+005  0.1043930E+01  0.7957747E-01            NaN
         13   -1    0    0    0    0  0.00000000000E+00  0.00000000000E+00  0.74505805969E-08  0.10566000000E+00  0.10566000000E+00 0.  1.
     999900   -1    0    0    0    0 -0.00000000000E+00 -0.00000000000E+00 -0.74505805969E-08  0.93827000000E+00  0.93827000000E+00 0. -1.
     999902    2    1    2    0    0  0.22462672093E-01 -0.45365433095E-02 -0.58835783063E-02  0.10202705757E+01  0.10199962154E+01 0.  0.
     999903    2    3    3    0    0 -0.84190409447E-01  0.40508215971E-01 -0.86775415616E-01  0.12900888606E+00  0.19605594185E-01 0.  0.
         14    1    1    2    0    0 -0.22462672093E-01  0.45365433095E-02  0.58835783063E-02  0.23659424263E-01  0.00000000000E+00 0. -1.
     999901    1    3    3    0    0  0.10665308154E+00 -0.45044759280E-01  0.80891837309E-01  0.89126168968E+00  0.88000000000E+00 0.  1.
        -11    1    4    4    0    0 -0.29055527280E-01  0.16395900806E-01 -0.43794768909E-01  0.55057171499E-01  0.51100000000E-03 0.  1.
         11    1    4    4    0    0 -0.55134882167E-01  0.24112315165E-01 -0.42980646707E-01  0.73951714562E-01  0.51100000000E-03 0. -1.
</event>
<event>
 8    1  0.1199892E+005  0.1043930E+01  0.7957747E-01            NaN
         13   -1    0    0    0    0  0.00000000000E+00  0.00000000000E+00  0.74505805969E-08  0.10566000000E+00  0.10566000000E+00 0. -1.
     999900   -1    0    0    0    0 -0.00000000000E+00 -0.00000000000E+00 -0.74505805969E-08  0.93827000000E+00  0.93827000000E+00 0. -1.
     999902    2    1    2    0    0 -0.92468327945E-02  0.21228394282E-01 -0.68752854838E-02  0.10197759488E+01  0.10194898565E+01 0.  0.
     999903    2    3    3    0    0  0.72001958397E-01 -0.52429638359E-01 -0.90788803716E-01  0.12900754431E+00  0.21614592666E-01 0.  0.
         14    1    1    2    0    0  0.92468327945E-02 -0.21228394282E-01  0.68752854838E-02  0.24154051234E-01  0.00000000000E+00 0.  1.
     999901    1    3    3    0    0 -0.81248791191E-01  0.73658032642E-01  0.83913518232E-01  0.89076840446E+00  0.88000000000E+00 0.  1.
        -11    1    4    4    0    0  0.24079027013E-01 -0.21833630989E-01 -0.47436589183E-01  0.57506504836E-01  0.51100000000E-03 0. -1.
         11    1    4    4    0    0  0.47922931383E-01 -0.30596007370E-01 -0.43352214533E-01  0.71501039470E-01  0.51100000000E-03 0.  1.
</event>
<event>
 8    1  0.1199892E+005  0.1043930E+01  0.7957747E-01            NaN
         13   -1    0    0    0    0  0.00000000000E+00  0.00000000000E+00  0.74505805969E-08  0.10566000000E+00  0.10566000000E+00 0. -1.
     999900   -1    0    0    0    0 -0.00000000000E+00 -0.00000000000E+00 -0.74505805969E-08  0.93827000000E+00  0.93827000000E+00 0. -1.
     999902    2    1    2    0    0  0.66378930660E-02 -0.20604233780E-01 -0.68228125771E-02  0.10212331534E+01  0.10209809042E+01 0.  0.
     999903    2    3    3    0    0  0.27765116808E-01 -0.10423663556E+00 -0.77435868710E-01  0.13420049227E+00  0.19423708685E-01 0.  0.
         14    1    1    2    0    0 -0.66378930660E-02  0.20604233780E-01  0.68228125771E-02  0.22696846598E-01  0.00000000000E+00 0.  1.
     999901    1    3    3    0    0 -0.21127223742E-01  0.83632401783E-01  0.70613056133E-01  0.88703266113E+00  0.88000000000E+00 0.  1.
        -11    1    4    4    0    0  0.72990901525E-02 -0.22612255280E-01 -0.79287924841E-02  0.25054294585E-01  0.51100000000E-03 0.  1.
         11    1    4    4    0    0  0.20466026655E-01 -0.81624380282E-01 -0.69507076226E-01  0.10914619769E+00  0.51100000000E-03 0. -1.
</event>
<event>
 8    1  0.1199892E+005  0.1043930E+01  0.7957747E-01            NaN
         13   -1    0    0    0    0  0.00000000000E+00  0.00000000000E+00  0.74505805969E-08  0.10566000000E+00  0.10566000000E+00 0. -1.
     999900   -1    0    0    0    0 -0.00000000000E+00 -0.00000000000E+00 -0.74505805969E-08  0.93827000000E+00  0.93827000000E+00 0. -1.
     999902    2    1    2    0    0  0.31014608770E-01  0.66089540415E-02  0.13107442179E-02  0.10121919742E+01  0.10116942672E+01 0.  0.
     999903    2    3    3    0    0 -0.53597532578E-01  0.82716098663E-01 -0.67809430735E-01  0.12217562014E+00  0.24781339421E-01 0.  0.
         14    1    1    2    0    0 -0.31014608770E-01 -0.66089540415E-02 -0.13107442179E-02  0.31738025790E-01  0.00000000000E+00 0. -1.
     999901    1    3    3    0    0  0.84612141348E-01 -0.76107144621E-01  0.69120174953E-01  0.89001635407E+00  0.88000000000E+00 0.  1.
        -11    1    4    4    0    0 -0.10401139831E-01  0.13535998368E-01 -0.16536256854E-02  0.17158163086E-01  0.51100000000E-03 0.  1.
         11    1    4    4    0    0 -0.43196392748E-01  0.69180100295E-01 -0.66155805050E-01  0.10501745705E+00  0.51100000000E-03 0. -1.
</event>
<event>
 8    1  0.1199892E+005  0.1043930E+01  0.7957747E-01            NaN
         13   -1    0    0    0    0  0.00000000000E+00  0.00000000000E+00  0.74505805969E-08  0.10566000000E+00  0.10566000000E+00 0. -1.
     999900   -1    0    0    0    0 -0.00000000000E+00 -0.00000000000E+00 -0.74505805969E-08  0.93827000000E+00  0.93827000000E+00 0.  1.
     999902    2    1    2    0    0 -0.20046091522E-01 -0.10391472578E-01  0.73875833989E-02  0.10201727932E+01  0.10198961335E+01 0.  0.
     999903    2    3    3    0    0  0.12063986750E+00  0.13357838606E-01 -0.34147665610E-01  0.12771453322E+00  0.20310820905E-01 0.  0.
         14    1    1    2    0    0  0.20046091522E-01  0.10391472578E-01 -0.73875833989E-02  0.23757206825E-01  0.00000000000E+00 0.  1.
     999901    1    3    3    0    0 -0.14068595903E+00 -0.23749311184E-01  0.41535249009E-01  0.89245825995E+00  0.88000000000E+00 0. -1.
        -11    1    4    4    0    0  0.96008181518E-01  0.18233914394E-01 -0.30240252984E-01  0.10229751011E+00  0.51100000000E-03 0. -1.
         11    1    4    4    0    0  0.24631685986E-01 -0.48760757875E-02 -0.39074126261E-02  0.25417023115E-01  0.51100000000E-03 0.  1.
</event>
<event>
 8    1  0.1199892E+005  0.1043930E+01  0.7957747E-01            NaN
         13   -1    0    0    0    0  0.00000000000E+00  0.00000000000E+00  0.74505805969E-08  0.10566000000E+00  0.10566000000E+00 0.  1.
     999900   -1    0    0    0    0 -0.00000000000E+00 -0.00000000000E+00 -0.74505805969E-08  0.93827000000E+00  0.93827000000E+00 0. -1.
     999902    2    1    2    0    0 -0.16420413428E-01  0.15997608496E-01  0.11194441152E-01  0.10184178663E+01  0.10180982671E+01 0.  0.
     999903    2    3    3    0    0  0.77142320861E-01 -0.97397553624E-01  0.94162156714E-02  0.12622079716E+00  0.20144562511E-01 0.  0.
         14    1    1    2    0    0  0.16420413428E-01 -0.15997608496E-01 -0.11194441152E-01  0.25512133730E-01  0.00000000000E+00 0. -1.
     999901    1    3    3    0    0 -0.93562734289E-01  0.11339516212E+00  0.17782254807E-02  0.89219706911E+00  0.88000000000E+00 0.  1.
        -11    1    4    4    0    0  0.27585357773E-01 -0.49577570607E-01  0.19828699099E-03  0.56737887778E-01  0.51100000000E-03 0. -1.
         11    1    4    4    0    0  0.49556963088E-01 -0.47819983017E-01  0.92179286804E-02  0.69482909383E-01  0.51100000000E-03 0.  1.
</event>
<event>
 8    1  0.1199892E+005  0.1043930E+01  0.7957747E-01            NaN
         13   -1    0    0    0    0  0.00000000000E+00  0.00000000000E+00  0.74505805969E-08  0.10566000000E+00  0.10566000000E+00 0.  1.
     999900   -1    0    0    0    0 -0.00000000000E+00 -0.00000000000E+00 -0.74505805969E-08  0.93827000000E+00  0.93827000000E+00 0. -1.
     999902    2    1    2    0    0  0.21512508883E-02  0.11554167494E-01 -0.20797294832E-01  0.10200416317E+01  0.10197618723E+01 0.  0.
     999903    2    3    3    0    0 -0.10104443723E+00 -0.47174198439E-01 -0.65268622909E-01  0.13095442000E+00  0.21299851851E-01 0.  0.
         14    1    1    2    0    0 -0.21512508883E-02 -0.11554167494E-01  0.20797294832E-01  0.23888368282E-01  0.00000000000E+00 0.  1.
     999901    1    3    3    0    0  0.10319568812E+00  0.58728365933E-01  0.44471328077E-01  0.88908721171E+00  0.88000000000E+00 0.  1.
        -11    1    4    4    0    0 -0.47003544932E-01 -0.30514662192E-01 -0.24103083471E-01  0.61005717754E-01  0.51100000000E-03 0. -1.
         11    1    4    4    0    0 -0.54040892297E-01 -0.16659536247E-01 -0.41165539439E-01  0.69948702251E-01  0.51100000000E-03 0.  1.
</event>
<event>
 8    1  0.1199892E+005  0.1043930E+01  0.7957747E-01            NaN
         13   -1    0    0    0    0  0.00000000000E+00  0.00000000000E+00  0.74505805969E-08  0.10566000000E+00  0.10566000000E+00 0. -1.
     999900   -1    0    0    0    0 -0.00000000000E+00 -0.00000000000E+00 -0.74505805969E-08  0.93827000000E+00  0.93827000000E+00 0.  1.
     999902    2    1    2    0    0  0.18028089048E-01  0.13727390748E-01  0.12232868032E-01  0.10181793435E+01  0.10178536629E+01 0.  0.
     999903    2    3    3    0    0  0.38452976294E-03 -0.74181608095E-01  0.10336996586E+00  0.12894076026E+00  0.20911981564E-01 0.  0.
         14    1    1    2    0    0 -0.18028089048E-01 -0.13727390748E-01 -0.12232868032E-01  0.25750656531E-01  0.00000000000E+00 0.  1.
     999901    1    3    3    0    0  0.17643559285E-01  0.87908998843E-01 -0.91137097827E-01  0.88923858321E+00  0.88000000000E+00 0. -1.
        -11    1    4    4    0    0  0.38100526119E-02 -0.38141264891E-01  0.69451044561E-01  0.79328313357E-01  0.51100000000E-03 0. -1.
         11    1    4    4    0    0 -0.34255228489E-02 -0.36040343204E-01  0.33918921297E-01  0.49612446906E-01  0.51100000000E-03 0.  1.
</event>
<event>
 8    1  0.1199892E+005  0.1043930E+01  0.7957747E-01            NaN
         13   -1    0    0    0    0  0.00000000000E+00  0.00000000000E+00  0.74505805969E-08  0.10566000000E+00  0.10566000000E+00 0. -1.
     999900   -1    0    0    0    0 -0.00000000000E+00 -0.00000000000E+00 -0.74505805969E-08  0.93827000000E+00  0.93827000000E+00 0. -1.
     999902    2    1    2    0    0 -0.16060481927E-01  0.12185280273E-01  0.68914524357E-02  0.10226247835E+01  0.10224028245E+01 0.  0.
     999903    2    3    3    0    0  0.11528200716E+00 -0.40996737218E-01  0.41093693167E-01  0.13063320856E+00  0.20141249327E-01 0.  0.
         14    1    1    2    0    0  0.16060481927E-01 -0.12185280273E-01 -0.68914524357E-02  0.21305216538E-01  0.00000000000E+00 0.  1.
     999901    1    3    3    0    0 -0.13134248908E+00  0.53182017491E-01 -0.34202240731E-01  0.89199157490E+00  0.88000000000E+00 0. -1.
        -11    1    4    4    0    0  0.83646297613E-01 -0.37408363790E-01  0.25141061309E-01  0.95018013401E-01  0.51100000000E-03 0.  1.
         11    1    4    4    0    0  0.31635709543E-01 -0.35883734281E-02  0.15952631858E-01  0.35615195161E-01  0.51100000000E-03 0. -1.
</event>
<event>
 8    1  0.1199892E+005  0.1043930E+01  0.7957747E-01            NaN
         13   -1    0    0    0    0  0.00000000000E+00  0.00000000000E+00  0.74505805969E-08  0.10566000000E+00  0.10566000000E+00 0.  1.
     999900   -1    0    0    0    0 -0.00000000000E+00 -0.00000000000E+00 -0.74505805969E-08  0.93827000000E+00  0.93827000000E+00 0. -1.
     999902    2    1    2    0    0 -0.10612579259E-01 -0.87021419464E-02 -0.19382785493E-01  0.10201803371E+01  0.10199038552E+01 0.  0.
     999903    2    3    3    0    0 -0.20262708533E-01  0.12537663312E+00  0.14477954870E-01  0.12932861397E+00  0.19657103635E-01 0.  0.
         14    1    1    2    0    0  0.10612579259E-01  0.87021419464E-02  0.19382785493E-01  0.23749662871E-01  0.00000000000E+00 0.  1.
     999901    1    3    3    0    0  0.96501292734E-02 -0.13407877507E+00 -0.33860740363E-01  0.89085172316E+00  0.88000000000E+00 0. -1.
        -11    1    4    4    0    0 -0.37656501199E-02  0.76116443737E-01  0.13303228901E-01  0.77363622900E-01  0.51100000000E-03 0. -1.
         11    1    4    4    0    0 -0.16497058413E-01  0.49260189387E-01  0.11747259692E-02  0.51964991069E-01  0.51100000000E-03 0.  1.
</event>
<event>
 8    1  0.1199892E+005  0.1043930E+01  0.7957747E-01            NaN
         13   -1    0    0    0    0  0.00000000000E+00  0.00000000000E+00  0.74505805969E-08  0.10566000000E+00  0.10566000000E+00 0.  1.
     999900   -1    0    0    0    0 -0.00000000000E+00 -0.00000000000E+00 -0.74505805969E-08  0.93827000000E+00  0.93827000000E+00 0.  1.
     999902    2    1    2    0    0 -0.15228535758E-01  0.17624818397E-01 -0.11781999505E-02  0.10206076785E+01  0.10203411698E+01 0.  0.
     999903    2    3    3    0    0 -0.10791580149E+00  0.22269996993E-01 -0.71855570371E-01  0.13290964561E+00  0.18973084223E-01 0.  0.
         14    1    1    2    0    0  0.15228535758E-01 -0.17624818397E-01  0.11781999505E-02  0.23322321496E-01  0.00000000000E+00 0. -1.
     999901    1    3    3    0    0  0.92687265735E-01 -0.46451785954E-02  0.70677370420E-01  0.88769803289E+00  0.88000000000E+00 0. -1.
        -11    1    4    4    0    0 -0.65393653994E-01  0.42808780684E-02 -0.44938647347E-01  0.79463193027E-01  0.51100000000E-03 0. -1.
         11    1    4    4    0    0 -0.42522147499E-01  0.17989118924E-01 -0.26916923024E-01  0.53446452583E-01  0.51100000000E-03 0.  1.
</event>
<event>
 8    1  0.1199892E+005  0.1043930E+01  0.7957747E-01            NaN
         13   -1    0    0    0    0  0.00000000000E+00  0.00000000000E+00  0.74505805969E-08  0.10566000000E+00  0.10566000000E+00 0. -1.
     999900   -1    0    0    0    0 -0.00000000000E+00 -0.00000000000E+00 -0.74505805969E-08  0.93827000000E+00  0.93827000000E+00 0. -1.
     999902    2    1    2    0    0 -0.15064360032E-01  0.17599374145E-01  0.23951311898E-02  0.10206403120E+01  0.10203745572E+01 0.  0.
     999903    2    3    3    0    0 -0.64459467012E-01 -0.90353487342E-02 -0.11232327929E+00  0.13142177938E+00  0.20457385243E-01 0.  0.
         14    1    1    2    0    0  0.15064360032E-01 -0.17599374145E-01 -0.23951311898E-02  0.23289687995E-01  0.00000000000E+00 0.  1.
     999901    1    3    3    0    0  0.49395106980E-01  0.26634722880E-01  0.11471841048E+00  0.88921853262E+00  0.88000000000E+00 0. -1.
        -11    1    4    4    0    0 -0.97765937276E-02 -0.18040383416E-02 -0.59518387095E-02  0.11598355240E-01  0.51100000000E-03 0. -1.
         11    1    4    4    0    0 -0.54682873284E-01 -0.72313103926E-02 -0.10637144058E+00  0.11982342414E+00  0.51100000000E-03 0.  1.
</event>
<event>
 8    1  0.1199892E+005  0.1043930E+01  0.7957747E-01            NaN
         13   -1    0    0    0    0  0.00000000000E+00  0.00000000000E+00  0.74505805969E-08  0.10566000000E+00  0.10566000000E+00 0.  1.
     999900   -1    0    0    0    0 -0.00000000000E+00 -0.00000000000E+00 -0.74505805969E-08  0.93827000000E+00  0.93827000000E+00 0.  1.
     999902    2    1    2    0    0 -0.16776025662E-01  0.16428536567E-01 -0.55840245726E-02  0.10197946902E+01  0.10195090470E+01 0.  0.
     999903    2    3    3    0    0 -0.80778946418E-01 -0.70743801211E-02 -0.10092895703E+00  0.13202252507E+00  0.25845845317E-01 0.  0.
         14    1    1    2    0    0  0.16776025662E-01 -0.16428536567E-01  0.55840245726E-02  0.24135309842E-01  0.00000000000E+00 0. -1.
     999901    1    3    3    0    0  0.64002920756E-01  0.23502916689E-01  0.95344932458E-01  0.88777216509E+00  0.88000000000E+00 0. -1.
        -11    1    4    4    0    0 -0.67203823122E-01 -0.12215338084E-01 -0.69750054700E-01  0.97626326257E-01  0.51100000000E-03 0. -1.
         11    1    4    4    0    0 -0.13575123296E-01  0.51409579633E-02 -0.31178902330E-01  0.34396198813E-01  0.51100000000E-03 0.  1.
</event>
<event>
 8    1  0.1199892E+005  0.1043930E+01  0.7957747E-01            NaN
         13   -1    0    0    0    0  0.00000000000E+00  0.00000000000E+00  0.74505805969E-08  0.10566000000E+00  0.10566000000E+00 0. -1.
     999900   -1    0    0    0    0 -0.00000000000E+00 -0.00000000000E+00 -0.74505805969E-08  0.93827000000E+00  0.93827000000E+00 0. -1.
     999902    2    1    2    0    0  0.48541911800E-03  0.14613224976E-02  0.24431329283E-01  0.10194501931E+01  0.10191562369E+01 0.  0.
     999903    2    3    3    0    0 -0.67547112955E-01  0.10886730965E+00  0.16246600960E-01  0.13027559761E+00  0.17119454123E-01 0.  0.
         14    1    1    2    0    0 -0.48541911800E-03 -0.14613224976E-02 -0.24431329283E-01  0.24479806897E-01  0.00000000000E+00 0.  1.
     999901    1    3    3    0    0  0.68032532073E-01 -0.10740598716E+00  0.81847283234E-02  0.88917459550E+00  0.88000000000E+00 0. -1.
        -11    1    4    4    0    0 -0.20477770681E-01  0.48559725545E-01  0.84381965905E-02  0.53374622432E-01  0.51100000000E-03 0.  1.
         11    1    4    4    0    0 -0.47069342274E-01  0.60307584109E-01  0.78084043691E-02  0.76900975176E-01  0.51100000000E-03 0. -1.
</event>
<event>
 8    1  0.1199892E+005  0.1043930E+01  0.7957747E-01            NaN
         13   -1    0    0    0    0  0.00000000000E+00  0.00000000000E+00  0.74505805969E-08  0.10566000000E+00  0.10566000000E+00 0.  1.
     999900   -1    0    0    0    0 -0.00000000000E+00 -0.00000000000E+00 -0.74505805969E-08  0.93827000000E+00  0.93827000000E+00 0. -1.
     999902    2    1    2    0    0 -0.16613299951E-01  0.14027744281E-02  0.16921089241E-01  0.10201751527E+01  0.10198985485E+01 0.  0.
     999903    2    3    3    0    0 -0.12565570346E+00  0.60110721620E-03  0.40837632993E-01  0.13312222892E+00  0.16251105254E-01 0.  0.
         14    1    1    2    0    0  0.16613299951E-01 -0.14027744281E-02 -0.16921089241E-01  0.23754847347E-01  0.00000000000E+00 0. -1.
     999901    1    3    3    0    0  0.10904240351E+00  0.80166721190E-03 -0.23916543752E-01  0.88705292373E+00  0.88000000000E+00 0. -1.
        -11    1    4    4    0    0 -0.56485190092E-01  0.21385970965E-02  0.10147229128E-01  0.57431504223E-01  0.51100000000E-03 0.  1.
         11    1    4    4    0    0 -0.69170513372E-01 -0.15374898803E-02  0.30690403865E-01  0.75690724700E-01  0.51100000000E-03 0. -1.
</event>
<event>
 8    1  0.1199892E+005  0.1043930E+01  0.7957747E-01            NaN
         13   -1    0    0    0    0  0.00000000000E+00  0.00000000000E+00  0.74505805969E-08  0.10566000000E+00  0.10566000000E+00 0.  1.
     999900   -1    0    0    0    0 -0.00000000000E+00 -0.00000000000E+00 -0.74505805969E-08  0.93827000000E+00  0.93827000000E+00 0.  1.
     999902    2    1    2    0    0 -0.13730543030E-01  0.73234368756E-02  0.17578700209E-01  0.10204529635E+01  0.10201828658E+01 0.  0.
     999903    2    3    3    0    0 -0.65655055980E-02 -0.12693262165E+00  0.19741867581E-01  0.13023910929E+00  0.20432521906E-01 0.  0.
         14    1    1    2    0    0  0.13730543030E-01 -0.73234368756E-02 -0.17578700209E-01  0.23477036453E-01  0.00000000000E+00 0. -1.
     999901    1    3    3    0    0 -0.71650374322E-02  0.13425605852E+00 -0.21631673715E-02  0.89021385425E+00  0.88000000000E+00 0.  1.
        -11    1    4    4    0    0 -0.80340101213E-02 -0.39569223273E-01 -0.11606227671E-02  0.40396496324E-01  0.51100000000E-03 0.  1.
         11    1    4    4    0    0  0.14685045233E-02 -0.87363398376E-01  0.20902490348E-01  0.89842612969E-01  0.51100000000E-03 0. -1.
</event>
<event>
 8    1  0.1199892E+005  0.1043930E+01  0.7957747E-01            NaN
         13   -1    0    0    0    0  0.00000000000E+00  0.00000000000E+00  0.74505805969E-08  0.10566000000E+00  0.10566000000E+00 0.  1.
     999900   -1    0    0    0    0 -0.00000000000E+00 -0.00000000000E+00 -0.74505805969E-08  0.93827000000E+00  0.93827000000E+00 0.  1.
     999902    2    1    2    0    0 -0.15745919616E-01 -0.85845814635E-02  0.10714290773E-01  0.10230392114E+01  0.10228258908E+01 0.  0.
     999903    2    3    3    0    0 -0.64375135874E-01 -0.11259325827E+00 -0.30345798760E-01  0.13463134529E+00  0.19578858653E-01 0.  0.
         14    1    1    2    0    0  0.15745919616E-01  0.85845814635E-02 -0.10714290773E-01  0.20890788645E-01  0.00000000000E+00 0. -1.
     999901    1    3    3    0    0  0.48629216258E-01  0.10400867681E+00  0.41060089532E-01  0.88840786606E+00  0.88000000000E+00 0.  1.
        -11    1    4    4    0    0 -0.72763354662E-02 -0.25610911292E-01 -0.15716829130E-02  0.26675740725E-01  0.51100000000E-03 0.  1.
         11    1    4    4    0    0 -0.57098800407E-01 -0.86982346981E-01 -0.28774115846E-01  0.10795560457E+00  0.51100000000E-03 0. -1.
</event>
<event>
 8    1  0.1199892E+005  0.1043930E+01  0.7957747E-01            NaN
         13   -1    0    0    0    0  0.00000000000E+00  0.00000000000E+00  0.74505805969E-08  0.10566000000E+00  0.10566000000E+00 0. -1.
     999900   -1    0    0    0    0 -0.00000000000E+00 -0.00000000000E+00 -0.74505805969E-08  0.93827000000E+00  0.93827000000E+00 0.  1.
     999902    2    1    2    0    0 -0.17159054640E-01  0.81603259326E-02  0.13723035617E-01  0.10204918733E+01  0.10202226805E+01 0.  0.
     999903    2    3    3    0    0 -0.45734557512E-02  0.10484596107E+00 -0.76798871210E-01  0.13049146605E+00  0.10787216644E-01 0.  0.
         14    1    1    2    0    0  0.17159054640E-01 -0.81603259326E-02 -0.13723035617E-01  0.23438126674E-01  0.00000000000E+00 0.  1.
     999901    1    3    3    0    0 -0.12585598888E-01 -0.96685635132E-01  0.90521906827E-01  0.89000040728E+00  0.88000000000E+00 0.  1.
        -11    1    4    4    0    0  0.15701188452E-03  0.86320093006E-01 -0.64390013693E-01  0.10769177357E+00  0.51100000000E-03 0.  1.
         11    1    4    4    0    0 -0.47304676358E-02  0.18525868059E-01 -0.12408857517E-01  0.22799692481E-01  0.51100000000E-03 0. -1.
</event>
<event>
 8    1  0.1199892E+005  0.1043930E+01  0.7957747E-01            NaN
         13   -1    0    0    0    0  0.00000000000E+00  0.00000000000E+00  0.74505805969E-08  0.10566000000E+00  0.10566000000E+00 0.  1.
     999900   -1    0    0    0    0 -0.00000000000E+00 -0.00000000000E+00 -0.74505805969E-08  0.93827000000E+00  0.93827000000E+00 0.  1.
     999902    2    1    2    0    0  0.11755449522E-01  0.18295589430E-01 -0.92197811357E-02  0.10203095946E+01  0.10200361490E+01 0.  0.
     999903    2    3    3    0    0 -0.23856951850E-01  0.90781286639E-01 -0.92126480155E-01  0.13273089942E+00  0.17883152961E-01 0.  0.
         14    1    1    2    0    0 -0.11755449522E-01 -0.18295589430E-01  0.92197811357E-02  0.23620405379E-01  0.00000000000E+00 0.  1.
     999901    1    3    3    0    0  0.35612401372E-01 -0.72485697209E-01  0.82906699020E-01  0.88757869520E+00  0.88000000000E+00 0.  1.
        -11    1    4    4    0    0 -0.14051402380E-01  0.47810366048E-01 -0.61006255544E-01  0.78773709745E-01  0.51100000000E-03 0.  1.
         11    1    4    4    0    0 -0.98055494708E-02  0.42970920591E-01 -0.31120224612E-01  0.53957189676E-01  0.51100000000E-03 0. -1.
</event>
<event>
 8    1  0.1199892E+005  0.1043930E+01  0.7957747E-01            NaN
         13   -1    0    0    0    0  0.00000000000E+00  0.00000000000E+00  0.74505805969E-08  0.10566000000E+00  0.10566000000E+00 0. -1.
     999900   -1    0    0    0    0 -0.00000000000E+00 -0.00000000000E+00 -0.74505805969E-08  0.93827000000E+00  0.93827000000E+00 0.  1.
     999902    2    1    2    0    0 -0.22752141108E-01  0.68164806337E-02 -0.58267827792E-03  0.10201715521E+01  0.10198948631E+01 0.  0.
     999903    2    3    3    0    0  0.34273618144E-01 -0.22315306173E-01 -0.12111689624E+00  0.12964974106E+00  0.21612473520E-01 0.  0.
         14    1    1    2    0    0  0.22752141108E-01 -0.68164806337E-02  0.58267827792E-03  0.23758447913E-01  0.00000000000E+00 0. -1.
     999901    1    3    3    0    0 -0.57025759252E-01  0.29131786806E-01  0.12053421796E+00  0.89052181103E+00  0.88000000000E+00 0. -1.
        -11    1    4    4    0    0  0.16118391612E-01 -0.17038127860E-01 -0.40134771946E-01  0.46488293035E-01  0.51100000000E-03 0. -1.
         11    1    4    4    0    0  0.18155226532E-01 -0.52771783128E-02 -0.80982124292E-01  0.83161448022E-01  0.51100000000E-03 0.  1.
</event>
<event>
 8    1  0.1199892E+005  0.1043930E+01  0.7957747E-01            NaN
         13   -1    0    0    0    0  0.00000000000E+00  0.00000000000E+00  0.74505805969E-08  0.10566000000E+00  0.10566000000E+00 0.  1.
     999900   -1    0    0    0    0 -0.00000000000E+00 -0.00000000000E+00 -0.74505805969E-08  0.93827000000E+00  0.93827000000E+00 0.  1.
     999902    2    1    2    0    0 -0.63093977603E-02  0.20782216893E-01  0.94683348866E-02  0.10202369967E+01  0.10199618478E+01 0.  0.
     999903    2    3    3    0    0 -0.93760334386E-01  0.56627174922E-01 -0.70573334247E-01  0.13156428073E+00  0.18191404969E-01 0.  0.
         14    1    1    2    0    0  0.63093977603E-02 -0.20782216893E-01 -0.94683348866E-02  0.23693003283E-01  0.00000000000E+00 0. -1.
     999901    1    3    3    0    0  0.87450936626E-01 -0.35844958030E-01  0.80041669133E-01  0.88867271598E+00  0.88000000000E+00 0. -1.
        -11    1    4    4    0    0 -0.43092449213E-01  0.25886737896E-01 -0.21742972467E-01  0.54773171815E-01  0.51100000000E-03 0.  1.
         11    1    4    4    0    0 -0.50667885173E-01  0.30740437027E-01 -0.48830361780E-01  0.76791108919E-01  0.51100000000E-03 0. -1.
</event>
<event>
 8    1  0.1199892E+005  0.1043930E+01  0.7957747E-01            NaN
         13   -1    0    0    0    0  0.00000000000E+00  0.00000000000E+00  0.74505805969E-08  0.10566000000E+00  0.10566000000E+00 0. -1.
     999900   -1    0    0    0    0 -0.00000000000E+00 -0.00000000000E+00 -0.74505805969E-08  0.93827000000E+00  0.93827000000E+00 0.  1.
     999902    2    1    2    0    0  0.82754011669E-02 -0.22081764419E-01 -0.17742089985E-02  0.10202818626E+01  0.10200077670E+01 0.  0.
     999903    2    3    3    0    0 -0.77015663011E-02  0.87089683644E-01  0.92285207569E-01  0.12841817213E+00  0.18186266128E-01 0.  0.
         14    1    1    2    0    0 -0.82754011669E-02  0.22081764419E-01  0.17742089985E-02  0.23648137387E-01  0.00000000000E+00 0. -1.
     999901    1    3    3    0    0  0.15976967468E-01 -0.10917144806E+00 -0.94059416568E-01  0.89186369049E+00  0.88000000000E+00 0.  1.
        -11    1    4    4    0    0 -0.11120343076E-01  0.30371366231E-01  0.36847316436E-01  0.49031293746E-01  0.51100000000E-03 0.  1.
         11    1    4    4    0    0  0.34187767751E-02  0.56718317413E-01  0.55437891133E-01  0.79386878381E-01  0.51100000000E-03 0. -1.
</event>
<event>
 8    1  0.1199892E+005  0.1043930E+01  0.7957747E-01            NaN
         13   -1    0    0    0    0  0.00000000000E+00  0.00000000000E+00  0.74505805969E-08  0.10566000000E+00  0.10566000000E+00 0.  1.
     999900   -1    0    0    0    0 -0.00000000000E+00 -0.00000000000E+00 -0.74505805969E-08  0.93827000000E+00  0.93827000000E+00 0.  1.
     999902    2    1    2    0    0  0.15142156526E-01  0.19136757457E-01 -0.28852889115E-02  0.10193571434E+01  0.10190609209E+01 0.  0.
     999903    2    3    3    0    0 -0.89555440930E-01 -0.73000708845E-01  0.48744465480E-01  0.12687939512E+00  0.19315214168E-01 0.  0.
         14    1    1    2    0    0 -0.15142156526E-01 -0.19136757457E-01  0.28852889115E-02  0.24572856618E-01  0.00000000000E+00 0.  1.
     999901    1    3    3    0    0  0.10469759746E+00  0.92137466302E-01 -0.51629754391E-01  0.89247774827E+00  0.88000000000E+00 0.  1.
        -11    1    4    4    0    0 -0.56824354942E-01 -0.34907206412E-01  0.31676303801E-01  0.73832037203E-01  0.51100000000E-03 0.  1.
         11    1    4    4    0    0 -0.32731085988E-01 -0.38093502433E-01  0.17068161679E-01  0.53047357914E-01  0.51100000000E-03 0. -1.
</event>
<event>
 8    1  0.1199892E+005  0.1043930E+01  0.7957747E-01            NaN
         13   -1    0    0    0    0  0.00000000000E+00  0.00000000000E+00  0.74505805969E-08  0.10566000000E+00  0.10566000000E+00 0.  1.
     999900   -1    0    0    0    0 -0.00000000000E+00 -0.00000000000E+00 -0.74505805969E-08  0.93827000000E+00  0.93827000000E+00 0.  1.
     999902    2    1    2    0    0  0.47274964595E-02 -0.21449457832E-01  0.88480440775E-02  0.10202505501E+01  0.10199757196E+01 0.  0.
     999903    2    3    3    0    0  0.34876427090E-01 -0.12478740788E+00  0.26543685399E-01  0.13351449823E+00  0.18256277580E-01 0.  0.
         14    1    1    2    0    0 -0.47274964595E-02  0.21449457832E-01 -0.88480440775E-02  0.23679449910E-01  0.00000000000E+00 0. -1.
     999901    1    3    3    0    0 -0.30148930630E-01  0.10333795005E+00 -0.17695641321E-01  0.88673605186E+00  0.88000000000E+00 0.  1.
        -11    1    4    4    0    0  0.11943928275E-01 -0.27282731937E-01 -0.39205292194E-03  0.29789590649E-01  0.51100000000E-03 0.  1.
         11    1    4    4    0    0  0.22932498815E-01 -0.97504675948E-01  0.26935738320E-01  0.10372490758E+00  0.51100000000E-03 0. -1.
</event>
<event>
 7    1  0.1199892E+005  0.1043930E+01  0.7957747E-01            NaN
         13   -1    0    0    0    0  0.00000000000E+00  0.00000000000E+00  0.74505805969E-08  0.10566000000E+00  0.10566000000E+00 0. -1.
     999900   -1    0    0    0    0 -0.00000000000E+00 -0.00000000000E+00 -0.74505805969E-08  0.93827000000E+00  0.93827000000E+00 0. -1.
     999902    2    1    2    0    0 -0.20435063220E-01  0.12880943952E-02 -0.13157864117E-01  0.10195911343E+01  0.10193005939E+01 0.  0.
         14    1    1    2    0    0  0.20435063220E-01 -0.12880943952E-02  0.13157864117E-01  0.24338865711E-01  0.00000000000E+00 0. -1.
     999901    1    3    3    0    0 -0.76511565633E-02 -0.10923227826E+00  0.55942426372E-01  0.88854925912E+00  0.88000000000E+00 0. -1.
        -11    1    3    3    0    0 -0.39074994041E-02  0.20895070347E-01 -0.12395137609E-01  0.24612457694E-01  0.51100000000E-03 0. -1.
         11    1    3    3    0    0 -0.88764072529E-02  0.89625302312E-01 -0.56705152880E-01  0.10642941748E+00  0.51100000000E-03 0.  1.
</event>
<event>
 8    1  0.1199892E+005  0.1043930E+01  0.7957747E-01            NaN
         13   -1    0    0    0    0  0.00000000000E+00  0.00000000000E+00  0.74505805969E-08  0.10566000000E+00  0.10566000000E+00 0. -1.
     999900   -1    0    0    0    0 -0.00000000000E+00 -0.00000000000E+00 -0.74505805969E-08  0.93827000000E+00  0.93827000000E+00 0.  1.
     999902    2    1    2    0    0  0.49608017021E-02 -0.18011414517E-01 -0.14631312232E-01  0.10202003581E+01  0.10199243476E+01 0.  0.
     999903    2    3    3    0    0  0.74943980896E-01  0.62437962832E-01 -0.85045850160E-01  0.13097150408E+00  0.20140476101E-01 0.  0.
         14    1    1    2    0    0 -0.49608017021E-02  0.18011414517E-01  0.14631312232E-01  0.23729641887E-01  0.00000000000E+00 0. -1.
     999901    1    3    3    0    0 -0.69983179194E-01 -0.80449377349E-01  0.70414537928E-01  0.88922885403E+00  0.88000000000E+00 0. -1.
        -11    1    4    4    0    0  0.69363374479E-02  0.12373840216E-01 -0.19243665511E-01  0.23912433632E-01  0.51100000000E-03 0. -1.
         11    1    4    4    0    0  0.68007643448E-01  0.50064122616E-01 -0.65802184649E-01  0.10705907045E+00  0.51100000000E-03 0.  1.
</event>
<event>
 8    1  0.1199892E+005  0.1043930E+01  0.7957747E-01            NaN
         13   -1    0    0    0    0  0.00000000000E+00  0.00000000000E+00  0.74505805969E-08  0.10566000000E+00  0.10566000000E+00 0. -1.
     999900   -1    0    0    0    0 -0.00000000000E+00 -0.00000000000E+00 -0.74505805969E-08  0.93827000000E+00  0.93827000000E+00 0. -1.
     999902    2    1    2    0    0  0.29659036074E-02 -0.10112404916E-01  0.19141671251E-01  0.10220791214E+01  0.10218455213E+01 0.  0.
     999903    2    3    3    0    0  0.11490452670E+00  0.41105515807E-01  0.48450353532E-01  0.13302764392E+00  0.21358923275E-01 0.  0.
         14    1    1    2    0    0 -0.29659036074E-02  0.10112404916E-01 -0.19141671251E-01  0.21850878602E-01  0.00000000000E+00 0.  1.
     999901    1    3    3    0    0 -0.11193862310E+00 -0.51217920724E-01 -0.29308682282E-01  0.88905147748E+00  0.88000000000E+00 0. -1.
        -11    1    4    4    0    0  0.75619251906E-01  0.22571734083E-01  0.21084539734E-01  0.81685821139E-01  0.51100000000E-03 0. -1.
         11    1    4    4    0    0  0.39285274798E-01  0.18533781724E-01  0.27365813798E-01  0.51341822784E-01  0.51100000000E-03 0.  1.
</event>
<event>
 8    1  0.1199892E+005  0.1043930E+01  0.7957747E-01            NaN
         13   -1    0    0    0    0  0.00000000000E+00  0.00000000000E+00  0.74505805969E-08  0.10566000000E+00  0.10566000000E+00 0.  1.
     999900   -1    0    0    0    0 -0.00000000000E+00 -0.00000000000E+00 -0.74505805969E-08  0.93827000000E+00  0.93827000000E+00 0.  1.
     999902    2    1    2    0    0 -0.55848282054E-02 -0.57458129901E-02  0.22756237099E-01  0.10198042669E+01  0.10195188530E+01 0.  0.
     999903    2    3    3    0    0  0.81161055334E-01  0.59749110671E-01 -0.75957202318E-01  0.12763904871E+00  0.19109082751E-01 0.  0.
         14    1    1    2    0    0  0.55848282054E-02  0.57458129901E-02 -0.22756237099E-01  0.24125733147E-01  0.00000000000E+00 0. -1.
     999901    1    3    3    0    0 -0.86745883539E-01 -0.65494923661E-01  0.98713439417E-01  0.89216521814E+00  0.88000000000E+00 0.  1.
        -11    1    4    4    0    0  0.72180249350E-01  0.53393371068E-01 -0.59053187680E-01  0.10746339175E+00  0.51100000000E-03 0. -1.
         11    1    4    4    0    0  0.89808059840E-02  0.63557396024E-02 -0.16904014638E-01  0.20175656963E-01  0.51100000000E-03 0.  1.
</event>
<event>
 8    1  0.1199892E+005  0.1043930E+01  0.7957747E-01            NaN
         13   -1    0    0    0    0  0.00000000000E+00  0.00000000000E+00  0.74505805969E-08  0.10566000000E+00  0.10566000000E+00 0.  1.
     999900   -1    0    0    0    0 -0.00000000000E+00 -0.00000000000E+00 -0.74505805969E-08  0.93827000000E+00  0.93827000000E+00 0.  1.
     999902    2    1    2    0    0 -0.22539383573E-03 -0.15967556309E-02 -0.23892082755E-01  0.10199835587E+01  0.10197024213E+01 0.  0.
     999903    2    3    3    0    0 -0.94283393455E-01  0.84048053781E-02  0.84485764591E-01  0.12830385373E+00  0.19079712508E-01 0.  0.
         14    1    1    2    0    0  0.22539383573E-03  0.15967556309E-02  0.23892082755E-01  0.23946441266E-01  0.00000000000E+00 0.  1.
     999901    1    3    3    0    0  0.94057999619E-01 -0.10001561009E-01 -0.10837784735E+00  0.89167970500E+00  0.88000000000E+00 0.  1.
        -11    1    4    4    0    0 -0.35086023049E-01  0.11630492678E-01  0.37479587829E-01  0.52642929233E-01  0.51100000000E-03 0.  1.
         11    1    4    4    0    0 -0.59197370406E-01 -0.32256872996E-02  0.47006176762E-01  0.75660924500E-01  0.51100000000E-03 0. -1.
</event>
<event>
 8    1  0.1199892E+005  0.1043930E+01  0.7957747E-01            NaN
         13   -1    0    0    0    0  0.00000000000E+00  0.00000000000E+00  0.74505805969E-08  0.10566000000E+00  0.10566000000E+00 0.  1.
     999900   -1    0    0    0    0 -0.00000000000E+00 -0.00000000000E+00 -0.74505805969E-08  0.93827000000E+00  0.93827000000E+00 0.  1.
     999902    2    1    2    0    0  0.11444080083E-01  0.61339933221E-02  0.19084114161E-01  0.10208476202E+01  0.10205866291E+01 0.  0.
     999903    2    3    3    0    0  0.11990550328E+00  0.47164708841E-01  0.26511571343E-01  0.13320886089E+00  0.20973739001E-01 0.  0.
         14    1    1    2    0    0 -0.11444080083E-01 -0.61339933221E-02 -0.19084114161E-01  0.23082379780E-01  0.00000000000E+00 0. -1.
     999901    1    3    3    0    0 -0.10846142320E+00 -0.41030715519E-01 -0.74274571823E-02  0.88763875933E+00  0.88000000000E+00 0. -1.
        -11    1    4    4    0    0  0.28757469547E-01  0.20086704739E-01  0.11665050898E-01  0.36970289362E-01  0.51100000000E-03 0.  1.
         11    1    4    4    0    0  0.91148033736E-01  0.27078004103E-01  0.14846520445E-01  0.96238571532E-01  0.51100000000E-03 0. -1.
</event>
<event>
 8    1  0.1199892E+005  0.1043930E+01  0.7957747E-01            NaN
         13   -1    0    0    0    0  0.00000000000E+00  0.00000000000E+00  0.74505805969E-08  0.10566000000E+00  0.10566000000E+00 0. -1.
     999900   -1    0    0    0    0 -0.00000000000E+00 -0.00000000000E+00 -0.74505805969E-08  0.93827000000E+00  0.93827000000E+00 0.  1.
     999902    2    1    2    0    0  0.19972396083E-01 -0.11802232733E-01  0.96125202809E-02  0.10188184519E+01  0.10185089337E+01 0.  0.
     999903    2    3    3    0    0 -0.11836104543E+00 -0.50386747192E-02  0.41409583285E-01  0.12741902403E+00  0.22048328264E-01 0.  0.
         14    1    1    2    0    0 -0.19972396083E-01  0.11802232733E-01 -0.96125202809E-02  0.25111548119E-01  0.00000000000E+00 0.  1.
     999901    1    3    3    0    0  0.13833344151E+00 -0.67635580139E-02 -0.31797063004E-01  0.89139942785E+00  0.88000000000E+00 0.  1.
        -11    1    4    4    0    0 -0.46858416044E-01 -0.88551967036E-02  0.25447853738E-01  0.54055342416E-01  0.51100000000E-03 0. -1.
         11    1    4    4    0    0 -0.71502629384E-01  0.38165219844E-02  0.15961729547E-01  0.73363681615E-01  0.51100000000E-03 0.  1.
</event>
<event>
 8    1  0.1199892E+005  0.1043930E+01  0.7957747E-01            NaN
         13   -1    0    0    0    0  0.00000000000E+00  0.00000000000E+00  0.74505805969E-08  0.10566000000E+00  0.10566000000E+00 0.  1.
     999900   -1    0    0    0    0 -0.00000000000E+00 -0.00000000000E+00 -0.74505805969E-08  0.93827000000E+00  0.93827000000E+00 0.  1.
     999902    2    1    2    0    0 -0.10544915637E-01 -0.23346198619E-01  0.87962624631E-02  0.10168446817E+01  0.10164838868E+01 0.  0.
     999903    2    3    3    0    0  0.10288281750E+00  0.40782702981E-01  0.56767172997E-01  0.12595772199E+00  0.19867883638E-01 0.  0.
         14    1    1    2    0    0  0.10544915637E-01  0.23346198619E-01 -0.87962624631E-02  0.27085318330E-01  0.00000000000E+00 0. -1.
     999901    1    3    3    0    0 -0.11342773314E+00 -0.64128901600E-01 -0.47970910534E-01  0.89088695968E+00  0.88000000000E+00 0.  1.
        -11    1    4    4    0    0  0.57041580180E-01  0.12065475438E-01  0.31095433207E-01  0.66079532794E-01  0.51100000000E-03 0.  1.
         11    1    4    4    0    0  0.45841237320E-01  0.28717227543E-01  0.25671739790E-01  0.59878189198E-01  0.51100000000E-03 0. -1.
</event>
<event>
 8    1  0.1215077E+005  0.1043930E+01  0.7957747E-01            NaN
         13   -1    0    0    0    0  0.00000000000E+00  0.00000000000E+00  0.74505805969E-08  0.10566000000E+00  0.10566000000E+00 0. -1.
     999900   -1    0    0    0    0 -0.00000000000E+00 -0.00000000000E+00 -0.74505805969E-08  0.93827000000E+00  0.93827000000E+00 0.  1.
     999902    2    1    2    0    0 -0.21514524511E-01 -0.18584040801E-02  0.95532052641E-02  0.10203166105E+01  0.10200433293E+01 0.  0.
     999903    2    3    3    0    0 -0.64114222041E-01  0.96117406060E-01 -0.59396665276E-01  0.13117765726E+00  0.18177587930E-01 0.  0.
         14    1    1    2    0    0  0.21514524511E-01  0.18584040801E-02 -0.95532052641E-02  0.23613389453E-01  0.00000000000E+00 0.  1.
     999901    1    3    3    0    0  0.42599697530E-01 -0.97975810140E-01  0.68949870540E-01  0.88913895329E+00  0.88000000000E+00 0. -1.
        -11    1    4    4    0    0 -0.18348007176E-01  0.36776832468E-01 -0.13330069532E-01  0.43210376629E-01  0.51100000000E-03 0. -1.
         11    1    4    4    0    0 -0.45766214865E-01  0.59340573592E-01 -0.46066595744E-01  0.87967280632E-01  0.51100000000E-03 0.  1.
</event>
<event>
 8    1  0.1199892E+005  0.1043930E+01  0.7957747E-01            NaN
         13   -1    0    0    0    0  0.00000000000E+00  0.00000000000E+00  0.74505805969E-08  0.10566000000E+00  0.10566000000E+00 0.  1.
     999900   -1    0    0    0    0 -0.00000000000E+00 -0.00000000000E+00 -0.74505805969E-08  0.93827000000E+00  0.93827000000E+00 0. -1.
     999902    2    1    2    0    0 -0.11859036874E-01 -0.21780002345E-01  0.49184909806E-02  0.10186476581E+01  0.10183338620E+01 0.  0.
     999903    2    3    3    0    0  0.11299805333E+00  0.15334885041E-01  0.54541605811E-01  0.12767669261E+00  0.17967535069E-01 0.  0.
         14    1    1    2    0    0  0.11859036874E-01  0.21780002345E-01 -0.49184909806E-02  0.25282341887E-01  0.00000000000E+00 0.  1.
     999901    1    3    3    0    0 -0.12485709020E+00 -0.37114887386E-01 -0.49623114830E-01  0.89097096550E+00  0.88000000000E+00 0.  1.
        -11    1    4    4    0    0  0.84916150595E-01  0.90079412342E-02  0.32311369641E-01  0.91302690903E-01  0.51100000000E-03 0. -1.
         11    1    4    4    0    0  0.28081902735E-01  0.63269438064E-02  0.22230236170E-01  0.36374001709E-01  0.51100000000E-03 0.  1.
</event>
<event>
 8    1  0.1199892E+005  0.1043930E+01  0.7957747E-01            NaN
         13   -1    0    0    0    0  0.00000000000E+00  0.00000000000E+00  0.74505805969E-08  0.10566000000E+00  0.10566000000E+00 0. -1.
     999900   -1    0    0    0    0 -0.00000000000E+00 -0.00000000000E+00 -0.74505805969E-08  0.93827000000E+00  0.93827000000E+00 0.  1.
     999902    2    1    2    0    0  0.18814444888E-01  0.41769294781E-02 -0.13788827825E-01  0.10202327038E+01  0.10199574540E+01 0.  0.
     999903    2    3    3    0    0 -0.53855666060E-02 -0.12743354917E+00 -0.16411024740E-01  0.13011258009E+00  0.19790098100E-01 0.  0.
         14    1    1    2    0    0 -0.18814444888E-01 -0.41769294781E-02  0.13788827825E-01  0.23697296240E-01  0.00000000000E+00 0. -1.
     999901    1    3    3    0    0  0.24200011494E-01  0.13161047865E+00  0.26221969158E-02  0.89012012367E+00  0.88000000000E+00 0. -1.
        -11    1    4    4    0    0 -0.10894727600E-02 -0.25126951855E-01 -0.11327394463E-01  0.27588433206E-01  0.51100000000E-03 0.  1.
         11    1    4    4    0    0 -0.42960938460E-02 -0.10230659731E+00 -0.50836302774E-02  0.10252414688E+00  0.51100000000E-03 0. -1.
</event>
<event>
 8    1  0.1199892E+005  0.1043930E+01  0.7957747E-01            NaN
         13   -1    0    0    0    0  0.00000000000E+00  0.00000000000E+00  0.74505805969E-08  0.10566000000E+00  0.10566000000E+00 0.  1.
     999900   -1    0    0    0    0 -0.00000000000E+00 -0.00000000000E+00 -0.74505805969E-08  0.93827000000E+00  0.93827000000E+00 0.  1.
     999902    2    1    2    0    0  0.54746599336E-02 -0.45539787186E-03  0.19022878987E-01  0.10241297673E+01  0.10239383434E+01 0.  0.
     999903    2    3    3    0    0  0.11810688428E+00 -0.18969919243E-01  0.61586450256E-01  0.13573770126E+00  0.17964930765E-01 0.  0.
         14    1    1    2    0    0 -0.54746599336E-02  0.45539787186E-03 -0.19022878987E-01  0.19800232664E-01  0.00000000000E+00 0. -1.
     999901    1    3    3    0    0 -0.11263222435E+00  0.18514521371E-01 -0.42563571269E-01  0.88839206607E+00  0.88000000000E+00 0.  1.
        -11    1    4    4    0    0  0.39666510694E-01 -0.17538632746E-02  0.28511924639E-01  0.48884548425E-01  0.51100000000E-03 0.  1.
         11    1    4    4    0    0  0.78440373590E-01 -0.17216055969E-01  0.33074525616E-01  0.86853152838E-01  0.51100000000E-03 0. -1.
</event>
<event>
 8    1  0.1199892E+005  0.1043930E+01  0.7957747E-01            NaN
         13   -1    0    0    0    0  0.00000000000E+00  0.00000000000E+00  0.74505805969E-08  0.10566000000E+00  0.10566000000E+00 0.  1.
     999900   -1    0    0    0    0 -0.00000000000E+00 -0.00000000000E+00 -0.74505805969E-08  0.93827000000E+00  0.93827000000E+00 0. -1.
     999902    2    1    2    0    0  0.22338314197E-01 -0.52734295298E-02 -0.11319187103E-02  0.10209497785E+01  0.10206911186E+01 0.  0.
     999903    2    3    3    0    0 -0.10619666299E+00  0.40290118468E-02  0.69852156445E-01  0.12873539019E+00  0.19987815337E-01 0.  0.
         14    1    1    2    0    0 -0.22338314197E-01  0.52734295298E-02  0.11319187103E-02  0.22980221499E-01  0.00000000000E+00 0. -1.
     999901    1    3    3    0    0  0.12853497719E+00 -0.93024413766E-02 -0.70984075155E-01  0.89221438831E+00  0.88000000000E+00 0. -1.
        -11    1    4    4    0    0 -0.85793480011E-01  0.11132449486E-01  0.55128229170E-01  0.10258574665E+00  0.51100000000E-03 0.  1.
         11    1    4    4    0    0 -0.20403182979E-01 -0.71034376390E-02  0.14723927275E-01  0.26149643541E-01  0.51100000000E-03 0. -1.
</event>
<event>
 8    1  0.1199892E+005  0.1043930E+01  0.7957747E-01            NaN
         13   -1    0    0    0    0  0.00000000000E+00  0.00000000000E+00  0.74505805969E-08  0.10566000000E+00  0.10566000000E+00 0.  1.
     999900   -1    0    0    0    0 -0.00000000000E+00 -0.00000000000E+00 -0.74505805969E-08  0.93827000000E+00  0.93827000000E+00 0.  1.
     999902    2    1    2    0    0  0.21966831934E-01 -0.10080913240E-01  0.16862680516E-02  0.10197017104E+01  0.10194138356E+01 0.  0.
     999903    2    3    3    0    0  0.63462819983E-01  0.36359574775E-01 -0.10676378122E+00  0.13085973955E+00  0.19396346492E-01 0.  0.
         14    1    1    2    0    0 -0.21966831934E-01  0.10080913240E-01 -0.16862680516E-02  0.24228289599E-01  0.00000000000E+00 0. -1.
     999901    1    3    3    0    0 -0.41495988050E-01 -0.46440488014E-01  0.10845004927E+00  0.88884197085E+00  0.88000000000E+00 0. -1.
        -11    1    4    4    0    0  0.21314681002E-01  0.18854867021E-01 -0.28618809128E-01  0.40362346234E-01  0.51100000000E-03 0.  1.
         11    1    4    4    0    0  0.42148138981E-01  0.17504707753E-01 -0.78144972094E-01  0.90497393320E-01  0.51100000000E-03 0. -1.
</event>
<event>
 8    1  0.1199892E+005  0.1043930E+01  0.7957747E-01            NaN
         13   -1    0    0    0    0  0.00000000000E+00  0.00000000000E+00  0.74505805969E-08  0.10566000000E+00  0.10566000000E+00 0. -1.
     999900   -1    0    0    0    0 -0.00000000000E+00 -0.00000000000E+00 -0.74505805969E-08  0.93827000000E+00  0.93827000000E+00 0.  1.
     999902    2    1    2    0    0  0.10690145490E-01  0.20719914617E-01 -0.95884994237E-03  0.10205951877E+01  0.10203283901E+01 0.  0.
     999903    2    3    3    0    0  0.14869684972E-01 -0.34653671063E-01  0.12297131565E+00  0.13017821319E+00  0.20060864078E-01 0.  0.
         14    1    1    2    0    0 -0.10690145490E-01 -0.20719914617E-01  0.95884994237E-03  0.23334812310E-01  0.00000000000E+00 0.  1.
     999901    1    3    3    0    0 -0.41795394817E-02  0.55373585680E-01 -0.12393016559E+00  0.89041697450E+00  0.88000000000E+00 0.  1.
        -11    1    4    4    0    0  0.15117587983E-02 -0.29502251443E-02  0.42858206923E-01  0.42989257550E-01  0.51100000000E-03 0. -1.
         11    1    4    4    0    0  0.13357926174E-01 -0.31703445919E-01  0.80113108722E-01  0.87188955636E-01  0.51100000000E-03 0.  1.
</event>
<event>
 8    1  0.1199892E+005  0.1043930E+01  0.7957747E-01            NaN
         13   -1    0    0    0    0  0.00000000000E+00  0.00000000000E+00  0.74505805969E-08  0.10566000000E+00  0.10566000000E+00 0.  1.
     999900   -1    0    0    0    0 -0.00000000000E+00 -0.00000000000E+00 -0.74505805969E-08  0.93827000000E+00  0.93827000000E+00 0. -1.
     999902    2    1    2    0    0  0.27365708476E-01  0.86198230046E-02  0.53588102783E-02  0.10147426706E+01  0.10143228221E+01 0.  0.
     999903    2    3    3    0    0 -0.46878976167E-01  0.88815162008E-01 -0.71992275637E-01  0.12461528867E+00  0.16134156631E-01 0.  0.
         14    1    1    2    0    0 -0.27365708476E-01 -0.86198230046E-02 -0.53588102783E-02  0.29187329385E-01  0.00000000000E+00 0.  1.
     999901    1    3    3    0    0  0.74244684642E-01 -0.80195339003E-01  0.77351085915E-01  0.89012738194E+00  0.88000000000E+00 0.  1.
        -11    1    4    4    0    0 -0.21002868392E-01  0.28623155263E-01 -0.32366457704E-01  0.48044294179E-01  0.51100000000E-03 0.  1.
         11    1    4    4    0    0 -0.25876107775E-01  0.60192006745E-01 -0.39625817933E-01  0.76570994492E-01  0.51100000000E-03 0. -1.
</event>
<event>
 8    1  0.1199892E+005  0.1043930E+01  0.7957747E-01            NaN
         13   -1    0    0    0    0  0.00000000000E+00  0.00000000000E+00  0.74505805969E-08  0.10566000000E+00  0.10566000000E+00 0. -1.
     999900   -1    0    0    0    0 -0.00000000000E+00 -0.00000000000E+00 -0.74505805969E-08  0.93827000000E+00  0.93827000000E+00 0.  1.
     999902    2    1    2    0    0  0.16358012775E-01 -0.10528322235E-01 -0.12385460932E-01  0.10208685648E+01  0.10206080525E+01 0.  0.
     999903    2    3    3    0    0  0.10428961967E+00  0.77788057657E-01  0.74989861041E-02  0.13186511054E+00  0.20121279789E-01 0.  0.
         14    1    1    2    0    0 -0.16358012775E-01  0.10528322235E-01  0.12385460932E-01  0.23061435201E-01  0.00000000000E+00 0. -1.
     999901    1    3    3    0    0 -0.87931606895E-01 -0.88316379893E-01 -0.19884447036E-01  0.88900345426E+00  0.88000000000E+00 0.  1.
        -11    1    4    4    0    0  0.10786255205E-01  0.14495233240E-01 -0.35264505193E-02  0.18416081621E-01  0.51100000000E-03 0.  1.
         11    1    4    4    0    0  0.93503364465E-01  0.63292824418E-01  0.11025436623E-01  0.11344902892E+00  0.51100000000E-03 0. -1.
</event>
<event>
 8    1  0.1199892E+005  0.1043930E+01  0.7957747E-01            NaN
         13   -1    0    0    0    0  0.00000000000E+00  0.00000000000E+00  0.74505805969E-08  0.10566000000E+00  0.10566000000E+00 0. -1.
     999900   -1    0    0    0    0 -0.00000000000E+00 -0.00000000000E+00 -0.74505805969E-08  0.93827000000E+00  0.93827000000E+00 0.  1.
     999902    2    1    2    0    0 -0.41937617527E-02 -0.16849781411E-01 -0.16163232793E-01  0.10202075873E+01  0.10199317469E+01 0.  0.
     999903    2    3    3    0    0  0.10271890101E+00  0.77230138274E-02  0.74417222710E-01  0.12878234720E+00  0.20884260742E-01 0.  0.
         14    1    1    2    0    0  0.41937617527E-02  0.16849781411E-01  0.16163232793E-01  0.23722412726E-01  0.00000000000E+00 0. -1.
     999901    1    3    3    0    0 -0.10691266276E+00 -0.24572795238E-01 -0.90580455503E-01  0.89142524008E+00  0.88000000000E+00 0.  1.
        -11    1    4    4    0    0  0.57502024967E-01  0.17011745647E-02  0.29061064131E-01  0.64452955243E-01  0.51100000000E-03 0.  1.
         11    1    4    4    0    0  0.45216876043E-01  0.60218392627E-02  0.45356158580E-01  0.64329391955E-01  0.51100000000E-03 0. -1.
</event>
<event>
 8    1  0.1199892E+005  0.1043930E+01  0.7957747E-01            NaN
         13   -1    0    0    0    0  0.00000000000E+00  0.00000000000E+00  0.74505805969E-08  0.10566000000E+00  0.10566000000E+00 0.  1.
     999900   -1    0    0    0    0 -0.00000000000E+00 -0.00000000000E+00 -0.74505805969E-08  0.93827000000E+00  0.93827000000E+00 0.  1.
     999902    2    1    2    0    0 -0.10396763392E-01 -0.20610779253E-01 -0.41457281754E-02  0.10204761310E+01  0.10202065722E+01 0.  0.
     999903    2    3    3    0    0 -0.73471273600E-01  0.34904983762E-01  0.99860793296E-01  0.13037627686E+00  0.20233872428E-01 0.  0.
         14    1    1    2    0    0  0.10396763392E-01  0.20610779253E-01  0.41457281754E-02  0.23453869032E-01  0.00000000000E+00 0. -1.
     999901    1    3    3    0    0  0.63074510209E-01 -0.55515763016E-01 -0.10400652147E+00  0.89009985411E+00  0.88000000000E+00 0.  1.
        -11    1    4    4    0    0 -0.44869482411E-01  0.12865974310E-01  0.66246140062E-01  0.81040828851E-01  0.51100000000E-03 0.  1.
         11    1    4    4    0    0 -0.28601791190E-01  0.22039009452E-01  0.33614653234E-01  0.49335448005E-01  0.51100000000E-03 0. -1.
</event>
<event>
 8    1  0.1199892E+005  0.1043930E+01  0.7957747E-01            NaN
         13   -1    0    0    0    0  0.00000000000E+00  0.00000000000E+00  0.74505805969E-08  0.10566000000E+00  0.10566000000E+00 0. -1.
     999900   -1    0    0    0    0 -0.00000000000E+00 -0.00000000000E+00 -0.74505805969E-08  0.93827000000E+00  0.93827000000E+00 0.  1.
     999902    2    1    2    0    0  0.15178034357E-01  0.24946339820E-02 -0.18393089402E-01  0.10199528929E+01  0.10196710264E+01 0.  0.
     999903    2    3    3    0    0  0.55700648498E-01  0.10538678419E+00  0.49113920232E-01  0.13046648315E+00  0.20009736149E-01 0.  0.
         14    1    1    2    0    0 -0.15178034357E-01 -0.24946339820E-02  0.18393089402E-01  0.23977107069E-01  0.00000000000E+00 0. -1.
     999901    1    3    3    0    0 -0.40522614141E-01 -0.10289215021E+00 -0.67507009634E-01  0.88948640978E+00  0.88000000000E+00 0. -1.
        -11    1    4    4    0    0  0.55023189870E-01  0.10543564491E+00  0.46465955746E-01  0.12768544477E+00  0.51100000000E-03 0.  1.
         11    1    4    4    0    0  0.67745862771E-03 -0.48860724713E-04  0.26479644856E-02  0.27810383815E-02  0.51100000000E-03 0. -1.
</event>
<event>
 8    1  0.1199892E+005  0.1043930E+01  0.7957747E-01            NaN
         13   -1    0    0    0    0  0.00000000000E+00  0.00000000000E+00  0.74505805969E-08  0.10566000000E+00  0.10566000000E+00 0. -1.
     999900   -1    0    0    0    0 -0.00000000000E+00 -0.00000000000E+00 -0.74505805969E-08  0.93827000000E+00  0.93827000000E+00 0. -1.
     999902    2    1    2    0    0  0.13747241682E-01  0.19084165349E-01 -0.28616162413E-02  0.10202365227E+01  0.10199613627E+01 0.  0.
     999903    2    3    3    0    0  0.62215528536E-01  0.30911810559E-02 -0.11445604022E+00  0.13172188247E+00  0.19239069236E-01 0.  0.
         14    1    1    2    0    0 -0.13747241682E-01 -0.19084165349E-01  0.28616162413E-02  0.23693477339E-01  0.00000000000E+00 0.  1.
     999901    1    3    3    0    0 -0.48468286854E-01  0.15992984293E-01  0.11159442398E+00  0.88851464020E+00  0.88000000000E+00 0.  1.
        -11    1    4    4    0    0  0.57062965764E-01  0.52177447700E-03 -0.89813069995E-01  0.10641006989E+00  0.51100000000E-03 0.  1.
         11    1    4    4    0    0  0.51525627716E-02  0.25694065789E-02 -0.24642970229E-01  0.25311812579E-01  0.51100000000E-03 0. -1.
</event>
<event>
 7    1  0.1199892E+005  0.1043930E+01  0.7957747E-01            NaN
         13   -1    0    0    0    0  0.00000000000E+00  0.00000000000E+00  0.74505805969E-08  0.10566000000E+00  0.10566000000E+00 0. -1.
     999900   -1    0    0    0    0 -0.00000000000E+00 -0.00000000000E+00 -0.74505805969E-08  0.93827000000E+00  0.93827000000E+00 0. -1.
     999903    2    1    2    0    0  0.13815645866E-01 -0.45370156177E-02  0.94477774525E-01  0.98012837729E-01  0.21656636376E-01 0.  0.
         14    1    1    2    0    0 -0.97862858389E-02  0.37937592902E-02 -0.64551170682E-01  0.65398911585E-01  0.00000000000E+00 0.  1.
     999901    1    1    2    0    0 -0.40293600267E-02  0.74325632749E-03 -0.29926603843E-01  0.88051825069E+00  0.88000000000E+00 0. -1.
        -11    1    3    3    0    0  0.12798615813E-01  0.62619658486E-02  0.40042185929E-01  0.42504759240E-01  0.51100000000E-03 0.  1.
         11    1    3    3    0    0  0.10170300524E-02 -0.10798981466E-01  0.54435588596E-01  0.55508078490E-01  0.51100000000E-03 0. -1.
</event>
<event>
 8    1  0.1199892E+005  0.1043930E+01  0.7957747E-01            NaN
         13   -1    0    0    0    0  0.00000000000E+00  0.00000000000E+00  0.74505805969E-08  0.10566000000E+00  0.10566000000E+00 0. -1.
     999900   -1    0    0    0    0 -0.00000000000E+00 -0.00000000000E+00 -0.74505805969E-08  0.93827000000E+00  0.93827000000E+00 0.  1.
     999902    2    1    2    0    0 -0.19662173915E-02  0.51632908430E-02  0.23986042703E-01  0.10193158612E+01  0.10190186304E+01 0.  0.
     999903    2    3    3    0    0 -0.75859063155E-01  0.62758937194E-01  0.85892719461E-01  0.13218010625E+00  0.20018480716E-01 0.  0.
         14    1    1    2    0    0  0.19662173915E-02 -0.51632908430E-02 -0.23986042703E-01  0.24614138776E-01  0.00000000000E+00 0.  1.
     999901    1    3    3    0    0  0.73892845763E-01 -0.57595646351E-01 -0.61906676758E-01  0.88713575498E+00  0.88000000000E+00 0.  1.
        -11    1    4    4    0    0 -0.19525747122E-01  0.61946266020E-02  0.14749713023E-01  0.25247640576E-01  0.51100000000E-03 0. -1.
         11    1    4    4    0    0 -0.56333316033E-01  0.56564310592E-01  0.71143006438E-01  0.10693246567E+00  0.51100000000E-03 0.  1.
</event>
<event>
 8    1  0.1199892E+005  0.1043930E+01  0.7957747E-01            NaN
         13   -1    0    0    0    0  0.00000000000E+00  0.00000000000E+00  0.74505805969E-08  0.10566000000E+00  0.10566000000E+00 0. -1.
     999900   -1    0    0    0    0 -0.00000000000E+00 -0.00000000000E+00 -0.74505805969E-08  0.93827000000E+00  0.93827000000E+00 0.  1.
     999902    2    1    2    0    0  0.26373299259E-02 -0.23485019076E-01  0.16966692340E-03  0.10202967519E+01  0.10200230054E+01 0.  0.
     999903    2    3    3    0    0 -0.23913653822E-01  0.67736254599E-01 -0.10522319720E+00  0.12893042352E+00  0.19775486196E-01 0.  0.
         14    1    1    2    0    0 -0.26373299259E-02  0.23485019076E-01 -0.16966692340E-03  0.23633248127E-01  0.00000000000E+00 0.  1.
     999901    1    3    3    0    0  0.26550983748E-01 -0.91221273676E-01  0.10539286412E+00  0.89136632835E+00  0.88000000000E+00 0. -1.
        -11    1    4    4    0    0 -0.13720756201E-01  0.15602814198E-01 -0.22609222415E-01  0.30710666239E-01  0.51100000000E-03 0.  1.
         11    1    4    4    0    0 -0.10192897622E-01  0.52133440401E-01 -0.82613974786E-01  0.98219757284E-01  0.51100000000E-03 0. -1.
</event>
<event>
 8    1  0.1199892E+005  0.1043930E+01  0.7957747E-01            NaN
         13   -1    0    0    0    0  0.00000000000E+00  0.00000000000E+00  0.74505805969E-08  0.10566000000E+00  0.10566000000E+00 0. -1.
     999900   -1    0    0    0    0 -0.00000000000E+00 -0.00000000000E+00 -0.74505805969E-08  0.93827000000E+00  0.93827000000E+00 0. -1.
     999902    2    1    2    0    0 -0.18897980751E-01  0.13101038628E-01 -0.12241433308E-01  0.10178795954E+01  0.10175461892E+01 0.  0.
     999903    2    3    3    0    0  0.39749784945E-02  0.12450632095E+00  0.29726150200E-01  0.12956907130E+00  0.19669159094E-01 0.  0.
         14    1    1    2    0    0  0.18897980751E-01 -0.13101038628E-01  0.12241433308E-01  0.26050404585E-01  0.00000000000E+00 0.  1.
     999901    1    3    3    0    0 -0.22872959246E-01 -0.11140528233E+00 -0.41967583508E-01  0.88831052412E+00  0.88000000000E+00 0. -1.
        -11    1    4    4    0    0 -0.75787445115E-02  0.49637482243E-01  0.88578435617E-02  0.50990582713E-01  0.51100000000E-03 0. -1.
         11    1    4    4    0    0  0.11553723006E-01  0.74868838710E-01  0.20868306638E-01  0.78578488584E-01  0.51100000000E-03 0.  1.
</event>
<event>
 8    1  0.1199892E+005  0.1043930E+01  0.7957747E-01            NaN
         13   -1    0    0    0    0  0.00000000000E+00  0.00000000000E+00  0.74505805969E-08  0.10566000000E+00  0.10566000000E+00 0. -1.
     999900   -1    0    0    0    0 -0.00000000000E+00 -0.00000000000E+00 -0.74505805969E-08  0.93827000000E+00  0.93827000000E+00 0.  1.
     999902    2    1    2    0    0  0.59703798645E-02  0.21934191025E-01 -0.36125335327E-02  0.10209125160E+01  0.10206530070E+01 0.  0.
     999903    2    3    3    0    0 -0.79091373535E-01 -0.19656065312E-01  0.98164552069E-01  0.13000072099E+00  0.24941970735E-01 0.  0.
         14    1    1    2    0    0 -0.59703798645E-02 -0.21934191025E-01  0.36125335327E-02  0.23017484010E-01  0.00000000000E+00 0.  1.
     999901    1    3    3    0    0  0.85061753400E-01  0.41590256337E-01 -0.10177708560E+00  0.89091179500E+00  0.88000000000E+00 0.  1.
        -11    1    4    4    0    0 -0.44081101673E-02 -0.73922761896E-02  0.16761171855E-01  0.18848744931E-01  0.51100000000E-03 0.  1.
         11    1    4    4    0    0 -0.74683263368E-01 -0.12263789123E-01  0.81403380214E-01  0.11115197606E+00  0.51100000000E-03 0. -1.
</event>
<event>
 8    1  0.1199892E+005  0.1043930E+01  0.7957747E-01            NaN
         13   -1    0    0    0    0  0.00000000000E+00  0.00000000000E+00  0.74505805969E-08  0.10566000000E+00  0.10566000000E+00 0.  1.
     999900   -1    0    0    0    0 -0.00000000000E+00 -0.00000000000E+00 -0.74505805969E-08  0.93827000000E+00  0.93827000000E+00 0. -1.
     999902    2    1    2    0    0  0.19437252149E-01 -0.75689839729E-02 -0.13926340149E-01  0.10188493453E+01  0.10185405977E+01 0.  0.
     999903    2    3    3    0    0 -0.72361537793E-01 -0.98702901286E-01  0.32389571029E-01  0.12818803351E+00  0.20115485317E-01 0.  0.
         14    1    1    2    0    0 -0.19437252149E-01  0.75689839729E-02  0.13926340149E-01  0.25080654685E-01  0.00000000000E+00 0.  1.
     999901    1    3    3    0    0  0.91798789942E-01  0.91133917313E-01 -0.46315911178E-01  0.89066131181E+00  0.88000000000E+00 0. -1.
        -11    1    4    4    0    0 -0.29361717597E-01 -0.56078726861E-01  0.19986834292E-01  0.66382744238E-01  0.51100000000E-03 0.  1.
         11    1    4    4    0    0 -0.42999820197E-01 -0.42624174425E-01  0.12402736736E-01  0.61805289271E-01  0.51100000000E-03 0. -1.
</event>
<event>
 8    1  0.1199892E+005  0.1043930E+01  0.7957747E-01            NaN
         13   -1    0    0    0    0  0.00000000000E+00  0.00000000000E+00  0.74505805969E-08  0.10566000000E+00  0.10566000000E+00 0. -1.
     999900   -1    0    0    0    0 -0.00000000000E+00 -0.00000000000E+00 -0.74505805969E-08  0.93827000000E+00  0.93827000000E+00 0.  1.
     999902    2    1    2    0    0  0.12456676111E-01 -0.61996516569E-02  0.19165958835E-01  0.10202458610E+01  0.10199709204E+01 0.  0.
     999903    2    3    3    0    0  0.17504416484E-01 -0.10546061068E+00  0.75949662007E-01  0.13283242491E+00  0.21160268138E-01 0.  0.
         14    1    1    2    0    0 -0.12456676111E-01  0.61996516569E-02 -0.19165958835E-01  0.23684138964E-01  0.00000000000E+00 0.  1.
     999901    1    3    3    0    0 -0.50477403734E-02  0.99260959022E-01 -0.56783703172E-01  0.88741343612E+00  0.88000000000E+00 0.  1.
        -11    1    4    4    0    0  0.17860099852E-01 -0.51652270809E-01  0.31847733841E-01  0.63257248741E-01  0.51100000000E-03 0. -1.
         11    1    4    4    0    0 -0.35568336808E-03 -0.53808339870E-01  0.44101928166E-01  0.69575176171E-01  0.51100000000E-03 0.  1.
</event>
<event>
 8    1  0.1199892E+005  0.1043930E+01  0.7957747E-01            NaN
         13   -1    0    0    0    0  0.00000000000E+00  0.00000000000E+00  0.74505805969E-08  0.10566000000E+00  0.10566000000E+00 0. -1.
     999900   -1    0    0    0    0 -0.00000000000E+00 -0.00000000000E+00 -0.74505805969E-08  0.93827000000E+00  0.93827000000E+00 0. -1.
     999902    2    1    2    0    0 -0.14238278718E-01  0.13038894375E-01 -0.13458704801E-01  0.10203953854E+01  0.10201239457E+01 0.  0.
     999903    2    3    3    0    0  0.55778400068E-01 -0.97513114378E-01 -0.61216203491E-01  0.12943811339E+00  0.19666322428E-01 0.  0.
         14    1    1    2    0    0  0.14238278718E-01 -0.13038894375E-01  0.13458704801E-01  0.23534614556E-01  0.00000000000E+00 0. -1.
     999901    1    3    3    0    0 -0.70016678786E-01  0.11055200875E+00  0.47757498691E-01  0.89095727206E+00  0.88000000000E+00 0.  1.
        -11    1    4    4    0    0  0.24481349397E-01 -0.28819573196E-01 -0.27515557001E-01  0.46768271997E-01  0.51100000000E-03 0.  1.
         11    1    4    4    0    0  0.31297050671E-01 -0.68693541182E-01 -0.33700646490E-01  0.82669841392E-01  0.51100000000E-03 0. -1.
</event>
<event>
 8    1  0.1199892E+005  0.1043930E+01  0.7957747E-01            NaN
         13   -1    0    0    0    0  0.00000000000E+00  0.00000000000E+00  0.74505805969E-08  0.10566000000E+00  0.10566000000E+00 0.  1.
     999900   -1    0    0    0    0 -0.00000000000E+00 -0.00000000000E+00 -0.74505805969E-08  0.93827000000E+00  0.93827000000E+00 0.  1.
     999902    2    1    2    0    0 -0.91501712836E-02 -0.12866488385E-01  0.17149987510E-01  0.10206191821E+01  0.10203529393E+01 0.  0.
     999903    2    3    3    0    0  0.34009717068E-01 -0.57745634559E-01 -0.10892935559E+00  0.12945538435E+00  0.20046766920E-01 0.  0.
         14    1    1    2    0    0  0.91501712836E-02  0.12866488385E-01 -0.17149987510E-01  0.23310817863E-01  0.00000000000E+00 0. -1.
     999901    1    3    3    0    0 -0.43159888352E-01  0.44879146174E-01  0.12607934310E+00  0.89116379778E+00  0.88000000000E+00 0. -1.
        -11    1    4    4    0    0  0.81861063411E-02 -0.16912387629E-01 -0.15867299809E-01  0.24598242144E-01  0.51100000000E-03 0. -1.
         11    1    4    4    0    0  0.25823610727E-01 -0.40833246929E-01 -0.93062055778E-01  0.10485714221E+00  0.51100000000E-03 0.  1.
</event>
<event>
 8    1  0.1199892E+005  0.1043930E+01  0.7957747E-01            NaN
         13   -1    0    0    0    0  0.00000000000E+00  0.00000000000E+00  0.74505805969E-08  0.10566000000E+00  0.10566000000E+00 0. -1.
     999900   -1    0    0    0    0 -0.00000000000E+00 -0.00000000000E+00 -0.74505805969E-08  0.93827000000E+00  0.93827000000E+00 0.  1.
     999902    2    1    2    0    0  0.14791809984E-01  0.14155623015E-01  0.62284830346E-02  0.10225296891E+01  0.10223057233E+01 0.  0.
     999903    2    3    3    0    0  0.29952376981E-01 -0.12071475229E+00  0.37895014780E-01  0.13156244495E+00  0.20086026655E-01 0.  0.
         14    1    1    2    0    0 -0.14791809984E-01 -0.14155623015E-01 -0.62284830346E-02  0.21400310896E-01  0.00000000000E+00 0.  1.
     999901    1    3    3    0    0 -0.15160566997E-01  0.13487037531E+00 -0.31666531745E-01  0.89096724416E+00  0.88000000000E+00 0.  1.
        -11    1    4    4    0    0  0.19228629800E-01 -0.40554735201E-01  0.17315816727E-01  0.48109514456E-01  0.51100000000E-03 0.  1.
         11    1    4    4    0    0  0.10723747180E-01 -0.80160017094E-01  0.20579198053E-01  0.83452930491E-01  0.51100000000E-03 0. -1.
</event>
<event>
 8    1  0.1199892E+005  0.1043930E+01  0.7957747E-01            NaN
         13   -1    0    0    0    0  0.00000000000E+00  0.00000000000E+00  0.74505805969E-08  0.10566000000E+00  0.10566000000E+00 0.  1.
     999900   -1    0    0    0    0 -0.00000000000E+00 -0.00000000000E+00 -0.74505805969E-08  0.93827000000E+00  0.93827000000E+00 0.  1.
     999902    2    1    2    0    0 -0.15497189004E-01  0.10390253727E-02  0.77852652392E-02  0.10265560887E+01  0.10264090561E+01 0.  0.
     999903    2    3    3    0    0 -0.47674129330E-01  0.12370624762E+00 -0.26802914696E-01  0.13679266779E+00  0.20439653086E-01 0.  0.
         14    1    1    2    0    0  0.15497189004E-01 -0.10390253727E-02 -0.77852652392E-02  0.17373911350E-01  0.00000000000E+00 0.  1.
     999901    1    3    3    0    0  0.32176940326E-01 -0.12266722225E+00  0.34588179935E-01  0.88976342086E+00  0.88000000000E+00 0.  1.
        -11    1    4    4    0    0 -0.10485023296E-01  0.43360328066E-01 -0.16888275139E-01  0.47702502258E-01  0.51100000000E-03 0. -1.
         11    1    4    4    0    0 -0.37189106034E-01  0.80345919554E-01 -0.99146395567E-02  0.89090165536E-01  0.51100000000E-03 0.  1.
</event>
<event>
 8    1  0.1199892E+005  0.1043930E+01  0.7957747E-01            NaN
         13   -1    0    0    0    0  0.00000000000E+00  0.00000000000E+00  0.74505805969E-08  0.10566000000E+00  0.10566000000E+00 0.  1.
     999900   -1    0    0    0    0 -0.00000000000E+00 -0.00000000000E+00 -0.74505805969E-08  0.93827000000E+00  0.93827000000E+00 0.  1.
     999902    2    1    2    0    0 -0.55099583053E-02 -0.30087750727E-01  0.53892021731E-03  0.10133371443E+01  0.10128752367E+01 0.  0.
     999903    2    3    3    0    0  0.58501188005E-02 -0.12047387485E+00 -0.37910482139E-01  0.12779942104E+00  0.18636226869E-01 0.  0.
         14    1    1    2    0    0  0.55099583053E-02  0.30087750727E-01 -0.53892021731E-03  0.30592855691E-01  0.00000000000E+00 0. -1.
     999901    1    3    3    0    0 -0.11360077106E-01  0.90386124122E-01  0.38449402356E-01  0.88553772327E+00  0.88000000000E+00 0. -1.
        -11    1    4    4    0    0 -0.62266065293E-02 -0.63401068291E-01 -0.19690452320E-01  0.66681640073E-01  0.51100000000E-03 0.  1.
         11    1    4    4    0    0  0.12076725330E-01 -0.57072806558E-01 -0.18220029818E-01  0.61117780970E-01  0.51100000000E-03 0. -1.
</event>
<event>
 8    1  0.1199892E+005  0.1043930E+01  0.7957747E-01            NaN
         13   -1    0    0    0    0  0.00000000000E+00  0.00000000000E+00  0.74505805969E-08  0.10566000000E+00  0.10566000000E+00 0.  1.
     999900   -1    0    0    0    0 -0.00000000000E+00 -0.00000000000E+00 -0.74505805969E-08  0.93827000000E+00  0.93827000000E+00 0. -1.
     999902    2    1    2    0    0  0.19198914480E-01  0.61591411032E-02  0.11900570918E-01  0.10205172487E+01  0.10202486451E+01 0.  0.
     999903    2    3    3    0    0  0.45614760873E-01  0.10236079897E+00 -0.66081187334E-01  0.13145385918E+00  0.18840228252E-01 0.  0.
         14    1    1    2    0    0 -0.19198914480E-01 -0.61591411032E-02 -0.11900570918E-01  0.23412751323E-01  0.00000000000E+00 0.  1.
     999901    1    3    3    0    0 -0.26415846393E-01 -0.96201657863E-01  0.77981758251E-01  0.88906338949E+00  0.88000000000E+00 0.  1.
        -11    1    4    4    0    0  0.86005869235E-02  0.86996861284E-02 -0.11985742206E-01  0.17133994613E-01  0.51100000000E-03 0.  1.
         11    1    4    4    0    0  0.37014173949E-01  0.93661112837E-01 -0.54095445128E-01  0.11431986457E+00  0.51100000000E-03 0. -1.
</event>
<event>
 8    1  0.1199892E+005  0.1043930E+01  0.7957747E-01            NaN
         13   -1    0    0    0    0  0.00000000000E+00  0.00000000000E+00  0.74505805969E-08  0.10566000000E+00  0.10566000000E+00 0. -1.
     999900   -1    0    0    0    0 -0.00000000000E+00 -0.00000000000E+00 -0.74505805969E-08  0.93827000000E+00  0.93827000000E+00 0.  1.
     999902    2    1    2    0    0  0.49934740838E-02 -0.22329796634E-01 -0.55044699070E-02  0.10203959015E+01  0.10201244738E+01 0.  0.
     999903    2    3    3    0    0 -0.31906481093E-01  0.54369463806E-01  0.11037278580E+00  0.12872784580E+00  0.20362816819E-01 0.  0.
         14    1    1    2    0    0 -0.49934740838E-02  0.22329796634E-01  0.55044699070E-02  0.23534098455E-01  0.00000000000E+00 0. -1.
     999901    1    3    3    0    0  0.36899955177E-01 -0.76699260440E-01 -0.11587725571E+00  0.89166805574E+00  0.88000000000E+00 0.  1.
        -11    1    4    4    0    0 -0.63774177075E-02  0.29923373748E-01  0.57328209256E-01  0.64983570621E-01  0.51100000000E-03 0. -1.
         11    1    4    4    0    0 -0.25529063385E-01  0.24446090058E-01  0.53044576544E-01  0.63744275180E-01  0.51100000000E-03 0.  1.
</event>
<event>
 8    1  0.1199892E+005  0.1043930E+01  0.7957747E-01            NaN
         13   -1    0    0    0    0  0.00000000000E+00  0.00000000000E+00  0.74505805969E-08  0.10566000000E+00  0.10566000000E+00 0. -1.
     999900   -1    0    0    0    0 -0.00000000000E+00 -0.00000000000E+00 -0.74505805969E-08  0.93827000000E+00  0.93827000000E+00 0. -1.
     999902    2    1    2    0    0  0.31944242299E-02 -0.22833546418E-01  0.31901579321E-02  0.10206544271E+01  0.10203889980E+01 0.  0.
     999903    2    3    3    0    0 -0.40697367394E-01 -0.27549367243E-01 -0.12091095595E+00  0.13085118206E+00  0.93450109376E-02 0.  0.
         14    1    1    2    0    0 -0.31944242299E-02  0.22833546418E-01 -0.31901579321E-02  0.23275572942E-01  0.00000000000E+00 0. -1.
     999901    1    3    3    0    0  0.43891791623E-01  0.47158208250E-02  0.12410111388E+00  0.88980324500E+00  0.88000000000E+00 0.  1.
        -11    1    4    4    0    0 -0.49576404697E-02 -0.55157021977E-02 -0.11876562639E-01  0.14011246585E-01  0.51100000000E-03 0.  1.
         11    1    4    4    0    0 -0.35739726924E-01 -0.22033665045E-01 -0.10903439331E+00  0.11683993548E+00  0.51100000000E-03 0. -1.
</event>
<event>
 8    1  0.1199892E+005  0.1043930E+01  0.7957747E-01            NaN
         13   -1    0    0    0    0  0.00000000000E+00  0.00000000000E+00  0.74505805969E-08  0.10566000000E+00  0.10566000000E+00 0. -1.
     999900   -1    0    0    0    0 -0.00000000000E+00 -0.00000000000E+00 -0.74505805969E-08  0.93827000000E+00  0.93827000000E+00 0.  1.
     999902    2    1    2    0    0 -0.61415113322E-02 -0.20207064663E-01  0.15974998593E-01  0.10174489841E+01  0.10171043167E+01 0.  0.
     999903    2    3    3    0    0  0.12530397234E+00 -0.97296436988E-02 -0.21078500273E-02  0.12744073640E+00  0.20998733572E-01 0.  0.
         14    1    1    2    0    0  0.61415113322E-02  0.20207064663E-01 -0.15974998593E-01  0.26481015913E-01  0.00000000000E+00 0.  1.
     999901    1    3    3    0    0 -0.13144548368E+00 -0.10477420964E-01  0.18082848620E-01  0.89000824768E+00  0.88000000000E+00 0.  1.
        -11    1    4    4    0    0  0.59110429843E-01 -0.14970525190E-01  0.62126965640E-03  0.60982018970E-01  0.51100000000E-03 0.  1.
         11    1    4    4    0    0  0.66193542501E-01  0.52408814909E-02 -0.27291196837E-02  0.66458717434E-01  0.51100000000E-03 0. -1.
</event>
<event>
 8    1  0.1199892E+005  0.1043930E+01  0.7957747E-01            NaN
         13   -1    0    0    0    0  0.00000000000E+00  0.00000000000E+00  0.74505805969E-08  0.10566000000E+00  0.10566000000E+00 0.  1.
     999900   -1    0    0    0    0 -0.00000000000E+00 -0.00000000000E+00 -0.74505805969E-08  0.93827000000E+00  0.93827000000E+00 0. -1.
     999902    2    1    2    0    0 -0.72353817231E-02 -0.51158243691E-02 -0.16192869721E-01  0.10254710879E+01  0.10253049403E+01 0.  0.
     999903    2    3    3    0    0  0.58182122255E-01 -0.87209016371E-02  0.11749260481E+00  0.13296660467E+00  0.20356627863E-01 0.  0.
         14    1    1    2    0    0  0.72353817231E-02  0.51158243691E-02  0.16192869721E-01  0.18458912141E-01  0.00000000000E+00 0.  1.
     999901    1    3    3    0    0 -0.65417503978E-01  0.36050772680E-02 -0.13368547453E+00  0.89250448319E+00  0.88000000000E+00 0. -1.
        -11    1    4    4    0    0  0.47798581236E-01  0.12864194077E-02  0.89489729838E-01  0.10146443766E+00  0.51100000000E-03 0. -1.
         11    1    4    4    0    0  0.10383541019E-01 -0.10007321045E-01  0.28002874970E-01  0.31502167008E-01  0.51100000000E-03 0.  1.
</event>
<event>
 8    1  0.1199892E+005  0.1043930E+01  0.7957747E-01            NaN
         13   -1    0    0    0    0  0.00000000000E+00  0.00000000000E+00  0.74505805969E-08  0.10566000000E+00  0.10566000000E+00 0.  1.
     999900   -1    0    0    0    0 -0.00000000000E+00 -0.00000000000E+00 -0.74505805969E-08  0.93827000000E+00  0.93827000000E+00 0.  1.
     999902    2    1    2    0    0 -0.66645365550E-02  0.25148134448E-01 -0.45005681540E-02  0.10175273519E+01  0.10171847482E+01 0.  0.
     999903    2    3    3    0    0  0.11657635839E+00 -0.29064638951E-01  0.34192551054E-01  0.12644682777E+00  0.19618081776E-01 0.  0.
         14    1    1    2    0    0  0.66645365550E-02 -0.25148134448E-01  0.45005681540E-02  0.26402648114E-01  0.00000000000E+00 0. -1.
     999901    1    3    3    0    0 -0.12324089494E+00  0.54212773399E-01 -0.38693119209E-01  0.89108052412E+00  0.88000000000E+00 0. -1.
        -11    1    4    4    0    0  0.59873567483E-01 -0.21463459628E-01  0.25723516483E-01  0.68611111372E-01  0.51100000000E-03 0.  1.
         11    1    4    4    0    0  0.56702790906E-01 -0.76011793228E-02  0.84690345712E-02  0.57835716398E-01  0.51100000000E-03 0. -1.
</event>
<event>
 8    1  0.1199892E+005  0.1043930E+01  0.7957747E-01            NaN
         13   -1    0    0    0    0  0.00000000000E+00  0.00000000000E+00  0.74505805969E-08  0.10566000000E+00  0.10566000000E+00 0. -1.
     999900   -1    0    0    0    0 -0.00000000000E+00 -0.00000000000E+00 -0.74505805969E-08  0.93827000000E+00  0.93827000000E+00 0.  1.
     999902    2    1    2    0    0  0.70457636488E-02 -0.12040913659E-01 -0.17703769012E-01  0.10213900394E+01  0.10211413040E+01 0.  0.
     999903    2    3    3    0    0  0.56993779471E-01  0.43592049190E-01  0.10591920735E+00  0.12960953325E+00  0.20765234736E-01 0.  0.
         14    1    1    2    0    0 -0.70457636488E-02  0.12040913659E-01  0.17703769012E-01  0.22539960611E-01  0.00000000000E+00 0. -1.
     999901    1    3    3    0    0 -0.49948015822E-01 -0.55632962848E-01 -0.12362297636E+00  0.89178050614E+00  0.88000000000E+00 0.  1.
        -11    1    4    4    0    0  0.45380218327E-01  0.22772037606E-01  0.74765296873E-01  0.90377213111E-01  0.51100000000E-03 0.  1.
         11    1    4    4    0    0  0.11613561144E-01  0.20820011584E-01  0.31153910476E-01  0.39232320142E-01  0.51100000000E-03 0. -1.
</event>
<event>
 8    1  0.1199892E+005  0.1043930E+01  0.7957747E-01            NaN
         13   -1    0    0    0    0  0.00000000000E+00  0.00000000000E+00  0.74505805969E-08  0.10566000000E+00  0.10566000000E+00 0.  1.
     999900   -1    0    0    0    0 -0.00000000000E+00 -0.00000000000E+00 -0.74505805969E-08  0.93827000000E+00  0.93827000000E+00 0. -1.
     999902    2    1    2    0    0 -0.15311710645E-01  0.58254711536E-02 -0.19357369650E-01  0.10185707343E+01  0.10182550017E+01 0.  0.
     999903    2    3    3    0    0  0.41031488546E-01  0.72906924349E-02  0.11732616905E+00  0.12623722450E+00  0.20824736663E-01 0.  0.
         14    1    1    2    0    0  0.15311710645E-01 -0.58254711536E-02  0.19357369650E-01  0.25359265699E-01  0.00000000000E+00 0. -1.
     999901    1    3    3    0    0 -0.56343199191E-01 -0.14652212814E-02 -0.13668353870E+00  0.89233350980E+00  0.88000000000E+00 0. -1.
        -11    1    4    4    0    0  0.32766413048E-01 -0.27210457212E-02  0.73386954458E-01  0.80417337182E-01  0.51100000000E-03 0.  1.
         11    1    4    4    0    0  0.82650754986E-02  0.10011738156E-01  0.43939214588E-01  0.45819887315E-01  0.51100000000E-03 0. -1.
</event>
<event>
 8    1  0.1199892E+005  0.1043930E+01  0.7957747E-01            NaN
         13   -1    0    0    0    0  0.00000000000E+00  0.00000000000E+00  0.74505805969E-08  0.10566000000E+00  0.10566000000E+00 0. -1.
     999900   -1    0    0    0    0 -0.00000000000E+00 -0.00000000000E+00 -0.74505805969E-08  0.93827000000E+00  0.93827000000E+00 0. -1.
     999902    2    1    2    0    0  0.11535154621E-01 -0.40596976678E-02 -0.20766694726E-01  0.10198302791E+01  0.10195454878E+01 0.  0.
     999903    2    3    3    0    0  0.12421073475E+00  0.38328200414E-01  0.56791610069E-03  0.13137786852E+00  0.19038493475E-01 0.  0.
         14    1    1    2    0    0 -0.11535154621E-01  0.40596976678E-02  0.20766694726E-01  0.24099720893E-01  0.00000000000E+00 0. -1.
     999901    1    3    3    0    0 -0.11267558013E+00 -0.42387898082E-01 -0.21334610826E-01  0.88845241059E+00  0.88000000000E+00 0.  1.
        -11    1    4    4    0    0  0.79017274046E-01  0.27452189484E-01  0.89940130492E-02  0.84133855830E-01  0.51100000000E-03 0.  1.
         11    1    4    4    0    0  0.45193460704E-01  0.10876010930E-01 -0.84260969486E-02  0.47244012689E-01  0.51100000000E-03 0. -1.
</event>
<event>
 8    1  0.1199892E+005  0.1043930E+01  0.7957747E-01            NaN
         13   -1    0    0    0    0  0.00000000000E+00  0.00000000000E+00  0.74505805969E-08  0.10566000000E+00  0.10566000000E+00 0. -1.
     999900   -1    0    0    0    0 -0.00000000000E+00 -0.00000000000E+00 -0.74505805969E-08  0.93827000000E+00  0.93827000000E+00 0. -1.
     999902    2    1    2    0    0 -0.14855283971E-01  0.16203454423E-01  0.92193152793E-02  0.10200924840E+01  0.10198139284E+01 0.  0.
     999903    2    3    3    0    0 -0.97829021322E-01 -0.83600447244E-01 -0.41031104876E-02  0.13047293217E+00  0.21137604457E-01 0.  0.
         14    1    1    2    0    0  0.14855283971E-01 -0.16203454423E-01 -0.92193152793E-02  0.23837516047E-01  0.00000000000E+00 0. -1.
     999901    1    3    3    0    0  0.82973737351E-01  0.99803901667E-01  0.13322425767E-01  0.88961955178E+00  0.88000000000E+00 0. -1.
        -11    1    4    4    0    0 -0.51014950929E-01 -0.56299902059E-01  0.14765965788E-02  0.75991089271E-01  0.51100000000E-03 0.  1.
         11    1    4    4    0    0 -0.46814070393E-01 -0.27300545185E-01 -0.55797070665E-02  0.54481842903E-01  0.51100000000E-03 0. -1.
</event>
<event>
 8    1  0.1199892E+005  0.1043930E+01  0.7957747E-01            NaN
         13   -1    0    0    0    0  0.00000000000E+00  0.00000000000E+00  0.74505805969E-08  0.10566000000E+00  0.10566000000E+00 0. -1.
     999900   -1    0    0    0    0 -0.00000000000E+00 -0.00000000000E+00 -0.74505805969E-08  0.93827000000E+00  0.93827000000E+00 0. -1.
     999902    2    1    2    0    0  0.40722408875E-02  0.18663110847E-01 -0.46184789846E-02  0.10242773869E+01  0.10240888341E+01 0.  0.
     999903    2    3    3    0    0  0.97272075335E-01  0.14376391545E-01  0.89372946143E-01  0.13436785608E+00  0.19966471174E-01 0.  0.
         14    1    1    2    0    0 -0.40722408875E-02 -0.18663110847E-01  0.46184789846E-02  0.19652613070E-01  0.00000000000E+00 0. -1.
     999901    1    3    3    0    0 -0.93199834447E-01  0.42867193020E-02 -0.93991425127E-01  0.88990953085E+00  0.88000000000E+00 0. -1.
        -11    1    4    4    0    0  0.35287769268E-01  0.57039276494E-02  0.45817766603E-01  0.58114458683E-01  0.51100000000E-03 0.  1.
         11    1    4    4    0    0  0.61984306067E-01  0.86724638957E-02  0.43555179539E-01  0.76253397396E-01  0.51100000000E-03 0. -1.
</event>
<event>
 7    1  0.1199892E+005  0.1043930E+01  0.7957747E-01            NaN
         13   -1    0    0    0    0  0.00000000000E+00  0.00000000000E+00  0.74505805969E-08  0.10566000000E+00  0.10566000000E+00 0.  1.
     999900   -1    0    0    0    0 -0.00000000000E+00 -0.00000000000E+00 -0.74505805969E-08  0.93827000000E+00  0.93827000000E+00 0. -1.
     999902    2    1    2    0    0  0.18369113200E-01  0.40747642363E-02  0.15676523481E-01  0.10194395649E+01  0.10191453503E+01 0.  0.
         14    1    1    2    0    0 -0.18369113200E-01 -0.40747642363E-02 -0.15676523481E-01  0.24490435108E-01  0.00000000000E+00 0. -1.
     999901    1    3    3    0    0 -0.21194938533E-01 -0.10337236505E+00  0.67342679473E-01  0.88885887955E+00  0.88000000000E+00 0. -1.
        -11    1    3    3    0    0  0.34702127299E-01  0.48122102369E-01 -0.17101590152E-01  0.61747063754E-01  0.51100000000E-03 0.  1.
         11    1    3    3    0    0  0.48619244338E-02  0.59325026920E-01 -0.34564565841E-01  0.68833621589E-01  0.51100000000E-03 0. -1.
</event>
<event>
 8    1  0.1199892E+005  0.1043930E+01  0.7957747E-01            NaN
         13   -1    0    0    0    0  0.00000000000E+00  0.00000000000E+00  0.74505805969E-08  0.10566000000E+00  0.10566000000E+00 0. -1.
     999900   -1    0    0    0    0 -0.00000000000E+00 -0.00000000000E+00 -0.74505805969E-08  0.93827000000E+00  0.93827000000E+00 0.  1.
     999902    2    1    2    0    0 -0.27564803919E-02  0.28363249190E-03 -0.23913322608E-01  0.10198566614E+01  0.10195725007E+01 0.  0.
     999903    2    3    3    0    0  0.58211067686E-01  0.49094542634E-01 -0.10655858729E+00  0.13254060352E+00  0.20334122493E-01 0.  0.
         14    1    1    2    0    0  0.27564803919E-02 -0.28363249190E-03  0.23913322608E-01  0.24073338565E-01  0.00000000000E+00 0. -1.
     999901    1    3    3    0    0 -0.60967548078E-01 -0.48810910142E-01  0.82645264681E-01  0.88731605792E+00  0.88000000000E+00 0. -1.
        -11    1    4    4    0    0  0.94180489411E-02  0.90242664066E-02 -0.33643783339E-01  0.36087425905E-01  0.51100000000E-03 0.  1.
         11    1    4    4    0    0  0.48793018745E-01  0.40070276227E-01 -0.72914803950E-01  0.96453177611E-01  0.51100000000E-03 0. -1.
</event>
<event>
 8    1  0.1199892E+005  0.1043930E+01  0.7957747E-01            NaN
         13   -1    0    0    0    0  0.00000000000E+00  0.00000000000E+00  0.74505805969E-08  0.10566000000E+00  0.10566000000E+00 0.  1.
     999900   -1    0    0    0    0 -0.00000000000E+00 -0.00000000000E+00 -0.74505805969E-08  0.93827000000E+00  0.93827000000E+00 0. -1.
     999902    2    1    2    0    0  0.61227029905E-02 -0.95826523871E-02 -0.20474047962E-01  0.10205098941E+01  0.10202411199E+01 0.  0.
     999903    2    3    3    0    0 -0.61020622433E-01  0.87140917724E-01 -0.74101922785E-01  0.13104959479E+00  0.19127086272E-01 0.  0.
         14    1    1    2    0    0 -0.61227029905E-02  0.95826523871E-02  0.20474047962E-01  0.23420105863E-01  0.00000000000E+00 0.  1.
     999901    1    3    3    0    0  0.67143325423E-01 -0.96723570111E-01  0.53627874823E-01  0.88946029935E+00  0.88000000000E+00 0.  1.
        -11    1    4    4    0    0 -0.32313301653E-01  0.57664509009E-01 -0.53450963241E-01  0.85009479798E-01  0.51100000000E-03 0.  1.
         11    1    4    4    0    0 -0.28707320780E-01  0.29476408714E-01 -0.20650959544E-01  0.46040114988E-01  0.51100000000E-03 0. -1.
</event>
<event>
 8    1  0.1199892E+005  0.1043930E+01  0.7957747E-01            NaN
         13   -1    0    0    0    0  0.00000000000E+00  0.00000000000E+00  0.74505805969E-08  0.10566000000E+00  0.10566000000E+00 0.  1.
     999900   -1    0    0    0    0 -0.00000000000E+00 -0.00000000000E+00 -0.74505805969E-08  0.93827000000E+00  0.93827000000E+00 0.  1.
     999902    2    1    2    0    0  0.71729028244E-02  0.18338262301E-01  0.11912733110E-01  0.10209157520E+01  0.10206563169E+01 0.  0.
     999903    2    3    3    0    0  0.78977154141E-01 -0.51266027078E-01  0.89999479398E-01  0.13181612458E+00  0.20248160346E-01 0.  0.
         14    1    1    2    0    0 -0.71729028244E-02 -0.18338262301E-01 -0.11912733110E-01  0.23014247963E-01  0.00000000000E+00 0. -1.
     999901    1    3    3    0    0 -0.71804251317E-01  0.69604289379E-01 -0.78086746288E-01  0.88909962746E+00  0.88000000000E+00 0.  1.
        -11    1    4    4    0    0  0.34111692826E-01 -0.28887612554E-01  0.31055615858E-01  0.54431738387E-01  0.51100000000E-03 0.  1.
         11    1    4    4    0    0  0.44865461315E-01 -0.22378414524E-01  0.58943863540E-01  0.77384386188E-01  0.51100000000E-03 0. -1.
</event>
<event>
 8    1  0.1199892E+005  0.1043930E+01  0.7957747E-01            NaN
         13   -1    0    0    0    0  0.00000000000E+00  0.00000000000E+00  0.74505805969E-08  0.10566000000E+00  0.10566000000E+00 0. -1.
     999900   -1    0    0    0    0 -0.00000000000E+00 -0.00000000000E+00 -0.74505805969E-08  0.93827000000E+00  0.93827000000E+00 0.  1.
     999902    2    1    2    0    0  0.44139369251E-02 -0.20940736140E-01 -0.16525202048E-01  0.10168915168E+01  0.10165319854E+01 0.  0.
     999903    2    3    3    0    0 -0.39599110361E-01 -0.12005946243E+00 -0.23787285656E-01  0.13020419422E+00  0.20122951368E-01 0.  0.
         14    1    1    2    0    0 -0.44139369251E-02  0.20940736140E-01  0.16525202048E-01  0.27038483167E-01  0.00000000000E+00 0. -1.
     999901    1    3    3    0    0  0.44013047286E-01  0.99118726291E-01  0.72620836082E-02  0.88668732262E+00  0.88000000000E+00 0. -1.
        -11    1    4    4    0    0 -0.16096297033E-01 -0.34301577939E-01 -0.15343934851E-01  0.40882593912E-01  0.51100000000E-03 0.  1.
         11    1    4    4    0    0 -0.23502813328E-01 -0.85757884492E-01 -0.84433508051E-02  0.89321600303E-01  0.51100000000E-03 0. -1.
</event>
<event>
 8    1  0.1199892E+005  0.1043930E+01  0.7957747E-01            NaN
         13   -1    0    0    0    0  0.00000000000E+00  0.00000000000E+00  0.74505805969E-08  0.10566000000E+00  0.10566000000E+00 0. -1.
     999900   -1    0    0    0    0 -0.00000000000E+00 -0.00000000000E+00 -0.74505805969E-08  0.93827000000E+00  0.93827000000E+00 0.  1.
     999902    2    1    2    0    0  0.37754883481E-03  0.15128845812E-01  0.18590800239E-01  0.10199583006E+01  0.10196765627E+01 0.  0.
     999903    2    3    3    0    0  0.12110200839E+00 -0.26796853884E-01 -0.30668416803E-01  0.12936376328E+00  0.20264837732E-01 0.  0.
         14    1    1    2    0    0 -0.37754883481E-03 -0.15128845812E-01 -0.18590800239E-01  0.23971699403E-01  0.00000000000E+00 0.  1.
     999901    1    3    3    0    0 -0.12072445955E+00  0.41925699696E-01  0.49259217042E-01  0.89059453731E+00  0.88000000000E+00 0. -1.
        -11    1    4    4    0    0  0.92826539269E-01 -0.12323530349E-01 -0.19213820602E-01  0.95593241477E-01  0.51100000000E-03 0. -1.
         11    1    4    4    0    0  0.28275469118E-01 -0.14473323535E-01 -0.11454596201E-01  0.33770521806E-01  0.51100000000E-03 0.  1.
</event>
<event>
 8    1  0.1199892E+005  0.1043930E+01  0.7957747E-01            NaN
         13   -1    0    0    0    0  0.00000000000E+00  0.00000000000E+00  0.74505805969E-08  0.10566000000E+00  0.10566000000E+00 0.  1.
     999900   -1    0    0    0    0 -0.00000000000E+00 -0.00000000000E+00 -0.74505805969E-08  0.93827000000E+00  0.93827000000E+00 0. -1.
     999902    2    1    2    0    0  0.12506026601E-01 -0.14540704966E-01 -0.14917813927E-01  0.10196323875E+01  0.10193428430E+01 0.  0.
     999903    2    3    3    0    0 -0.47884366520E-02  0.79231413431E-01 -0.10064018210E+00  0.13034017843E+00  0.23655229029E-01 0.  0.
         14    1    1    2    0    0 -0.12506026601E-01  0.14540704966E-01  0.14917813927E-01  0.24297612529E-01  0.00000000000E+00 0.  1.
     999901    1    3    3    0    0  0.17294463253E-01 -0.93772118397E-01  0.85722368177E-01  0.88929220904E+00  0.88000000000E+00 0.  1.
        -11    1    4    4    0    0  0.45930551303E-02  0.14531580559E-01 -0.32546493115E-01  0.35941596014E-01  0.51100000000E-03 0.  1.
         11    1    4    4    0    0 -0.93814917823E-02  0.64699832872E-01 -0.68093688989E-01  0.94398582420E-01  0.51100000000E-03 0. -1.
</event>
<event>
 8    1  0.1199892E+005  0.1043930E+01  0.7957747E-01            NaN
         13   -1    0    0    0    0  0.00000000000E+00  0.00000000000E+00  0.74505805969E-08  0.10566000000E+00  0.10566000000E+00 0. -1.
     999900   -1    0    0    0    0 -0.00000000000E+00 -0.00000000000E+00 -0.74505805969E-08  0.93827000000E+00  0.93827000000E+00 0.  1.
     999902    2    1    2    0    0 -0.68468043864E-02 -0.95375554982E-02 -0.20077963624E-01  0.10206712744E+01  0.10204062338E+01 0.  0.
     999903    2    3    3    0    0 -0.39440890204E-01 -0.42457496971E-01  0.11388235193E+00  0.12932876829E+00  0.19962899512E-01 0.  0.
         14    1    1    2    0    0  0.68468043864E-02  0.95375554982E-02  0.20077963624E-01  0.23258725641E-01  0.00000000000E+00 0. -1.
     999901    1    3    3    0    0  0.32594085818E-01  0.32919941473E-01 -0.13396031556E+00  0.89134250607E+00  0.88000000000E+00 0.  1.
        -11    1    4    4    0    0 -0.92971024423E-02 -0.17102029035E-01  0.56205162927E-01  0.59482745159E-01  0.51100000000E-03 0. -1.
         11    1    4    4    0    0 -0.30143787762E-01 -0.25355467936E-01  0.57677189006E-01  0.69846023133E-01  0.51100000000E-03 0.  1.
</event>
<event>
 8    1  0.1199892E+005  0.1043930E+01  0.7957747E-01            NaN
         13   -1    0    0    0    0  0.00000000000E+00  0.00000000000E+00  0.74505805969E-08  0.10566000000E+00  0.10566000000E+00 0.  1.
     999900   -1    0    0    0    0 -0.00000000000E+00 -0.00000000000E+00 -0.74505805969E-08  0.93827000000E+00  0.93827000000E+00 0. -1.
     999902    2    1    2    0    0  0.16984910236E-01  0.75375316961E-02  0.14156756999E-01  0.10205694493E+01  0.10203020560E+01 0.  0.
     999903    2    3    3    0    0  0.24636501879E-01  0.11566950135E+00 -0.52696875059E-01  0.13140103004E+00  0.22424970173E-01 0.  0.
         14    1    1    2    0    0 -0.16984910236E-01 -0.75375316961E-02 -0.14156756999E-01  0.23360550689E-01  0.00000000000E+00 0. -1.
     999901    1    3    3    0    0 -0.76515916429E-02 -0.10813196965E+00  0.66853632058E-01  0.88916841927E+00  0.88000000000E+00 0. -1.
        -11    1    4    4    0    0  0.20616076059E-01  0.59704873394E-01 -0.36701665581E-01  0.73054554112E-01  0.51100000000E-03 0.  1.
         11    1    4    4    0    0  0.40204258196E-02  0.55964627952E-01 -0.15995209477E-01  0.58346475925E-01  0.51100000000E-03 0. -1.
</event>
<event>
 8    1  0.1199892E+005  0.1043930E+01  0.7957747E-01            NaN
         13   -1    0    0    0    0  0.00000000000E+00  0.00000000000E+00  0.74505805969E-08  0.10566000000E+00  0.10566000000E+00 0.  1.
     999900   -1    0    0    0    0 -0.00000000000E+00 -0.00000000000E+00 -0.74505805969E-08  0.93827000000E+00  0.93827000000E+00 0. -1.
     999902    2    1    2    0    0 -0.13444807852E-01 -0.17227735231E-01  0.90572214339E-02  0.10202743246E+01  0.10200000522E+01 0.  0.
     999903    2    3    3    0    0 -0.53234705811E-01 -0.76947652740E-01 -0.90378149724E-01  0.13177159664E+00  0.20992107279E-01 0.  0.
         14    1    1    2    0    0  0.13444807852E-01  0.17227735231E-01 -0.90572214339E-02  0.23655675418E-01  0.00000000000E+00 0.  1.
     999901    1    3    3    0    0  0.39789897958E-01  0.59719917508E-01  0.99435371158E-01  0.88850272794E+00  0.88000000000E+00 0.  1.
        -11    1    4    4    0    0 -0.44620111338E-01 -0.49157941435E-01 -0.68254109239E-01  0.95217341335E-01  0.51100000000E-03 0. -1.
         11    1    4    4    0    0 -0.86145944725E-02 -0.27789711305E-01 -0.22124040485E-01  0.36554255302E-01  0.51100000000E-03 0.  1.
</event>
<event>
 8    1  0.1199892E+005  0.1043930E+01  0.7957747E-01            NaN
         13   -1    0    0    0    0  0.00000000000E+00  0.00000000000E+00  0.74505805969E-08  0.10566000000E+00  0.10566000000E+00 0. -1.
     999900   -1    0    0    0    0 -0.00000000000E+00 -0.00000000000E+00 -0.74505805969E-08  0.93827000000E+00  0.93827000000E+00 0.  1.
     999902    2    1    2    0    0  0.16153968893E-02  0.17222588790E-01  0.16358485453E-01  0.10201218687E+01  0.10198440076E+01 0.  0.
     999903    2    3    3    0    0  0.95261602730E-01 -0.44462674868E-01  0.75938453916E-01  0.13100744618E+00  0.18563398383E-01 0.  0.
         14    1    1    2    0    0 -0.16153968893E-02 -0.17222588790E-01 -0.16358485453E-01  0.23808131343E-01  0.00000000000E+00 0.  1.
     999901    1    3    3    0    0 -0.93646205840E-01  0.61685263657E-01 -0.59579968463E-01  0.88911442248E+00  0.88000000000E+00 0.  1.
        -11    1    4    4    0    0  0.10665951907E-01 -0.84992165954E-02  0.38281845307E-02  0.14174460506E-01  0.51100000000E-03 0.  1.
         11    1    4    4    0    0  0.84595650822E-01 -0.35963458272E-01  0.72110269385E-01  0.11683298567E+00  0.51100000000E-03 0. -1.
</event>
<event>
 8    1  0.1199892E+005  0.1043930E+01  0.7957747E-01            NaN
         13   -1    0    0    0    0  0.00000000000E+00  0.00000000000E+00  0.74505805969E-08  0.10566000000E+00  0.10566000000E+00 0. -1.
     999900   -1    0    0    0    0 -0.00000000000E+00 -0.00000000000E+00 -0.74505805969E-08  0.93827000000E+00  0.93827000000E+00 0.  1.
     999902    2    1    2    0    0  0.57482936292E-02  0.14122039070E-01 -0.17691774924E-01  0.10205746202E+01  0.10203073466E+01 0.  0.
     999903    2    3    3    0    0 -0.10867621405E+00  0.16453279732E-01  0.65067010367E-01  0.12931291944E+00  0.20171400084E-01 0.  0.
         14    1    1    2    0    0 -0.57482936292E-02 -0.14122039070E-01  0.17691774924E-01  0.23355379833E-01  0.00000000000E+00 0. -1.
     999901    1    3    3    0    0  0.11442450768E+00 -0.23312406614E-02 -0.82758785291E-01  0.89126170073E+00  0.88000000000E+00 0.  1.
        -11    1    4    4    0    0 -0.43440863800E-01  0.16410177911E-02  0.15902414106E-01  0.46292002360E-01  0.51100000000E-03 0.  1.
         11    1    4    4    0    0 -0.65235350252E-01  0.14812261941E-01  0.49164596261E-01  0.83020917080E-01  0.51100000000E-03 0. -1.
</event>
<event>
 8    1  0.1199892E+005  0.1043930E+01  0.7957747E-01            NaN
         13   -1    0    0    0    0  0.00000000000E+00  0.00000000000E+00  0.74505805969E-08  0.10566000000E+00  0.10566000000E+00 0. -1.
     999900   -1    0    0    0    0 -0.00000000000E+00 -0.00000000000E+00 -0.74505805969E-08  0.93827000000E+00  0.93827000000E+00 0.  1.
     999902    2    1    2    0    0  0.13976144222E-01 -0.37479423505E-02  0.18770709471E-01  0.10202293837E+01  0.10199540559E+01 0.  0.
     999903    2    3    3    0    0 -0.45686368819E-01 -0.46549001500E-01  0.11248401491E+00  0.13221264413E+00  0.23947355210E-01 0.  0.
         14    1    1    2    0    0 -0.13976144222E-01  0.37479423505E-02 -0.18770709471E-01  0.23700616305E-01  0.00000000000E+00 0. -1.
     999901    1    3    3    0    0  0.59662513042E-01  0.42801059149E-01 -0.93713305440E-01  0.88801673956E+00  0.88000000000E+00 0.  1.
        -11    1    4    4    0    0 -0.15512428582E-01 -0.23506841985E-02  0.20912711493E-01  0.26148877217E-01  0.51100000000E-03 0.  1.
         11    1    4    4    0    0 -0.30173940237E-01 -0.44198317301E-01  0.91571303418E-01  0.10606376692E+00  0.51100000000E-03 0. -1.
</event>
<event>
 8    1  0.1199892E+005  0.1043930E+01  0.7957747E-01            NaN
         13   -1    0    0    0    0  0.00000000000E+00  0.00000000000E+00  0.74505805969E-08  0.10566000000E+00  0.10566000000E+00 0. -1.
     999900   -1    0    0    0    0 -0.00000000000E+00 -0.00000000000E+00 -0.74505805969E-08  0.93827000000E+00  0.93827000000E+00 0. -1.
     999902    2    1    2    0    0 -0.86742475734E-02  0.44784050819E-02 -0.20893201889E-01  0.10208686781E+01  0.10206081684E+01 0.  0.
     999903    2    3    3    0    0  0.10584566053E+00 -0.68299127577E-01  0.22189270531E-01  0.12942744164E+00  0.19774332936E-01 0.  0.
         14    1    1    2    0    0  0.86742475734E-02 -0.44784050819E-02  0.20893201889E-01  0.23061321909E-01  0.00000000000E+00 0. -1.
     999901    1    3    3    0    0 -0.11451990810E+00  0.72777532659E-01 -0.43082472420E-01  0.89144123645E+00  0.88000000000E+00 0. -1.
        -11    1    4    4    0    0  0.66262835106E-01 -0.44000745920E-01  0.23559401209E-01  0.82958637068E-01  0.51100000000E-03 0.  1.
         11    1    4    4    0    0  0.39582825421E-01 -0.24298381657E-01 -0.13701306782E-02  0.46468804574E-01  0.51100000000E-03 0. -1.
</event>
<event>
 8    1  0.1199892E+005  0.1043930E+01  0.7957747E-01            NaN
         13   -1    0    0    0    0  0.00000000000E+00  0.00000000000E+00  0.74505805969E-08  0.10566000000E+00  0.10566000000E+00 0. -1.
     999900   -1    0    0    0    0 -0.00000000000E+00 -0.00000000000E+00 -0.74505805969E-08  0.93827000000E+00  0.93827000000E+00 0. -1.
     999902    2    1    2    0    0 -0.54654202634E-02 -0.12723267873E-01  0.19443110613E-01  0.10200597902E+01  0.10197804610E+01 0.  0.
     999903    2    3    3    0    0  0.37115704001E-01  0.11062414982E+00 -0.48347931553E-01  0.12785837632E+00  0.19873698759E-01 0.  0.
         14    1    1    2    0    0  0.54654202634E-02  0.12723267873E-01 -0.19443110613E-01  0.23870209767E-01  0.00000000000E+00 0.  1.
     999901    1    3    3    0    0 -0.42581124265E-01 -0.12334741769E+00  0.67791042166E-01  0.89220141392E+00  0.88000000000E+00 0.  1.
        -11    1    4    4    0    0  0.63692052905E-02  0.39303092630E-01 -0.91377487264E-02  0.40854123894E-01  0.51100000000E-03 0.  1.
         11    1    4    4    0    0  0.30746498711E-01  0.71321057189E-01 -0.39210182826E-01  0.87004252423E-01  0.51100000000E-03 0. -1.
</event>
<event>
 8    1  0.1199892E+005  0.1043930E+01  0.7957747E-01            NaN
         13   -1    0    0    0    0  0.00000000000E+00  0.00000000000E+00  0.74505805969E-08  0.10566000000E+00  0.10566000000E+00 0.  1.
     999900   -1    0    0    0    0 -0.00000000000E+00 -0.00000000000E+00 -0.74505805969E-08  0.93827000000E+00  0.93827000000E+00 0.  1.
     999902    2    1    2    0    0 -0.53482791851E-03  0.23968292085E-01 -0.11144517259E-01  0.10174920475E+01  0.10171485149E+01 0.  0.
     999903    2    3    3    0    0 -0.12493434027E+00 -0.14627482248E-01  0.13723202026E-01  0.12755762526E+00  0.16126650964E-01 0.  0.
         14    1    1    2    0    0  0.53482791851E-03 -0.23968292085E-01  0.11144517259E-01  0.26437952480E-01  0.00000000000E+00 0.  1.
     999901    1    3    3    0    0  0.12439951235E+00  0.38595774333E-01 -0.24867719285E-01  0.88993442226E+00  0.88000000000E+00 0. -1.
        -11    1    4    4    0    0 -0.84942490633E-01 -0.28480026337E-02  0.11934292124E-01  0.85825557286E-01  0.51100000000E-03 0. -1.
         11    1    4    4    0    0 -0.39991849637E-01 -0.11779479614E-01  0.17889099026E-02  0.41732067970E-01  0.51100000000E-03 0.  1.
</event>
<event>
 8    1  0.1199892E+005  0.1043930E+01  0.7957747E-01            NaN
         13   -1    0    0    0    0  0.00000000000E+00  0.00000000000E+00  0.74505805969E-08  0.10566000000E+00  0.10566000000E+00 0. -1.
     999900   -1    0    0    0    0 -0.00000000000E+00 -0.00000000000E+00 -0.74505805969E-08  0.93827000000E+00  0.93827000000E+00 0.  1.
     999902    2    1    2    0    0 -0.15829843928E-01 -0.96561413122E-02 -0.23119466420E-01  0.10142932871E+01  0.10138602160E+01 0.  0.
     999903    2    3    3    0    0  0.33712310581E-01  0.10822505001E+00 -0.47783270776E-01  0.12470984324E+00  0.20496894898E-01 0.  0.
         14    1    1    2    0    0  0.15829843928E-01  0.96561413122E-02  0.23119466420E-01  0.29636712898E-01  0.00000000000E+00 0. -1.
     999901    1    3    3    0    0 -0.49542154509E-01 -0.11788119133E+00  0.24663804356E-01  0.88958344386E+00  0.88000000000E+00 0.  1.
        -11    1    4    4    0    0  0.12312538100E-01  0.15051710997E-01 -0.10414668808E-01  0.22065335841E-01  0.51100000000E-03 0.  1.
         11    1    4    4    0    0  0.21399772481E-01  0.93173339017E-01 -0.37368601968E-01  0.10264450740E+00  0.51100000000E-03 0. -1.
</event>
<event>
 8    1  0.1199892E+005  0.1043930E+01  0.7957747E-01            NaN
         13   -1    0    0    0    0  0.00000000000E+00  0.00000000000E+00  0.74505805969E-08  0.10566000000E+00  0.10566000000E+00 0. -1.
     999900   -1    0    0    0    0 -0.00000000000E+00 -0.00000000000E+00 -0.74505805969E-08  0.93827000000E+00  0.93827000000E+00 0.  1.
     999902    2    1    2    0    0  0.14126623507E-01  0.17465999656E-01  0.72001742864E-02  0.10203404865E+01  0.10200677641E+01 0.  0.
     999903    2    3    3    0    0  0.21181556448E-01  0.11428887715E+00  0.62132027911E-01  0.13329936560E+00  0.19943074068E-01 0.  0.
         14    1    1    2    0    0 -0.14126623507E-01 -0.17465999656E-01 -0.72001742864E-02  0.23589513463E-01  0.00000000000E+00 0.  1.
     999901    1    3    3    0    0 -0.70549329407E-02 -0.96822877497E-01 -0.54931853625E-01  0.88704112093E+00  0.88000000000E+00 0.  1.
        -11    1    4    4    0    0  0.14114760636E-01  0.29111373773E-01  0.14574583024E-01  0.35487718186E-01  0.51100000000E-03 0. -1.
         11    1    4    4    0    0  0.70667958123E-02  0.85177503379E-01  0.47557444888E-01  0.97811647416E-01  0.51100000000E-03 0.  1.
</event>
<event>
 8    1  0.1199892E+005  0.1043930E+01  0.7957747E-01            NaN
         13   -1    0    0    0    0  0.00000000000E+00  0.00000000000E+00  0.74505805969E-08  0.10566000000E+00  0.10566000000E+00 0.  1.
     999900   -1    0    0    0    0 -0.00000000000E+00 -0.00000000000E+00 -0.74505805969E-08  0.93827000000E+00  0.93827000000E+00 0. -1.
     999902    2    1    2    0    0  0.14854488140E-01  0.16465228936E-01  0.10672251988E-01  0.10193199097E+01  0.10190227778E+01 0.  0.
     999903    2    3    3    0    0  0.70636483063E-01 -0.61876424797E-01 -0.86582885801E-01  0.12875401799E+00  0.16210994684E-01 0.  0.
         14    1    1    2    0    0 -0.14854488140E-01 -0.16465228936E-01 -0.10672251988E-01  0.24610090295E-01  0.00000000000E+00 0. -1.
     999901    1    3    3    0    0 -0.55781994923E-01  0.78341653733E-01  0.97255137789E-01  0.89056589172E+00  0.88000000000E+00 0. -1.
        -11    1    4    4    0    0  0.31939216202E-01 -0.36757306399E-01 -0.50754423010E-01  0.70338365644E-01  0.51100000000E-03 0.  1.
         11    1    4    4    0    0  0.38697266860E-01 -0.25119118398E-01 -0.35828462791E-01  0.58415652342E-01  0.51100000000E-03 0. -1.
</event>
<event>
 8    1  0.1199892E+005  0.1043930E+01  0.7957747E-01            NaN
         13   -1    0    0    0    0  0.00000000000E+00  0.00000000000E+00  0.74505805969E-08  0.10566000000E+00  0.10566000000E+00 0. -1.
     999900   -1    0    0    0    0 -0.00000000000E+00 -0.00000000000E+00 -0.74505805969E-08  0.93827000000E+00  0.93827000000E+00 0.  1.
     999902    2    1    2    0    0  0.74947796737E-02 -0.15896484961E-01  0.17259589773E-01  0.10192974322E+01  0.10189997507E+01 0.  0.
     999903    2    3    3    0    0  0.85090940282E-01  0.50433616799E-01 -0.79044300715E-01  0.12817719013E+00  0.19934211081E-01 0.  0.
         14    1    1    2    0    0 -0.74947796737E-02  0.15896484961E-01 -0.17259589773E-01  0.24632567783E-01  0.00000000000E+00 0.  1.
     999901    1    3    3    0    0 -0.77596160609E-01 -0.66330101760E-01  0.96303890488E-01  0.89112024209E+00  0.88000000000E+00 0. -1.
        -11    1    4    4    0    0  0.20626424467E-01  0.97771924507E-02 -0.29376415435E-01  0.37205883719E-01  0.51100000000E-03 0. -1.
         11    1    4    4    0    0  0.64464515816E-01  0.40656424349E-01 -0.49667885280E-01  0.90971306407E-01  0.51100000000E-03 0.  1.
</event>
<event>
 8    1  0.1199892E+005  0.1043930E+01  0.7957747E-01            NaN
         13   -1    0    0    0    0  0.00000000000E+00  0.00000000000E+00  0.74505805969E-08  0.10566000000E+00  0.10566000000E+00 0. -1.
     999900   -1    0    0    0    0 -0.00000000000E+00 -0.00000000000E+00 -0.74505805969E-08  0.93827000000E+00  0.93827000000E+00 0.  1.
     999902    2    1    2    0    0 -0.54677052372E-02  0.19111426788E-01  0.12682859315E-01  0.10203504038E+01  0.10200779133E+01 0.  0.
     999903    2    3    3    0    0  0.50625784742E-01 -0.71116336778E-01  0.94629411769E-01  0.13018032662E+00  0.19279222711E-01 0.  0.
         14    1    1    2    0    0  0.54677052372E-02 -0.19111426788E-01 -0.12682859315E-01  0.23579596155E-01  0.00000000000E+00 0.  1.
     999901    1    3    3    0    0 -0.56093489980E-01  0.90227763566E-01 -0.81946552455E-01  0.89017007723E+00  0.88000000000E+00 0.  1.
        -11    1    4    4    0    0  0.17515550800E-01 -0.38656547188E-01  0.52684529863E-01  0.67653854053E-01  0.51100000000E-03 0. -1.
         11    1    4    4    0    0  0.33110233943E-01 -0.32459789590E-01  0.41944881906E-01  0.62526472562E-01  0.51100000000E-03 0.  1.
</event>
<event>
 8    1  0.1199892E+005  0.1043930E+01  0.7957747E-01            NaN
         13   -1    0    0    0    0  0.00000000000E+00  0.00000000000E+00  0.74505805969E-08  0.10566000000E+00  0.10566000000E+00 0.  1.
     999900   -1    0    0    0    0 -0.00000000000E+00 -0.00000000000E+00 -0.74505805969E-08  0.93827000000E+00  0.93827000000E+00 0.  1.
     999902    2    1    2    0    0 -0.51580376267E-02  0.23014945688E-01  0.79224103866E-04  0.10203440009E+01  0.10200713606E+01 0.  0.
     999903    2    3    3    0    0  0.51221872970E-01 -0.97120903689E-01 -0.63389222951E-01  0.12813350982E+00  0.18543261515E-01 0.  0.
         14    1    1    2    0    0  0.51580376267E-02 -0.23014945688E-01 -0.79224103866E-04  0.23585999102E-01  0.00000000000E+00 0. -1.
     999901    1    3    3    0    0 -0.56379910597E-01  0.12013584938E+00  0.63468447055E-01  0.89221049108E+00  0.88000000000E+00 0. -1.
        -11    1    4    4    0    0  0.42897337834E-01 -0.77416432796E-01 -0.42324203941E-01  0.98107517655E-01  0.51100000000E-03 0.  1.
         11    1    4    4    0    0  0.83245351361E-02 -0.19704470892E-01 -0.21065019010E-01  0.30025992162E-01  0.51100000000E-03 0. -1.
</event>
<event>
 8    1  0.1199892E+005  0.1043930E+01  0.7957747E-01            NaN
         13   -1    0    0    0    0  0.00000000000E+00  0.00000000000E+00  0.74505805969E-08  0.10566000000E+00  0.10566000000E+00 0.  1.
     999900   -1    0    0    0    0 -0.00000000000E+00 -0.00000000000E+00 -0.74505805969E-08  0.93827000000E+00  0.93827000000E+00 0.  1.
     999902    2    1    2    0    0 -0.14994565170E-01 -0.14981061753E-01  0.11019181471E-01  0.10200408486E+01  0.10197610706E+01 0.  0.
     999903    2    3    3    0    0 -0.28557891017E-01  0.55260690401E-01 -0.11099074216E+00  0.12874724429E+00  0.19687839553E-01 0.  0.
         14    1    1    2    0    0  0.14994565170E-01  0.14981061753E-01 -0.11019181471E-01  0.23889151433E-01  0.00000000000E+00 0. -1.
     999901    1    3    3    0    0  0.13563325848E-01 -0.70241752155E-01  0.12200992363E+00  0.89129360427E+00  0.88000000000E+00 0. -1.
        -11    1    4    4    0    0 -0.13141926611E-01  0.14914396585E-01 -0.51690603648E-01  0.55383473049E-01  0.51100000000E-03 0.  1.
         11    1    4    4    0    0 -0.15415964407E-01  0.40346293816E-01 -0.59300138508E-01  0.73363771245E-01  0.51100000000E-03 0. -1.
</event>
<event>
 8    1  0.1199892E+005  0.1043930E+01  0.7957747E-01            NaN
         13   -1    0    0    0    0  0.00000000000E+00  0.00000000000E+00  0.74505805969E-08  0.10566000000E+00  0.10566000000E+00 0.  1.
     999900   -1    0    0    0    0 -0.00000000000E+00 -0.00000000000E+00 -0.74505805969E-08  0.93827000000E+00  0.93827000000E+00 0.  1.
     999902    2    1    2    0    0 -0.79929028634E-03 -0.20155852624E-01  0.13040153370E-01  0.10199103651E+01  0.10196274859E+01 0.  0.
     999903    2    3    3    0    0  0.12837425914E+00 -0.71258725456E-02  0.11907973241E-02  0.13030596231E+00  0.21154133090E-01 0.  0.
         14    1    1    2    0    0  0.79929028634E-03  0.20155852624E-01 -0.13040153370E-01  0.24019634882E-01  0.00000000000E+00 0. -1.
     999901    1    3    3    0    0 -0.12917354943E+00 -0.13029980078E-01  0.11849356046E-01  0.88960440281E+00  0.88000000000E+00 0.  1.
        -11    1    4    4    0    0  0.88431524401E-01  0.36262652440E-02  0.57144400349E-02  0.88691601933E-01  0.51100000000E-03 0.  1.
         11    1    4    4    0    0  0.39942734738E-01 -0.10752137790E-01 -0.45236427108E-02  0.41614360380E-01  0.51100000000E-03 0. -1.
</event>
<event>
 8    1  0.1199892E+005  0.1043930E+01  0.7957747E-01            NaN
         13   -1    0    0    0    0  0.00000000000E+00  0.00000000000E+00  0.74505805969E-08  0.10566000000E+00  0.10566000000E+00 0. -1.
     999900   -1    0    0    0    0 -0.00000000000E+00 -0.00000000000E+00 -0.74505805969E-08  0.93827000000E+00  0.93827000000E+00 0.  1.
     999902    2    1    2    0    0  0.86552186156E-02 -0.27235806976E-01  0.19082335223E-02  0.10152883634E+01  0.10148842878E+01 0.  0.
     999903    2    3    3    0    0 -0.93720100182E-01  0.56365342700E-01 -0.55322824932E-01  0.12357918875E+00  0.15833252949E-01 0.  0.
         14    1    1    2    0    0 -0.86552186156E-02  0.27235806976E-01 -0.19082335223E-02  0.28641636582E-01  0.00000000000E+00 0. -1.
     999901    1    3    3    0    0  0.10237531880E+00 -0.83601149676E-01  0.57231058454E-01  0.89170917466E+00  0.88000000000E+00 0. -1.
        -11    1    4    4    0    0 -0.73697283186E-01  0.43014983549E-01 -0.35607069507E-01  0.92464603382E-01  0.51100000000E-03 0.  1.
         11    1    4    4    0    0 -0.20022816996E-01  0.13350359151E-01 -0.19715755425E-01  0.31114585373E-01  0.51100000000E-03 0. -1.
</event>
<event>
 8    1  0.1199892E+005  0.1043930E+01  0.7957747E-01            NaN
         13   -1    0    0    0    0  0.00000000000E+00  0.00000000000E+00  0.74505805969E-08  0.10566000000E+00  0.10566000000E+00 0. -1.
     999900   -1    0    0    0    0 -0.00000000000E+00 -0.00000000000E+00 -0.74505805969E-08  0.93827000000E+00  0.93827000000E+00 0. -1.
     999902    2    1    2    0    0  0.12705581235E-01  0.79381316788E-02  0.17949582782E-01  0.10205498107E+01  0.10202819624E+01 0.  0.
     999903    2    3    3    0    0  0.90679846933E-01 -0.48064792680E-01  0.82216456574E-01  0.13299894191E+00  0.19902609930E-01 0.  0.
         14    1    1    2    0    0 -0.12705581235E-01 -0.79381316788E-02 -0.17949582782E-01  0.23380189287E-01  0.00000000000E+00 0.  1.
     999901    1    3    3    0    0 -0.77974265698E-01  0.56002924359E-01 -0.64266873792E-01  0.88755086880E+00  0.88000000000E+00 0. -1.
        -11    1    4    4    0    0  0.32407559457E-01 -0.88505305203E-02  0.19579894671E-01  0.38887211224E-01  0.51100000000E-03 0. -1.
         11    1    4    4    0    0  0.58272287476E-01 -0.39214262160E-01  0.62636561903E-01  0.94111730685E-01  0.51100000000E-03 0.  1.
</event>
<event>
 8    1  0.1199892E+005  0.1043930E+01  0.7957747E-01            NaN
         13   -1    0    0    0    0  0.00000000000E+00  0.00000000000E+00  0.74505805969E-08  0.10566000000E+00  0.10566000000E+00 0. -1.
     999900   -1    0    0    0    0 -0.00000000000E+00 -0.00000000000E+00 -0.74505805969E-08  0.93827000000E+00  0.93827000000E+00 0.  1.
     999902    2    1    2    0    0  0.36275778193E-02 -0.84153547174E-02 -0.22114727140E-01  0.10199917738E+01  0.10197108316E+01 0.  0.
     999903    2    3    3    0    0 -0.28859880730E-02  0.94816459294E-01 -0.88693446589E-01  0.13143566426E+00  0.20256270423E-01 0.  0.
         14    1    1    2    0    0 -0.36275778193E-02  0.84153547174E-02  0.22114727140E-01  0.23938226173E-01  0.00000000000E+00 0. -1.
     999901    1    3    3    0    0  0.65135658923E-02 -0.10323181401E+00  0.66578719449E-01  0.88855610957E+00  0.88000000000E+00 0. -1.
        -11    1    4    4    0    0  0.39196545127E-02  0.53689046725E-01 -0.38488161827E-01  0.66177618207E-01  0.51100000000E-03 0. -1.
         11    1    4    4    0    0 -0.68056425856E-02  0.41127412569E-01 -0.50205284762E-01  0.65258046053E-01  0.51100000000E-03 0.  1.
</event>
<event>
 8    1  0.1199892E+005  0.1043930E+01  0.7957747E-01            NaN
         13   -1    0    0    0    0  0.00000000000E+00  0.00000000000E+00  0.74505805969E-08  0.10566000000E+00  0.10566000000E+00 0. -1.
     999900   -1    0    0    0    0 -0.00000000000E+00 -0.00000000000E+00 -0.74505805969E-08  0.93827000000E+00  0.93827000000E+00 0. -1.
     999902    2    1    2    0    0  0.11487085739E-01 -0.10761561535E-02 -0.20653389024E-01  0.10202725756E+01  0.10199982622E+01 0.  0.
     999903    2    3    3    0    0  0.12263988695E+00  0.40275589868E-01  0.18877302583E-01  0.13143761472E+00  0.16025885324E-01 0.  0.
         14    1    1    2    0    0 -0.11487085739E-01  0.10761561535E-02  0.20653389024E-01  0.23657424395E-01  0.00000000000E+00 0. -1.
     999901    1    3    3    0    0 -0.11115280121E+00 -0.41351746022E-01 -0.39530691607E-01  0.88883496089E+00  0.88000000000E+00 0.  1.
        -11    1    4    4    0    0  0.11728396945E-01  0.89215569892E-02  0.77236527178E-03  0.14765064955E-01  0.51100000000E-03 0. -1.
         11    1    4    4    0    0  0.11091149000E+00  0.31354032879E-01  0.18104937311E-01  0.11667254976E+00  0.51100000000E-03 0.  1.
</event>
<event>
 8    1  0.1199892E+005  0.1043930E+01  0.7957747E-01            NaN
         13   -1    0    0    0    0  0.00000000000E+00  0.00000000000E+00  0.74505805969E-08  0.10566000000E+00  0.10566000000E+00 0. -1.
     999900   -1    0    0    0    0 -0.00000000000E+00 -0.00000000000E+00 -0.74505805969E-08  0.93827000000E+00  0.93827000000E+00 0.  1.
     999902    2    1    2    0    0  0.22267021610E-01  0.71756537004E-02 -0.41910624916E-02  0.10201628954E+01  0.10198860024E+01 0.  0.
     999903    2    3    3    0    0 -0.98532587461E-01  0.32679767071E-01 -0.73536981596E-01  0.12884260398E+00  0.20398308056E-01 0.  0.
         14    1    1    2    0    0 -0.22267021610E-01 -0.71756537004E-02  0.41910624916E-02  0.23767104624E-01  0.00000000000E+00 0.  1.
     999901    1    3    3    0    0  0.12079960907E+00 -0.25504113371E-01  0.69345919105E-01  0.89132029139E+00  0.88000000000E+00 0. -1.
        -11    1    4    4    0    0 -0.25742665863E-01  0.96052867372E-02 -0.31021929733E-01  0.41443547439E-01  0.51100000000E-03 0. -1.
         11    1    4    4    0    0 -0.72789921598E-01  0.23074480334E-01 -0.42515051864E-01  0.87399056545E-01  0.51100000000E-03 0.  1.
</event>
<event>
 8    1  0.1199892E+005  0.1043930E+01  0.7957747E-01            NaN
         13   -1    0    0    0    0  0.00000000000E+00  0.00000000000E+00  0.74505805969E-08  0.10566000000E+00  0.10566000000E+00 0. -1.
     999900   -1    0    0    0    0 -0.00000000000E+00 -0.00000000000E+00 -0.74505805969E-08  0.93827000000E+00  0.93827000000E+00 0. -1.
     999902    2    1    2    0    0 -0.12775599796E-01 -0.18289755008E-01 -0.94015348297E-02  0.10197200858E+01  0.10194326527E+01 0.  0.
     999903    2    3    3    0    0 -0.28515528299E-01 -0.12608709346E+00  0.20951608382E-01  0.13248318123E+00  0.20043276304E-01 0.  0.
         14    1    1    2    0    0  0.12775599796E-01  0.18289755008E-01  0.94015348297E-02  0.24209914200E-01  0.00000000000E+00 0. -1.
     999901    1    3    3    0    0  0.15739928503E-01  0.10779733845E+00 -0.30353143212E-01  0.88723690457E+00  0.88000000000E+00 0. -1.
        -11    1    4    4    0    0 -0.43504785730E-02 -0.17875343146E-01  0.10310252277E-01  0.21095425557E-01  0.51100000000E-03 0.  1.
         11    1    4    4    0    0 -0.24165049726E-01 -0.10821175031E+00  0.10641356105E-01  0.11138775567E+00  0.51100000000E-03 0. -1.
</event>
<event>
 8    1  0.1199892E+005  0.1043930E+01  0.7957747E-01            NaN
         13   -1    0    0    0    0  0.00000000000E+00  0.00000000000E+00  0.74505805969E-08  0.10566000000E+00  0.10566000000E+00 0. -1.
     999900   -1    0    0    0    0 -0.00000000000E+00 -0.00000000000E+00 -0.74505805969E-08  0.93827000000E+00  0.93827000000E+00 0.  1.
     999902    2    1    2    0    0 -0.10666868676E-01 -0.16088011277E-01  0.13496954857E-01  0.10203763594E+01  0.10201044755E+01 0.  0.
     999903    2    3    3    0    0  0.27802038187E-01  0.20743937650E-01 -0.12204583424E+00  0.12840758366E+00  0.19749876181E-01 0.  0.
         14    1    1    2    0    0  0.10666868676E-01  0.16088011277E-01 -0.13496954857E-01  0.23553640581E-01  0.00000000000E+00 0.  1.
     999901    1    3    3    0    0 -0.38468906863E-01 -0.36831948927E-01  0.13554278910E+00  0.89196877576E+00  0.88000000000E+00 0. -1.
        -11    1    4    4    0    0  0.39090495007E-02  0.13096277506E-01 -0.29428217163E-01  0.32451105357E-01  0.51100000000E-03 0. -1.
         11    1    4    4    0    0  0.23892988687E-01  0.76476601442E-02 -0.92617617076E-01  0.95956478301E-01  0.51100000000E-03 0.  1.
</event>
<event>
 8    1  0.1199892E+005  0.1043930E+01  0.7957747E-01            NaN
         13   -1    0    0    0    0  0.00000000000E+00  0.00000000000E+00  0.74505805969E-08  0.10566000000E+00  0.10566000000E+00 0. -1.
     999900   -1    0    0    0    0 -0.00000000000E+00 -0.00000000000E+00 -0.74505805969E-08  0.93827000000E+00  0.93827000000E+00 0. -1.
     999902    2    1    2    0    0 -0.51560459100E-02 -0.49760939272E-02  0.23548108586E-01  0.10193157818E+01  0.10190185490E+01 0.  0.
     999903    2    3    3    0    0  0.36188841510E-01 -0.12173209262E+00  0.23263544819E-01  0.13064180112E+00  0.19943747360E-01 0.  0.
         14    1    1    2    0    0  0.51560459100E-02  0.49760939272E-02 -0.23548108586E-01  0.24614218212E-01  0.00000000000E+00 0.  1.
     999901    1    3    3    0    0 -0.41344887420E-01  0.11675599869E+00  0.28456376705E-03  0.88867398067E+00  0.88000000000E+00 0.  1.
        -11    1    4    4    0    0  0.22727293252E-01 -0.66262043767E-01  0.22419117902E-01  0.73553152694E-01  0.51100000000E-03 0.  1.
         11    1    4    4    0    0  0.13461548257E-01 -0.55470048850E-01  0.84442691724E-03  0.57088648423E-01  0.51100000000E-03 0. -1.
</event>
<event>
 8    1  0.1238735E+005  0.1043930E+01  0.7957747E-01            NaN
         13   -1    0    0    0    0  0.00000000000E+00  0.00000000000E+00  0.74505805969E-08  0.10566000000E+00  0.10566000000E+00 0. -1.
     999900   -1    0    0    0    0 -0.00000000000E+00 -0.00000000000E+00 -0.74505805969E-08  0.93827000000E+00  0.93827000000E+00 0.  1.
     999902    2    1    2    0    0  0.21906154768E-01  0.44995490319E-02 -0.74782885935E-02  0.10203492799E+01  0.10200767631E+01 0.  0.
     999903    2    3    3    0    0 -0.45798651519E-01 -0.89178928896E-01  0.76678721475E-01  0.12881016113E+00  0.25730010573E-01 0.  0.
         14    1    1    2    0    0 -0.21906154768E-01 -0.44995490319E-02  0.74782885935E-02  0.23580720059E-01  0.00000000000E+00 0. -1.
     999901    1    3    3    0    0  0.67704806287E-01  0.93678477928E-01 -0.84157010068E-01  0.89153911881E+00  0.88000000000E+00 0.  1.
        -11    1    4    4    0    0 -0.45281832075E-02 -0.34979813193E-01  0.28869320437E-01  0.45582787954E-01  0.51100000000E-03 0. -1.
         11    1    4    4    0    0 -0.41270468312E-01 -0.54199115703E-01  0.47809401038E-01  0.83227373179E-01  0.51100000000E-03 0.  1.
</event>
<event>
 8    1  0.1199892E+005  0.1043930E+01  0.7957747E-01            NaN
         13   -1    0    0    0    0  0.00000000000E+00  0.00000000000E+00  0.74505805969E-08  0.10566000000E+00  0.10566000000E+00 0.  1.
     999900   -1    0    0    0    0 -0.00000000000E+00 -0.00000000000E+00 -0.74505805969E-08  0.93827000000E+00  0.93827000000E+00 0.  1.
     999902    2    1    2    0    0  0.15803271197E-01 -0.13168226350E-01  0.11594061423E-01  0.10203171258E+01  0.10200438566E+01 0.  0.
     999903    2    3    3    0    0  0.12704536020E-01 -0.12093722283E+00  0.49837234239E-01  0.13291287803E+00  0.19871238725E-01 0.  0.
         14    1    1    2    0    0 -0.15803271197E-01  0.13168226350E-01 -0.11594061423E-01  0.23612874158E-01  0.00000000000E+00 0. -1.
     999901    1    3    3    0    0  0.30987351776E-02  0.10776899648E+00 -0.38243172817E-01  0.88740424781E+00  0.88000000000E+00 0.  1.
        -11    1    4    4    0    0  0.10999978044E-01 -0.55492117004E-01  0.32257746541E-01  0.65124480032E-01  0.51100000000E-03 0.  1.
         11    1    4    4    0    0  0.17045579759E-02 -0.65445105828E-01  0.17579487698E-01  0.67788398000E-01  0.51100000000E-03 0. -1.
</event>
<event>
 8    1  0.1199892E+005  0.1043930E+01  0.7957747E-01            NaN
         13   -1    0    0    0    0  0.00000000000E+00  0.00000000000E+00  0.74505805969E-08  0.10566000000E+00  0.10566000000E+00 0.  1.
     999900   -1    0    0    0    0 -0.00000000000E+00 -0.00000000000E+00 -0.74505805969E-08  0.93827000000E+00  0.93827000000E+00 0. -1.
     999902    2    1    2    0    0  0.96523570395E-02 -0.33640861527E-02  0.21297399923E-01  0.10203066151E+01  0.10200330997E+01 0.  0.
     999903    2    3    3    0    0 -0.67464640152E-01 -0.84674625847E-01  0.72316289300E-01  0.13173396064E+00  0.20072886084E-01 0.  0.
         14    1    1    2    0    0 -0.96523570395E-02  0.33640861527E-02 -0.21297399923E-01  0.23623384930E-01  0.00000000000E+00 0. -1.
     999901    1    3    3    0    0  0.77116997191E-01  0.81310539694E-01 -0.51018889377E-01  0.88857265443E+00  0.88000000000E+00 0.  1.
        -11    1    4    4    0    0 -0.54013172842E-01 -0.78497204799E-01  0.61902063822E-01  0.11362816829E+00  0.51100000000E-03 0.  1.
         11    1    4    4    0    0 -0.13451467310E-01 -0.61774210476E-02  0.10414225478E-01  0.18105792357E-01  0.51100000000E-03 0. -1.
</event>
<event>
 8    1  0.1199892E+005  0.1043930E+01  0.7957747E-01            NaN
         13   -1    0    0    0    0  0.00000000000E+00  0.00000000000E+00  0.74505805969E-08  0.10566000000E+00  0.10566000000E+00 0. -1.
     999900   -1    0    0    0    0 -0.00000000000E+00 -0.00000000000E+00 -0.74505805969E-08  0.93827000000E+00  0.93827000000E+00 0. -1.
     999902    2    1    2    0    0 -0.18504031356E-01  0.14018441380E-01 -0.62536046739E-02  0.10198878818E+01  0.10196044665E+01 0.  0.
     999903    2    3    3    0    0  0.21822864898E-01  0.12535013445E+00  0.25957149413E-01  0.13137308897E+00  0.19905307343E-01 0.  0.
         14    1    1    2    0    0  0.18504031356E-01 -0.14018441380E-01  0.62536046739E-02  0.24042118180E-01  0.00000000000E+00 0.  1.
     999901    1    3    3    0    0 -0.40326896253E-01 -0.11133169307E+00 -0.32210754087E-01  0.88851479285E+00  0.88000000000E+00 0. -1.
        -11    1    4    4    0    0 -0.20829185948E-02  0.42129942890E-01  0.93275888529E-02  0.43203422001E-01  0.51100000000E-03 0.  1.
         11    1    4    4    0    0  0.23905783492E-01  0.83220191558E-01  0.16629560560E-01  0.88169666965E-01  0.51100000000E-03 0. -1.
</event>
<event>
 8    1  0.1199892E+005  0.1043930E+01  0.7957747E-01            NaN
         13   -1    0    0    0    0  0.00000000000E+00  0.00000000000E+00  0.74505805969E-08  0.10566000000E+00  0.10566000000E+00 0. -1.
     999900   -1    0    0    0    0 -0.00000000000E+00 -0.00000000000E+00 -0.74505805969E-08  0.93827000000E+00  0.93827000000E+00 0. -1.
     999902    2    1    2    0    0  0.12406174995E-01  0.18755608550E-01  0.38256755938E-02  0.10211194361E+01  0.10208646242E+01 0.  0.
     999903    2    3    3    0    0  0.13051566853E+00 -0.74227982033E-02  0.12215443025E-01  0.13280330455E+00  0.19951515864E-01 0.  0.
         14    1    1    2    0    0 -0.12406174995E-01 -0.18755608550E-01 -0.38256755938E-02  0.22810563865E-01  0.00000000000E+00 0.  1.
     999901    1    3    3    0    0 -0.11810949353E+00  0.26178406753E-01 -0.83897674307E-02  0.88831613159E+00  0.88000000000E+00 0. -1.
        -11    1    4    4    0    0  0.11547375675E+00 -0.99768348184E-02  0.52510385223E-02  0.11602396415E+00  0.51100000000E-03 0. -1.
         11    1    4    4    0    0  0.15041911783E-01  0.25540366151E-02  0.69644045022E-02  0.16779340398E-01  0.51100000000E-03 0.  1.
</event>
<event>
 8    1  0.1199892E+005  0.1043930E+01  0.7957747E-01            NaN
         13   -1    0    0    0    0  0.00000000000E+00  0.00000000000E+00  0.74505805969E-08  0.10566000000E+00  0.10566000000E+00 0.  1.
     999900   -1    0    0    0    0 -0.00000000000E+00 -0.00000000000E+00 -0.74505805969E-08  0.93827000000E+00  0.93827000000E+00 0. -1.
     999902    2    1    2    0    0 -0.16673765380E-01  0.13262442279E-01 -0.87861893957E-02  0.10208843073E+01  0.10206241546E+01 0.  0.
     999903    2    3    3    0    0  0.11916657374E+00  0.41626370196E-01 -0.21560298312E-01  0.12991837755E+00  0.21920569594E-01 0.  0.
         14    1    1    2    0    0  0.16673765380E-01 -0.13262442279E-01  0.87861893957E-02  0.23045692684E-01  0.00000000000E+00 0.  1.
     999901    1    3    3    0    0 -0.13584033912E+00 -0.28363927917E-01  0.12774108916E-01  0.89096592976E+00  0.88000000000E+00 0.  1.
        -11    1    4    4    0    0  0.37918440101E-01  0.67851161639E-02 -0.14750756173E-01  0.41251567603E-01  0.51100000000E-03 0.  1.
         11    1    4    4    0    0  0.81248133635E-01  0.34841254032E-01 -0.68095421389E-02  0.88666809951E-01  0.51100000000E-03 0. -1.
</event>
<event>
 8    1  0.1199892E+005  0.1043930E+01  0.7957747E-01            NaN
         13   -1    0    0    0    0  0.00000000000E+00  0.00000000000E+00  0.74505805969E-08  0.10566000000E+00  0.10566000000E+00 0. -1.
     999900   -1    0    0    0    0 -0.00000000000E+00 -0.00000000000E+00 -0.74505805969E-08  0.93827000000E+00  0.93827000000E+00 0. -1.
     999902    2    1    2    0    0  0.15859782242E-01  0.12312091274E-01  0.11388210922E-01  0.10208472872E+01  0.10205862884E+01 0.  0.
     999903    2    3    3    0    0  0.45458539780E-01  0.88442275530E-01  0.87107989214E-01  0.13382678219E+00  0.20815640915E-01 0.  0.
         14    1    1    2    0    0 -0.15859782242E-01 -0.12312091274E-01 -0.11388210922E-01  0.23082712845E-01  0.00000000000E+00 0.  1.
     999901    1    3    3    0    0 -0.29598757538E-01 -0.76130184255E-01 -0.75719778292E-01  0.88702050496E+00  0.88000000000E+00 0.  1.
        -11    1    4    4    0    0  0.17924434660E-01  0.32686543213E-01  0.19892858202E-01  0.42257335381E-01  0.51100000000E-03 0.  1.
         11    1    4    4    0    0  0.27534105121E-01  0.55755732317E-01  0.67215131012E-01  0.91569446809E-01  0.51100000000E-03 0. -1.
</event>
<event>
 8    1  0.1199892E+005  0.1043930E+01  0.7957747E-01            NaN
         13   -1    0    0    0    0  0.00000000000E+00  0.00000000000E+00  0.74505805969E-08  0.10566000000E+00  0.10566000000E+00 0. -1.
     999900   -1    0    0    0    0 -0.00000000000E+00 -0.00000000000E+00 -0.74505805969E-08  0.93827000000E+00  0.93827000000E+00 0.  1.
     999902    2    1    2    0    0 -0.12116956974E-01 -0.21270147964E-01 -0.15080389390E-02  0.10194042172E+01  0.10191091423E+01 0.  0.
     999903    2    3    3    0    0  0.11341122374E-01  0.82030774019E-01  0.94993445927E-01  0.12781356081E+00  0.21327977296E-01 0.  0.
         14    1    1    2    0    0  0.12116956974E-01  0.21270147964E-01  0.15080389390E-02  0.24525782804E-01  0.00000000000E+00 0.  1.
     999901    1    3    3    0    0 -0.23458079348E-01 -0.10330092198E+00 -0.96501484866E-01  0.89159065638E+00  0.88000000000E+00 0.  1.
        -11    1    4    4    0    0 -0.45679018339E-02  0.79994915421E-02  0.15414661159E-01  0.17964701271E-01  0.51100000000E-03 0. -1.
         11    1    4    4    0    0  0.15909024208E-01  0.74031282476E-01  0.79578784768E-01  0.10984885954E+00  0.51100000000E-03 0.  1.
</event>
<event>
 8    1  0.1199892E+005  0.1043930E+01  0.7957747E-01            NaN
         13   -1    0    0    0    0  0.00000000000E+00  0.00000000000E+00  0.74505805969E-08  0.10566000000E+00  0.10566000000E+00 0.  1.
     999900   -1    0    0    0    0 -0.00000000000E+00 -0.00000000000E+00 -0.74505805969E-08  0.93827000000E+00  0.93827000000E+00 0.  1.
     999902    2    1    2    0    0  0.15579548347E-01  0.45374575542E-02 -0.16726130657E-01  0.10206260455E+01  0.10203599612E+01 0.  0.
     999903    2    3    3    0    0 -0.30376424533E-01 -0.19363626249E-01  0.12157018238E+00  0.12832055778E+00  0.19727623134E-01 0.  0.
         14    1    1    2    0    0 -0.15579548347E-01 -0.45374575542E-02  0.16726130657E-01  0.23303954482E-01  0.00000000000E+00 0.  1.
     999901    1    3    3    0    0  0.45955972880E-01  0.23901083803E-01 -0.13829631304E+00  0.89230548774E+00  0.88000000000E+00 0.  1.
        -11    1    4    4    0    0 -0.28166792058E-01 -0.16371586949E-01  0.77234163096E-01  0.83825855821E-01  0.51100000000E-03 0.  1.
         11    1    4    4    0    0 -0.22096324754E-02 -0.29920393000E-02  0.44336019288E-01  0.44494701956E-01  0.51100000000E-03 0. -1.
</event>
<event>
 8    1  0.1199892E+005  0.1043930E+01  0.7957747E-01            NaN
         13   -1    0    0    0    0  0.00000000000E+00  0.00000000000E+00  0.74505805969E-08  0.10566000000E+00  0.10566000000E+00 0.  1.
     999900   -1    0    0    0    0 -0.00000000000E+00 -0.00000000000E+00 -0.74505805969E-08  0.93827000000E+00  0.93827000000E+00 0.  1.
     999902    2    1    2    0    0  0.13887932450E-01 -0.15577247838E-01  0.15488187896E-01  0.10179413624E+01  0.10176095558E+01 0.  0.
     999903    2    3    3    0    0 -0.17609387354E-01 -0.71347774994E-01 -0.10274404508E+00  0.12772717823E+00  0.18902321037E-01 0.  0.
         14    1    1    2    0    0 -0.13887932450E-01  0.15577247838E-01 -0.15488187896E-01  0.25988637560E-01  0.00000000000E+00 0.  1.
     999901    1    3    3    0    0  0.31497319804E-01  0.55770527156E-01  0.11823223297E+00  0.89021418421E+00  0.88000000000E+00 0. -1.
        -11    1    4    4    0    0 -0.11952309063E-01 -0.40513591787E-01 -0.43130016931E-01  0.60371088220E-01  0.51100000000E-03 0.  1.
         11    1    4    4    0    0 -0.56570782908E-02 -0.30834183207E-01 -0.59614028145E-01  0.67356090010E-01  0.51100000000E-03 0. -1.
</event>
<event>
 8    1  0.1199892E+005  0.1043930E+01  0.7957747E-01            NaN
         13   -1    0    0    0    0  0.00000000000E+00  0.00000000000E+00  0.74505805969E-08  0.10566000000E+00  0.10566000000E+00 0.  1.
     999900   -1    0    0    0    0 -0.00000000000E+00 -0.00000000000E+00 -0.74505805969E-08  0.93827000000E+00  0.93827000000E+00 0. -1.
     999902    2    1    2    0    0 -0.17272984242E-01  0.10262934071E-01  0.17899026820E-01  0.10170216563E+01  0.10166656237E+01 0.  0.
     999903    2    3    3    0    0 -0.28127886448E-01 -0.10809241020E+00  0.59215292245E-01  0.12807123573E+00  0.20509593985E-01 0.  0.
         14    1    1    2    0    0  0.17272984242E-01 -0.10262934071E-01 -0.17899026820E-01  0.26908343715E-01  0.00000000000E+00 0.  1.
     999901    1    3    3    0    0  0.10854902207E-01  0.11835534428E+00 -0.41316265425E-01  0.88895042056E+00  0.88000000000E+00 0. -1.
        -11    1    4    4    0    0 -0.19222783899E-01 -0.35283824816E-01  0.19727047912E-01  0.44764732266E-01  0.51100000000E-03 0.  1.
         11    1    4    4    0    0 -0.89051025493E-02 -0.72808585388E-01  0.39488244333E-01  0.83306503463E-01  0.51100000000E-03 0. -1.
</event>
<event>
 8    1  0.1199892E+005  0.1043930E+01  0.7957747E-01            NaN
         13   -1    0    0    0    0  0.00000000000E+00  0.00000000000E+00  0.74505805969E-08  0.10566000000E+00  0.10566000000E+00 0.  1.
     999900   -1    0    0    0    0 -0.00000000000E+00 -0.00000000000E+00 -0.74505805969E-08  0.93827000000E+00  0.93827000000E+00 0. -1.
     999902    2    1    2    0    0 -0.17972352512E-01 -0.76818928573E-03  0.15140673611E-01  0.10204175444E+01  0.10201466215E+01 0.  0.
     999903    2    3    3    0    0  0.18863899755E-01 -0.12742598356E+00  0.77804608205E-02  0.13055616249E+00  0.19777461771E-01 0.  0.
         14    1    1    2    0    0  0.17972352512E-01  0.76818928573E-03 -0.15140673611E-01  0.23512455571E-01  0.00000000000E+00 0. -1.
     999901    1    3    3    0    0 -0.36836252267E-01  0.12665779427E+00  0.73602127903E-02  0.88986138194E+00  0.88000000000E+00 0. -1.
        -11    1    4    4    0    0  0.14584260391E-01 -0.56141952915E-01  0.11120380727E-01  0.59063893512E-01  0.51100000000E-03 0.  1.
         11    1    4    4    0    0  0.42796393638E-02 -0.71284030643E-01 -0.33399199067E-02  0.71492268980E-01  0.51100000000E-03 0. -1.
</event>
<event>
 8    1  0.1199892E+005  0.1043930E+01  0.7957747E-01            NaN
         13   -1    0    0    0    0  0.00000000000E+00  0.00000000000E+00  0.74505805969E-08  0.10566000000E+00  0.10566000000E+00 0.  1.
     999900   -1    0    0    0    0 -0.00000000000E+00 -0.00000000000E+00 -0.74505805969E-08  0.93827000000E+00  0.93827000000E+00 0.  1.
     999902    2    1    2    0    0 -0.75787524103E-03 -0.21390749103E-01 -0.10952149351E-01  0.10198865373E+01  0.10196030899E+01 0.  0.
     999903    2    3    3    0    0  0.64631519217E-01  0.12889329343E-01  0.10891235409E+00  0.12869722193E+00  0.18913116390E-01 0.  0.
         14    1    1    2    0    0  0.75787524103E-03  0.21390749103E-01  0.10952149351E-01  0.24043462677E-01  0.00000000000E+00 0. -1.
     999901    1    3    3    0    0 -0.65389394458E-01 -0.34280078447E-01 -0.11986450344E+00  0.89118931539E+00  0.88000000000E+00 0.  1.
        -11    1    4    4    0    0  0.48395578592E-01  0.16667086982E-01  0.89506264942E-01  0.10310943895E+00  0.51100000000E-03 0. -1.
         11    1    4    4    0    0  0.16235940625E-01 -0.37777576388E-02  0.19406089149E-01  0.25587782980E-01  0.51100000000E-03 0.  1.
</event>
<event>
 8    1  0.1199892E+005  0.1043930E+01  0.7957747E-01            NaN
         13   -1    0    0    0    0  0.00000000000E+00  0.00000000000E+00  0.74505805969E-08  0.10566000000E+00  0.10566000000E+00 0.  1.
     999900   -1    0    0    0    0 -0.00000000000E+00 -0.00000000000E+00 -0.74505805969E-08  0.93827000000E+00  0.93827000000E+00 0. -1.
     999902    2    1    2    0    0  0.15688324829E-01 -0.73475758730E-02 -0.15784687568E-01  0.10204935590E+01  0.10202244053E+01 0.  0.
     999903    2    3    3    0    0 -0.27098641954E-01  0.36986159084E-01  0.11807527245E+00  0.12824096385E+00  0.20041519051E-01 0.  0.
         14    1    1    2    0    0 -0.15688324829E-01  0.73475758730E-02  0.15784687568E-01  0.23436441043E-01  0.00000000000E+00 0.  1.
     999901    1    3    3    0    0  0.42786966783E-01 -0.44333734957E-01 -0.13385996002E+00  0.89225259511E+00  0.88000000000E+00 0. -1.
        -11    1    4    4    0    0 -0.25944093796E-02 -0.20189678146E-02  0.14606957162E-01  0.14981038335E-01  0.51100000000E-03 0.  1.
         11    1    4    4    0    0 -0.24504232574E-01  0.39005126898E-01  0.10346831528E+00  0.11325992551E+00  0.51100000000E-03 0. -1.
</event>
<event>
 8    1  0.1199892E+005  0.1043930E+01  0.7957747E-01            NaN
         13   -1    0    0    0    0  0.00000000000E+00  0.00000000000E+00  0.74505805969E-08  0.10566000000E+00  0.10566000000E+00 0. -1.
     999900   -1    0    0    0    0 -0.00000000000E+00 -0.00000000000E+00 -0.74505805969E-08  0.93827000000E+00  0.93827000000E+00 0.  1.
     999902    2    1    2    0    0 -0.20578289745E-01 -0.26464168095E-02  0.10693878596E-01  0.10205884369E+01  0.10203214831E+01 0.  0.
     999903    2    3    3    0    0  0.81762969143E-01  0.96714004962E-01 -0.14314561965E-01  0.12875232591E+00  0.18261239379E-01 0.  0.
         14    1    1    2    0    0  0.20578289745E-01  0.26464168095E-02 -0.10693878596E-01  0.23341563148E-01  0.00000000000E+00 0. -1.
     999901    1    3    3    0    0 -0.10234125889E+00 -0.99360421771E-01  0.25008440561E-01  0.89183611094E+00  0.88000000000E+00 0. -1.
        -11    1    4    4    0    0  0.67037569535E-01  0.68260870879E-01 -0.14104689764E-01  0.96709801037E-01  0.51100000000E-03 0.  1.
         11    1    4    4    0    0  0.14725399607E-01  0.28453134083E-01 -0.20987220142E-03  0.32042524871E-01  0.51100000000E-03 0. -1.
</event>
<event>
 8    1  0.1199892E+005  0.1043930E+01  0.7957747E-01            NaN
         13   -1    0    0    0    0  0.00000000000E+00  0.00000000000E+00  0.74505805969E-08  0.10566000000E+00  0.10566000000E+00 0. -1.
     999900   -1    0    0    0    0 -0.00000000000E+00 -0.00000000000E+00 -0.74505805969E-08  0.93827000000E+00  0.93827000000E+00 0. -1.
     999902    2    1    2    0    0  0.66030703381E-02 -0.17383454858E-01 -0.14982447009E-01  0.10200499087E+01  0.10197703455E+01 0.  0.
     999903    2    3    3    0    0  0.67654623251E-01  0.88356461725E-01  0.60937103568E-01  0.12838180891E+00  0.19609841734E-01 0.  0.
         14    1    1    2    0    0 -0.66030703381E-02  0.17383454858E-01  0.14982447009E-01  0.23880091270E-01  0.00000000000E+00 0. -1.
     999901    1    3    3    0    0 -0.61051552913E-01 -0.10573991658E+00 -0.75919550577E-01  0.89166809982E+00  0.88000000000E+00 0. -1.
        -11    1    4    4    0    0  0.15675061337E-01  0.34335486628E-01  0.16186007501E-01  0.41071658716E-01  0.51100000000E-03 0. -1.
         11    1    4    4    0    0  0.51979561914E-01  0.54020975097E-01  0.44751096067E-01  0.87310150197E-01  0.51100000000E-03 0.  1.
</event>
<event>
 8    1  0.1199892E+005  0.1043930E+01  0.7957747E-01            NaN
         13   -1    0    0    0    0  0.00000000000E+00  0.00000000000E+00  0.74505805969E-08  0.10566000000E+00  0.10566000000E+00 0.  1.
     999900   -1    0    0    0    0 -0.00000000000E+00 -0.00000000000E+00 -0.74505805969E-08  0.93827000000E+00  0.93827000000E+00 0. -1.
     999902    2    1    2    0    0 -0.77810883356E-02 -0.10115818522E-01  0.18738678541E-01  0.10212581409E+01  0.10210064531E+01 0.  0.
     999903    2    3    3    0    0  0.13919956848E-01  0.12730347282E+00  0.13845436639E-01  0.13031541505E+00  0.19760361651E-01 0.  0.
         14    1    1    2    0    0  0.77810883356E-02  0.10115818522E-01 -0.18738678541E-01  0.22671859066E-01  0.00000000000E+00 0. -1.
     999901    1    3    3    0    0 -0.21701045183E-01 -0.13741929134E+00  0.48932419022E-02  0.89094272589E+00  0.88000000000E+00 0.  1.
        -11    1    4    4    0    0  0.17880338322E-01  0.87087090164E-01  0.13322995146E-01  0.89897892592E-01  0.51100000000E-03 0.  1.
         11    1    4    4    0    0 -0.39603814744E-02  0.40216382655E-01  0.52244149262E-03  0.40417522455E-01  0.51100000000E-03 0. -1.
</event>
<event>
 8    1  0.1199892E+005  0.1043930E+01  0.7957747E-01            NaN
         13   -1    0    0    0    0  0.00000000000E+00  0.00000000000E+00  0.74505805969E-08  0.10566000000E+00  0.10566000000E+00 0. -1.
     999900   -1    0    0    0    0 -0.00000000000E+00 -0.00000000000E+00 -0.74505805969E-08  0.93827000000E+00  0.93827000000E+00 0. -1.
     999902    2    1    2    0    0 -0.16814656536E-01  0.37996203209E-02 -0.15815095175E-01  0.10205358335E+01  0.10202676612E+01 0.  0.
     999903    2    3    3    0    0  0.52502943042E-01 -0.19399186706E-01  0.11325008462E+00  0.12812284905E+00  0.21377448607E-01 0.  0.
         14    1    1    2    0    0  0.16814656536E-01 -0.37996203209E-02  0.15815095175E-01  0.23394166460E-01  0.00000000000E+00 0. -1.
     999901    1    3    3    0    0 -0.69317599578E-01  0.23198807027E-01 -0.12906517979E+00  0.89241298449E+00  0.88000000000E+00 0. -1.
        -11    1    4    4    0    0  0.14494765189E-01 -0.53996452056E-02  0.55257279884E-01  0.57383643030E-01  0.51100000000E-03 0. -1.
         11    1    4    4    0    0  0.38008177853E-01 -0.13999541500E-01  0.57992804733E-01  0.70739206015E-01  0.51100000000E-03 0.  1.
</event>
<event>
 8    1  0.1199892E+005  0.1043930E+01  0.7957747E-01            NaN
         13   -1    0    0    0    0  0.00000000000E+00  0.00000000000E+00  0.74505805969E-08  0.10566000000E+00  0.10566000000E+00 0. -1.
     999900   -1    0    0    0    0 -0.00000000000E+00 -0.00000000000E+00 -0.74505805969E-08  0.93827000000E+00  0.93827000000E+00 0.  1.
     999902    2    1    2    0    0  0.17086957730E-01  0.10637296972E-01  0.99242418134E-02  0.10214888149E+01  0.10212422789E+01 0.  0.
     999903    2    3    3    0    0 -0.42679897602E-01  0.10880690052E+00 -0.56402550299E-01  0.13154016956E+00  0.21472150999E-01 0.  0.
         14    1    1    2    0    0 -0.17086957730E-01 -0.10637296972E-01 -0.99242418134E-02  0.22441185060E-01  0.00000000000E+00 0.  1.
     999901    1    3    3    0    0  0.59766855332E-01 -0.98169603546E-01  0.66326792113E-01  0.88994864538E+00  0.88000000000E+00 0. -1.
        -11    1    4    4    0    0 -0.25723174218E-01  0.88787702010E-01 -0.46666865076E-01  0.10355189586E+00  0.51100000000E-03 0.  1.
         11    1    4    4    0    0 -0.16956723384E-01  0.20019198508E-01 -0.97356852236E-02  0.27988273698E-01  0.51100000000E-03 0. -1.
</event>
<event>
 8    1  0.1199892E+005  0.1043930E+01  0.7957747E-01            NaN
         13   -1    0    0    0    0  0.00000000000E+00  0.00000000000E+00  0.74505805969E-08  0.10566000000E+00  0.10566000000E+00 0.  1.
     999900   -1    0    0    0    0 -0.00000000000E+00 -0.00000000000E+00 -0.74505805969E-08  0.93827000000E+00  0.93827000000E+00 0. -1.
     999902    2    1    2    0    0  0.14035242576E-01 -0.15269416901E-01  0.10939766102E-01  0.10204817248E+01  0.10202122961E+01 0.  0.
     999903    2    3    3    0    0  0.91184633465E-01 -0.44498126538E-02  0.94571682593E-01  0.13309038510E+00  0.20852080105E-01 0.  0.
         14    1    1    2    0    0 -0.14035242576E-01  0.15269416901E-01 -0.10939766102E-01  0.23448275182E-01  0.00000000000E+00 0. -1.
     999901    1    3    3    0    0 -0.77149390890E-01 -0.10819604247E-01 -0.83631916491E-01  0.88739133972E+00  0.88000000000E+00 0. -1.
        -11    1    4    4    0    0  0.64503852809E-01  0.44858535189E-02  0.73752933096E-01  0.98084790719E-01  0.51100000000E-03 0.  1.
         11    1    4    4    0    0  0.26680780656E-01 -0.89356661728E-02  0.20818749497E-01  0.35005594381E-01  0.51100000000E-03 0. -1.
</event>
<event>
 8    1  0.1199892E+005  0.1043930E+01  0.7957747E-01            NaN
         13   -1    0    0    0    0  0.00000000000E+00  0.00000000000E+00  0.74505805969E-08  0.10566000000E+00  0.10566000000E+00 0.  1.
     999900   -1    0    0    0    0 -0.00000000000E+00 -0.00000000000E+00 -0.74505805969E-08  0.93827000000E+00  0.93827000000E+00 0.  1.
     999902    2    1    2    0    0  0.11822197690E-01 -0.53363721671E-02 -0.18689961624E-01  0.10211801452E+01  0.10209267031E+01 0.  0.
     999903    2    3    3    0    0  0.10276075206E+00  0.79704353984E-01  0.10390015431E-01  0.13194036271E+00  0.19691386017E-01 0.  0.
         14    1    1    2    0    0 -0.11822197690E-01  0.53363721671E-02  0.18689961624E-01  0.22749854761E-01  0.00000000000E+00 0.  1.
     999901    1    3    3    0    0 -0.90938554365E-01 -0.85040726151E-01 -0.29079977056E-01  0.88923978253E+00  0.88000000000E+00 0. -1.
        -11    1    4    4    0    0  0.51284477596E-01  0.49681479927E-01 -0.24456524866E-03  0.71404957974E-01  0.51100000000E-03 0. -1.
         11    1    4    4    0    0  0.51476274459E-01  0.30022874056E-01  0.10634580680E-01  0.60535404732E-01  0.51100000000E-03 0.  1.
</event>
<event>
 8    1  0.1199892E+005  0.1043930E+01  0.7957747E-01            NaN
         13   -1    0    0    0    0  0.00000000000E+00  0.00000000000E+00  0.74505805969E-08  0.10566000000E+00  0.10566000000E+00 0. -1.
     999900   -1    0    0    0    0 -0.00000000000E+00 -0.00000000000E+00 -0.74505805969E-08  0.93827000000E+00  0.93827000000E+00 0.  1.
     999902    2    1    2    0    0  0.77417128422E-02  0.21956773243E-01 -0.48731886947E-02  0.10201438280E+01  0.10198664853E+01 0.  0.
     999903    2    3    3    0    0  0.12681623683E+00 -0.22295645315E-01  0.98429654326E-02  0.13090056322E+00  0.21415409422E-01 0.  0.
         14    1    1    2    0    0 -0.77417128422E-02 -0.21956773243E-01  0.48731886947E-02  0.23786171971E-01  0.00000000000E+00 0. -1.
     999901    1    3    3    0    0 -0.11907452398E+00  0.44252418558E-01 -0.14716154127E-01  0.88924326481E+00  0.88000000000E+00 0.  1.
        -11    1    4    4    0    0  0.55766871330E-01 -0.12814589358E-01 -0.58534133172E-02  0.57521137044E-01  0.51100000000E-03 0. -1.
         11    1    4    4    0    0  0.71049365496E-01 -0.94810559574E-02  0.15696378750E-01  0.73379426179E-01  0.51100000000E-03 0.  1.
</event>
<event>
 8    1  0.1199892E+005  0.1043930E+01  0.7957747E-01            NaN
         13   -1    0    0    0    0  0.00000000000E+00  0.00000000000E+00  0.74505805969E-08  0.10566000000E+00  0.10566000000E+00 0.  1.
     999900   -1    0    0    0    0 -0.00000000000E+00 -0.00000000000E+00 -0.74505805969E-08  0.93827000000E+00  0.93827000000E+00 0.  1.
     999902    2    1    2    0    0  0.19395678585E-01 -0.70935454973E-02 -0.10786169580E-01  0.10206308114E+01  0.10203648372E+01 0.  0.
     999903    2    3    3    0    0  0.40422000577E-01 -0.57905454422E-02 -0.12500281427E+00  0.13299955578E+00  0.19892453731E-01 0.  0.
         14    1    1    2    0    0 -0.19395678585E-01  0.70935454973E-02  0.10786169580E-01  0.23299188606E-01  0.00000000000E+00 0.  1.
     999901    1    3    3    0    0 -0.21026321992E-01 -0.13030000551E-02  0.11421664468E+00  0.88763125562E+00  0.88000000000E+00 0. -1.
        -11    1    4    4    0    0  0.35952614415E-01 -0.63537995710E-02 -0.82044638316E-01  0.89802812037E-01  0.51100000000E-03 0.  1.
         11    1    4    4    0    0  0.44693861620E-02  0.56325412882E-03 -0.42958175949E-01  0.43196743740E-01  0.51100000000E-03 0. -1.
</event>
<event>
 8    1  0.1199892E+005  0.1043930E+01  0.7957747E-01            NaN
         13   -1    0    0    0    0  0.00000000000E+00  0.00000000000E+00  0.74505805969E-08  0.10566000000E+00  0.10566000000E+00 0. -1.
     999900   -1    0    0    0    0 -0.00000000000E+00 -0.00000000000E+00 -0.74505805969E-08  0.93827000000E+00  0.93827000000E+00 0. -1.
     999902    2    1    2    0    0 -0.65913236129E-02 -0.13135150049E-01  0.13601260563E-01  0.10239057147E+01  0.10237098908E+01 0.  0.
     999903    2    3    3    0    0  0.10513534044E+00  0.59092526165E-01  0.52683770234E-01  0.13304819114E+00  0.19516020648E-01 0.  0.
         14    1    1    2    0    0  0.65913236129E-02  0.13135150049E-01 -0.13601260563E-01  0.20024285323E-01  0.00000000000E+00 0.  1.
     999901    1    3    3    0    0 -0.11172666406E+00 -0.72227676214E-01 -0.39082509672E-01  0.89085752353E+00  0.88000000000E+00 0. -1.
        -11    1    4    4    0    0  0.50549580092E-01  0.39524695943E-01  0.28685375321E-01  0.70289213363E-01  0.51100000000E-03 0.  1.
         11    1    4    4    0    0  0.54585760352E-01  0.19567830222E-01  0.23998394913E-01  0.62758977782E-01  0.51100000000E-03 0. -1.
</event>
<event>
 8    1  0.1199892E+005  0.1043930E+01  0.7957747E-01            NaN
         13   -1    0    0    0    0  0.00000000000E+00  0.00000000000E+00  0.74505805969E-08  0.10566000000E+00  0.10566000000E+00 0. -1.
     999900   -1    0    0    0    0 -0.00000000000E+00 -0.00000000000E+00 -0.74505805969E-08  0.93827000000E+00  0.93827000000E+00 0. -1.
     999902    2    1    2    0    0  0.17079631954E-01  0.13355663826E-01  0.82128643122E-02  0.10207451186E+01  0.10204817776E+01 0.  0.
     999903    2    3    3    0    0 -0.10470531353E+00 -0.66382181443E-01  0.26633883776E-01  0.12859657109E+00  0.21399010197E-01 0.  0.
         14    1    1    2    0    0 -0.17079631954E-01 -0.13355663826E-01 -0.82128643122E-02  0.23184881369E-01  0.00000000000E+00 0.  1.
     999901    1    3    3    0    0  0.12178494548E+00  0.79737845269E-01 -0.18421019463E-01  0.89214854754E+00  0.88000000000E+00 0.  1.
        -11    1    4    4    0    0 -0.59006142980E-01 -0.24775675742E-01  0.12958649739E-01  0.65297371631E-01  0.51100000000E-03 0.  1.
         11    1    4    4    0    0 -0.45699170550E-01 -0.41606505701E-01  0.13675234036E-01  0.63299199462E-01  0.51100000000E-03 0. -1.
</event>
<event>
 8    1  0.1199892E+005  0.1043930E+01  0.7957747E-01            NaN
         13   -1    0    0    0    0  0.00000000000E+00  0.00000000000E+00  0.74505805969E-08  0.10566000000E+00  0.10566000000E+00 0.  1.
     999900   -1    0    0    0    0 -0.00000000000E+00 -0.00000000000E+00 -0.74505805969E-08  0.93827000000E+00  0.93827000000E+00 0. -1.
     999902    2    1    2    0    0 -0.20493695998E-02  0.22382945233E-01 -0.59646110145E-02  0.10206754792E+01  0.10204105356E+01 0.  0.
     999903    2    3    3    0    0  0.25743438857E-03  0.13054060161E+00  0.20840089595E-01  0.13364566462E+00  0.19645340317E-01 0.  0.
         14    1    1    2    0    0  0.20493695998E-02 -0.22382945233E-01  0.59646110145E-02  0.23254520799E-01  0.00000000000E+00 0. -1.
     999901    1    3    3    0    0 -0.23068039884E-02 -0.10815765638E+00 -0.26804700610E-01  0.88702981458E+00  0.88000000000E+00 0. -1.
        -11    1    4    4    0    0  0.61526656684E-02  0.99342757848E-01  0.21731336682E-01  0.10187909966E+00  0.51100000000E-03 0.  1.
         11    1    4    4    0    0 -0.58952312798E-02  0.31197843764E-01 -0.89124708698E-03  0.31766564966E-01  0.51100000000E-03 0. -1.
</event>
<event>
 8    1  0.1199892E+005  0.1043930E+01  0.7957747E-01            NaN
         13   -1    0    0    0    0  0.00000000000E+00  0.00000000000E+00  0.74505805969E-08  0.10566000000E+00  0.10566000000E+00 0. -1.
     999900   -1    0    0    0    0 -0.00000000000E+00 -0.00000000000E+00 -0.74505805969E-08  0.93827000000E+00  0.93827000000E+00 0. -1.
     999902    2    1    2    0    0  0.59422428415E-02 -0.47003252202E-03  0.22131868189E-01  0.10210094684E+01  0.10207521657E+01 0.  0.
     999903    2    3    3    0    0  0.71324158129E-01  0.10079108505E+00  0.43814572258E-01  0.13252832145E+00  0.19951463256E-01 0.  0.
         14    1    1    2    0    0 -0.59422428415E-02  0.47003252202E-03 -0.22131868189E-01  0.22920531627E-01  0.00000000000E+00 0.  1.
     999901    1    3    3    0    0 -0.65381915288E-01 -0.10126111757E+00 -0.21682704069E-01  0.88848114692E+00  0.88000000000E+00 0.  1.
        -11    1    4    4    0    0  0.28519523939E-01  0.38996309280E-01  0.27540854014E-01  0.55613264101E-01  0.51100000000E-03 0. -1.
         11    1    4    4    0    0  0.42804634190E-01  0.61794775771E-01  0.16273718244E-01  0.76915057350E-01  0.51100000000E-03 0.  1.
</event>
<event>
 8    1  0.1199892E+005  0.1043930E+01  0.7957747E-01            NaN
         13   -1    0    0    0    0  0.00000000000E+00  0.00000000000E+00  0.74505805969E-08  0.10566000000E+00  0.10566000000E+00 0.  1.
     999900   -1    0    0    0    0 -0.00000000000E+00 -0.00000000000E+00 -0.74505805969E-08  0.93827000000E+00  0.93827000000E+00 0.  1.
     999902    2    1    2    0    0 -0.20660040565E-01 -0.93480362121E-02  0.76144258124E-02  0.10200092446E+01  0.10197287172E+01 0.  0.
     999903    2    3    3    0    0  0.89523276520E-01 -0.46154343758E-01  0.77777992316E-01  0.12960596874E+00  0.24569301145E-01 0.  0.
         14    1    1    2    0    0  0.20660040565E-01  0.93480362121E-02 -0.76144258124E-02  0.23920755373E-01  0.00000000000E+00 0.  1.
     999901    1    3    3    0    0 -0.11018331709E+00  0.36806307546E-01 -0.70163566503E-01  0.89040327588E+00  0.88000000000E+00 0.  1.
        -11    1    4    4    0    0  0.44615314392E-01 -0.36253826745E-01  0.47138475399E-01  0.74344893677E-01  0.51100000000E-03 0. -1.
         11    1    4    4    0    0  0.44907962128E-01 -0.99005170131E-02  0.30639516917E-01  0.55261075067E-01  0.51100000000E-03 0.  1.
</event>
<event>
 8    1  0.1199892E+005  0.1043930E+01  0.7957747E-01            NaN
         13   -1    0    0    0    0  0.00000000000E+00  0.00000000000E+00  0.74505805969E-08  0.10566000000E+00  0.10566000000E+00 0. -1.
     999900   -1    0    0    0    0 -0.00000000000E+00 -0.00000000000E+00 -0.74505805969E-08  0.93827000000E+00  0.93827000000E+00 0. -1.
     999902    2    1    2    0    0  0.22764686972E-03  0.37237121783E-02  0.25687805990E-01  0.10179727037E+01  0.10176417072E+01 0.  0.
     999903    2    3    3    0    0 -0.26275184630E-02  0.56147310604E-01 -0.11084593354E+00  0.12589768012E+00  0.20099267040E-01 0.  0.
         14    1    1    2    0    0 -0.22764686972E-03 -0.37237121783E-02 -0.25687805990E-01  0.25957296316E-01  0.00000000000E+00 0.  1.
     999901    1    3    3    0    0  0.28551653327E-02 -0.52423598425E-01  0.13653373953E+00  0.89207502357E+00  0.88000000000E+00 0.  1.
        -11    1    4    4    0    0 -0.93607743048E-02  0.13073170034E-01 -0.29026268048E-01  0.33186099923E-01  0.51100000000E-03 0.  1.
         11    1    4    4    0    0  0.67332558418E-02  0.43074140570E-01 -0.81819665491E-01  0.92711580194E-01  0.51100000000E-03 0. -1.
</event>
<event>
 8    1  0.1199892E+005  0.1043930E+01  0.7957747E-01            NaN
         13   -1    0    0    0    0  0.00000000000E+00  0.00000000000E+00  0.74505805969E-08  0.10566000000E+00  0.10566000000E+00 0.  1.
     999900   -1    0    0    0    0 -0.00000000000E+00 -0.00000000000E+00 -0.74505805969E-08  0.93827000000E+00  0.93827000000E+00 0.  1.
     999902    2    1    2    0    0  0.20256254721E-01  0.66247565378E-02 -0.10156915950E-01  0.10203213957E+01  0.10200482265E+01 0.  0.
     999903    2    3    3    0    0  0.94945658440E-01  0.30162742459E-01  0.84059381856E-01  0.13183433640E+00  0.19744454566E-01 0.  0.
         14    1    1    2    0    0 -0.20256254721E-01 -0.66247565378E-02  0.10156915950E-01  0.23608604281E-01  0.00000000000E+00 0.  1.
     999901    1    3    3    0    0 -0.74689403720E-01 -0.23537985921E-01 -0.94216297805E-01  0.88848705932E+00  0.88000000000E+00 0.  1.
        -11    1    4    4    0    0  0.73821369702E-01  0.14470081534E-01  0.61408613638E-01  0.97109509494E-01  0.51100000000E-03 0.  1.
         11    1    4    4    0    0  0.21124288738E-01  0.15692660925E-01  0.22650768218E-01  0.34724826903E-01  0.51100000000E-03 0. -1.
</event>
<event>
 8    1  0.1444065E+005  0.1043930E+01  0.7957747E-01            NaN
         13   -1    0    0    0    0  0.00000000000E+00  0.00000000000E+00  0.74505805969E-08  0.10566000000E+00  0.10566000000E+00 0.  1.
     999900   -1    0    0    0    0 -0.00000000000E+00 -0.00000000000E+00 -0.74505805969E-08  0.93827000000E+00  0.93827000000E+00 0. -1.
     999902    2    1    2    0    0 -0.15024930428E-01 -0.26692908205E-01 -0.13280056395E-01  0.10105440781E+01  0.10099924327E+01 0.  0.
     999903    2    3    3    0    0 -0.94600983727E-01  0.15987913076E-01  0.72967100979E-01  0.12172881444E+00  0.16992555849E-01 0.  0.
         14    1    1    2    0    0  0.15024930428E-01  0.26692908205E-01  0.13280056395E-01  0.33385921893E-01  0.00000000000E+00 0. -1.
     999901    1    3    3    0    0  0.79576053299E-01 -0.42680821281E-01 -0.86247157374E-01  0.88881526366E+00  0.88000000000E+00 0. -1.
        -11    1    4    4    0    0 -0.27828598653E-01  0.12633788635E-01  0.22057731558E-01  0.37694139607E-01  0.51100000000E-03 0. -1.
         11    1    4    4    0    0 -0.66772385074E-01  0.33541244415E-02  0.50909369421E-01  0.84034674838E-01  0.51100000000E-03 0.  1.
</event>
<event>
 8    1  0.1199892E+005  0.1043930E+01  0.7957747E-01            NaN
         13   -1    0    0    0    0  0.00000000000E+00  0.00000000000E+00  0.74505805969E-08  0.10566000000E+00  0.10566000000E+00 0. -1.
     999900   -1    0    0    0    0 -0.00000000000E+00 -0.00000000000E+00 -0.74505805969E-08  0.93827000000E+00  0.93827000000E+00 0.  1.
     999902    2    1    2    0    0 -0.11051910172E-01  0.18719042651E-01  0.62895958662E-02  0.10213002344E+01  0.10210494907E+01 0.  0.
     999903    2    3    3    0    0 -0.48157189292E-02 -0.71738281312E-01 -0.10579107413E+00  0.12956961691E+00  0.20663061391E-01 0.  0.
         14    1    1    2    0    0  0.11051910172E-01 -0.18719042651E-01 -0.62895958662E-02  0.22629765628E-01  0.00000000000E+00 0.  1.
     999901    1    3    3    0    0 -0.62361912423E-02  0.90457323963E-01  0.11208066999E+00  0.89173061747E+00  0.88000000000E+00 0.  1.
        -11    1    4    4    0    0  0.64405380129E-02 -0.11629600402E-01 -0.14404308262E-01  0.19607992067E-01  0.51100000000E-03 0.  1.
         11    1    4    4    0    0 -0.11256256942E-01 -0.60108680910E-01 -0.91386765864E-01  0.10996162484E+00  0.51100000000E-03 0. -1.
</event>
<event>
 8    1  0.1199892E+005  0.1043930E+01  0.7957747E-01            NaN
         13   -1    0    0    0    0  0.00000000000E+00  0.00000000000E+00  0.74505805969E-08  0.10566000000E+00  0.10566000000E+00 0. -1.
     999900   -1    0    0    0    0 -0.00000000000E+00 -0.00000000000E+00 -0.74505805969E-08  0.93827000000E+00  0.93827000000E+00 0. -1.
     999902    2    1    2    0    0  0.19021963406E-01 -0.41854732312E-02 -0.13583946133E-01  0.10201839083E+01  0.10199075105E+01 0.  0.
     999903    2    3    3    0    0  0.16628038256E-01 -0.77214689404E-01  0.10095958184E+00  0.12975748401E+00  0.20138708373E-01 0.  0.
         14    1    1    2    0    0 -0.19021963406E-01  0.41854732312E-02  0.13583946133E-01  0.23746091689E-01  0.00000000000E+00 0. -1.
     999901    1    3    3    0    0  0.23939251503E-02  0.73029216172E-01 -0.11454352797E+00  0.89042642430E+00  0.88000000000E+00 0. -1.
        -11    1    4    4    0    0  0.21068325836E-02 -0.41983903898E-01  0.64671833363E-01  0.77134908320E-01  0.51100000000E-03 0. -1.
         11    1    4    4    0    0  0.14521205672E-01 -0.35230785506E-01  0.36287748479E-01  0.52622575690E-01  0.51100000000E-03 0.  1.
</event>
<event>
 8    1  0.1199892E+005  0.1043930E+01  0.7957747E-01            NaN
         13   -1    0    0    0    0  0.00000000000E+00  0.00000000000E+00  0.74505805969E-08  0.10566000000E+00  0.10566000000E+00 0.  1.
     999900   -1    0    0    0    0 -0.00000000000E+00 -0.00000000000E+00 -0.74505805969E-08  0.93827000000E+00  0.93827000000E+00 0.  1.
     999902    2    1    2    0    0  0.10410589039E-01 -0.20950708205E-01  0.24795158566E-02  0.10204042580E+01  0.10201330252E+01 0.  0.
     999903    2    3    3    0    0 -0.65183182856E-01  0.67682278872E-01 -0.85222697714E-01  0.12840543343E+00  0.19882377314E-01 0.  0.
         14    1    1    2    0    0 -0.10410589039E-01  0.20950708205E-01 -0.24795158566E-02  0.23525742014E-01  0.00000000000E+00 0. -1.
     999901    1    3    3    0    0  0.75593771895E-01 -0.88632987077E-01  0.87702213571E-01  0.89199882456E+00  0.88000000000E+00 0. -1.
        -11    1    4    4    0    0 -0.42296385403E-02  0.13314608598E-01 -0.86054033292E-02  0.16415929208E-01  0.51100000000E-03 0.  1.
         11    1    4    4    0    0 -0.60953544316E-01  0.54367670274E-01 -0.76617294385E-01  0.11198950422E+00  0.51100000000E-03 0. -1.
</event>
<event>
 8    1  0.1199892E+005  0.1043930E+01  0.7957747E-01            NaN
         13   -1    0    0    0    0  0.00000000000E+00  0.00000000000E+00  0.74505805969E-08  0.10566000000E+00  0.10566000000E+00 0.  1.
     999900   -1    0    0    0    0 -0.00000000000E+00 -0.00000000000E+00 -0.74505805969E-08  0.93827000000E+00  0.93827000000E+00 0.  1.
     999902    2    1    2    0    0  0.20213417739E-01  0.43913035881E-02 -0.11051008464E-01  0.10204781218E+01  0.10202086093E+01 0.  0.
     999903    2    3    3    0    0 -0.82146961758E-01 -0.88487885773E-01 -0.41237175006E-01  0.12917828684E+00  0.20206334031E-01 0.  0.
         14    1    1    2    0    0 -0.20213417739E-01 -0.43913035881E-02  0.11051008464E-01  0.23451878219E-01  0.00000000000E+00 0.  1.
     999901    1    3    3    0    0  0.10236037950E+00  0.92879189361E-01  0.30186166541E-01  0.89129983494E+00  0.88000000000E+00 0. -1.
        -11    1    4    4    0    0 -0.48003495050E-01 -0.38108285771E-01 -0.24936628363E-01  0.66171546276E-01  0.51100000000E-03 0. -1.
         11    1    4    4    0    0 -0.34143466708E-01 -0.50379600003E-01 -0.16300546642E-01  0.63006740569E-01  0.51100000000E-03 0.  1.
</event>
<event>
 8    1  0.1199892E+005  0.1043930E+01  0.7957747E-01            NaN
         13   -1    0    0    0    0  0.00000000000E+00  0.00000000000E+00  0.74505805969E-08  0.10566000000E+00  0.10566000000E+00 0. -1.
     999900   -1    0    0    0    0 -0.00000000000E+00 -0.00000000000E+00 -0.74505805969E-08  0.93827000000E+00  0.93827000000E+00 0. -1.
     999902    2    1    2    0    0 -0.12588566943E-01  0.14215273917E-01 -0.13570702436E-01  0.10205909770E+01  0.10203240820E+01 0.  0.
     999903    2    3    3    0    0 -0.11167226054E+00 -0.61052029366E-01 -0.29116553562E-01  0.13170154699E+00  0.17305482516E-01 0.  0.
         14    1    1    2    0    0  0.12588566943E-01 -0.14215273917E-01  0.13570702436E-01  0.23339023005E-01  0.00000000000E+00 0. -1.
     999901    1    3    3    0    0  0.99083693598E-01  0.75267303284E-01  0.15545851126E-01  0.88888943000E+00  0.88000000000E+00 0.  1.
        -11    1    4    4    0    0 -0.24321380260E-01 -0.16997092481E-01 -0.13605732577E-01  0.32646711481E-01  0.51100000000E-03 0. -1.
         11    1    4    4    0    0 -0.87350880281E-01 -0.44054936885E-01 -0.15510820985E-01  0.99054835512E-01  0.51100000000E-03 0.  1.
</event>
<event>
 8    1  0.1199892E+005  0.1043930E+01  0.7957747E-01            NaN
         13   -1    0    0    0    0  0.00000000000E+00  0.00000000000E+00  0.74505805969E-08  0.10566000000E+00  0.10566000000E+00 0. -1.
     999900   -1    0    0    0    0 -0.00000000000E+00 -0.00000000000E+00 -0.74505805969E-08  0.93827000000E+00  0.93827000000E+00 0.  1.
     999902    2    1    2    0    0  0.76267953748E-02 -0.17524509123E-01 -0.12101946864E-01  0.10213084716E+01  0.10210579125E+01 0.  0.
     999903    2    3    3    0    0  0.11580596812E+00  0.58685051559E-01  0.20917403349E-02  0.13130167879E+00  0.19514044843E-01 0.  0.
         14    1    1    2    0    0 -0.76267953748E-02  0.17524509123E-01  0.12101946864E-01  0.22621528366E-01  0.00000000000E+00 0. -1.
     999901    1    3    3    0    0 -0.10817917275E+00 -0.76209560682E-01 -0.14193687199E-01  0.89000679285E+00  0.88000000000E+00 0. -1.
        -11    1    4    4    0    0  0.10216924511E+00  0.51081419324E-01  0.82135769588E-02  0.11452331646E+00  0.51100000000E-03 0.  1.
         11    1    4    4    0    0  0.13636723013E-01  0.76036322342E-02 -0.61218366240E-02  0.16778362326E-01  0.51100000000E-03 0. -1.
</event>
<event>
 8    1  0.1199892E+005  0.1043930E+01  0.7957747E-01            NaN
         13   -1    0    0    0    0  0.00000000000E+00  0.00000000000E+00  0.74505805969E-08  0.10566000000E+00  0.10566000000E+00 0. -1.
     999900   -1    0    0    0    0 -0.00000000000E+00 -0.00000000000E+00 -0.74505805969E-08  0.93827000000E+00  0.93827000000E+00 0.  1.
     999902    2    1    2    0    0 -0.18045881836E-01  0.10803031481E-01 -0.94586570420E-02  0.10208686572E+01  0.10206081470E+01 0.  0.
     999903    2    3    3    0    0 -0.10765684446E+00 -0.69602630941E-01 -0.27097447742E-01  0.13249580632E+00  0.19655651262E-01 0.  0.
         14    1    1    2    0    0  0.18045881836E-01 -0.10803031481E-01  0.94586570420E-02  0.23061342838E-01  0.00000000000E+00 0. -1.
     999901    1    3    3    0    0  0.89610962621E-01  0.80405662422E-01  0.17638790700E-01  0.88837285084E+00  0.88000000000E+00 0.  1.
        -11    1    4    4    0    0 -0.81916004029E-01 -0.53625736761E-01 -0.29063306151E-01  0.10213172007E+00  0.51100000000E-03 0.  1.
         11    1    4    4    0    0 -0.25740840429E-01 -0.15976894181E-01  0.19658584096E-02  0.30364086252E-01  0.51100000000E-03 0. -1.
</event>
<event>
 8    1  0.1199892E+005  0.1043930E+01  0.7957747E-01            NaN
         13   -1    0    0    0    0  0.00000000000E+00  0.00000000000E+00  0.74505805969E-08  0.10566000000E+00  0.10566000000E+00 0.  1.
     999900   -1    0    0    0    0 -0.00000000000E+00 -0.00000000000E+00 -0.74505805969E-08  0.93827000000E+00  0.93827000000E+00 0. -1.
     999902    2    1    2    0    0  0.14282684292E-01  0.15753775802E-01  0.10338424101E-01  0.10202855602E+01  0.10200115513E+01 0.  0.
     999903    2    3    3    0    0  0.56940947491E-01  0.60570674032E-01 -0.99620882737E-01  0.13128649888E+00  0.20018652745E-01 0.  0.
         14    1    1    2    0    0 -0.14282684292E-01 -0.15753775802E-01 -0.10338424101E-01  0.23644439843E-01  0.00000000000E+00 0. -1.
     999901    1    3    3    0    0 -0.42658263199E-01 -0.44816898230E-01  0.10995930684E+00  0.88899906127E+00  0.88000000000E+00 0.  1.
        -11    1    4    4    0    0  0.50586547465E-01  0.42193094503E-01 -0.80393088703E-01  0.10393539263E+00  0.51100000000E-03 0. -1.
         11    1    4    4    0    0  0.63544000260E-02  0.18377579529E-01 -0.19227794034E-01  0.27351106257E-01  0.51100000000E-03 0.  1.
</event>
<event>
 8    1  0.1199892E+005  0.1043930E+01  0.7957747E-01            NaN
         13   -1    0    0    0    0  0.00000000000E+00  0.00000000000E+00  0.74505805969E-08  0.10566000000E+00  0.10566000000E+00 0. -1.
     999900   -1    0    0    0    0 -0.00000000000E+00 -0.00000000000E+00 -0.74505805969E-08  0.93827000000E+00  0.93827000000E+00 0.  1.
     999902    2    1    2    0    0 -0.89875676574E-02 -0.93529189336E-02 -0.19487916043E-01  0.10205199095E+01  0.10202513677E+01 0.  0.
     999903    2    3    3    0    0  0.11998629595E+00 -0.38984930496E-01  0.22393931776E-01  0.12964034258E+00  0.19712793346E-01 0.  0.
         14    1    1    2    0    0  0.89875676574E-02  0.93529189336E-02  0.19487916043E-01  0.23410090488E-01  0.00000000000E+00 0. -1.
     999901    1    3    3    0    0 -0.12897386361E+00  0.29632011563E-01 -0.41881847818E-01  0.89087956693E+00  0.88000000000E+00 0.  1.
        -11    1    4    4    0    0  0.10731027702E+00 -0.36311718156E-01  0.13893662326E-01  0.11413733572E+00  0.51100000000E-03 0. -1.
         11    1    4    4    0    0  0.12676018927E-01 -0.26732123406E-02  0.85002694500E-02  0.15503006863E-01  0.51100000000E-03 0.  1.
</event>
<event>
 8    1  0.1199892E+005  0.1043930E+01  0.7957747E-01            NaN
         13   -1    0    0    0    0  0.00000000000E+00  0.00000000000E+00  0.74505805969E-08  0.10566000000E+00  0.10566000000E+00 0.  1.
     999900   -1    0    0    0    0 -0.00000000000E+00 -0.00000000000E+00 -0.74505805969E-08  0.93827000000E+00  0.93827000000E+00 0. -1.
     999902    2    1    2    0    0  0.87704147926E-02 -0.19462900992E-01 -0.12124996391E-01  0.10193792316E+01  0.10190835479E+01 0.  0.
     999903    2    3    3    0    0  0.90102317416E-01 -0.44683925181E-02 -0.93871915421E-01  0.13172937247E+00  0.20057341099E-01 0.  0.
         14    1    1    2    0    0 -0.87704147926E-02  0.19462900992E-01  0.12124996391E-01  0.24550768382E-01  0.00000000000E+00 0. -1.
     999901    1    3    3    0    0 -0.81331902624E-01 -0.14994508473E-01  0.81746919030E-01  0.88764985914E+00  0.88000000000E+00 0.  1.
        -11    1    4    4    0    0  0.29965951401E-01 -0.75352470980E-02 -0.42681658366E-01  0.52694622819E-01  0.51100000000E-03 0. -1.
         11    1    4    4    0    0  0.60136366015E-01  0.30668545798E-02 -0.51190257055E-01  0.79034749654E-01  0.51100000000E-03 0.  1.
</event>
<event>
 8    1  0.1199892E+005  0.1043930E+01  0.7957747E-01            NaN
         13   -1    0    0    0    0  0.00000000000E+00  0.00000000000E+00  0.74505805969E-08  0.10566000000E+00  0.10566000000E+00 0. -1.
     999900   -1    0    0    0    0 -0.00000000000E+00 -0.00000000000E+00 -0.74505805969E-08  0.93827000000E+00  0.93827000000E+00 0. -1.
     999902    2    1    2    0    0 -0.65958699417E-02 -0.14909842768E-01  0.16266721628E-01  0.10208992565E+01  0.10206394451E+01 0.  0.
     999903    2    3    3    0    0 -0.82496422473E-01  0.82994429188E-01 -0.52061731949E-01  0.12959968967E+00  0.19796985418E-01 0.  0.
         14    1    1    2    0    0  0.65958699417E-02  0.14909842768E-01 -0.16266721628E-01  0.23030743457E-01  0.00000000000E+00 0. -1.
     999901    1    3    3    0    0  0.75900552531E-01 -0.97904271956E-01  0.68328453577E-01  0.89129956687E+00  0.88000000000E+00 0.  1.
        -11    1    4    4    0    0 -0.43031065383E-01  0.47284971908E-01 -0.38651091823E-01  0.74710837075E-01  0.51100000000E-03 0. -1.
         11    1    4    4    0    0 -0.39465357090E-01  0.35709457280E-01 -0.13410640126E-01  0.54888852594E-01  0.51100000000E-03 0.  1.
</event>
<event>
 8    1  0.1199892E+005  0.1043930E+01  0.7957747E-01            NaN
         13   -1    0    0    0    0  0.00000000000E+00  0.00000000000E+00  0.74505805969E-08  0.10566000000E+00  0.10566000000E+00 0.  1.
     999900   -1    0    0    0    0 -0.00000000000E+00 -0.00000000000E+00 -0.74505805969E-08  0.93827000000E+00  0.93827000000E+00 0. -1.
     999902    2    1    2    0    0  0.10348420921E-01  0.19641318128E-01 -0.62087597223E-02  0.10208774537E+01  0.10206171445E+01 0.  0.
     999903    2    3    3    0    0  0.77778354345E-01  0.95054683109E-01  0.46503540239E-01  0.13351475553E+00  0.24057130023E-01 0.  0.
         14    1    1    2    0    0 -0.10348420921E-01 -0.19641318128E-01  0.62087597223E-02  0.23052546294E-01  0.00000000000E+00 0. -1.
     999901    1    3    3    0    0 -0.67429933424E-01 -0.75413364981E-01 -0.52712299961E-01  0.88736269817E+00  0.88000000000E+00 0. -1.
        -11    1    4    4    0    0  0.45716083382E-02  0.13083155310E-01 -0.73796748946E-03  0.13887918227E-01  0.51100000000E-03 0. -1.
         11    1    4    4    0    0  0.73206746007E-01  0.81971527799E-01  0.47241507728E-01  0.11962683731E+00  0.51100000000E-03 0.  1.
</event>
<event>
 8    1  0.1199892E+005  0.1043930E+01  0.7957747E-01            NaN
         13   -1    0    0    0    0  0.00000000000E+00  0.00000000000E+00  0.74505805969E-08  0.10566000000E+00  0.10566000000E+00 0. -1.
     999900   -1    0    0    0    0 -0.00000000000E+00 -0.00000000000E+00 -0.74505805969E-08  0.93827000000E+00  0.93827000000E+00 0. -1.
     999902    2    1    2    0    0 -0.18988122083E-01  0.10141392933E-01  0.14372901633E-01  0.10180460874E+01  0.10177169838E+01 0.  0.
     999903    2    3    3    0    0  0.12350419505E+00  0.16958676137E-01  0.65621409193E-02  0.12652404965E+00  0.20600741597E-01 0.  0.
         14    1    1    2    0    0  0.18988122083E-01 -0.10141392933E-01 -0.14372901633E-01  0.25883912614E-01  0.00000000000E+00 0.  1.
     999901    1    3    3    0    0 -0.14249231713E+00 -0.68172832039E-02  0.78107607139E-02  0.89152203774E+00  0.88000000000E+00 0. -1.
        -11    1    4    4    0    0  0.87787525269E-02  0.66054527346E-02  0.23950006093E-02  0.11255916252E-01  0.51100000000E-03 0.  1.
         11    1    4    4    0    0  0.11472544252E+00  0.10353223402E-01  0.41671403100E-02  0.11526813339E+00  0.51100000000E-03 0. -1.
</event>
<event>
 8    1  0.1199892E+005  0.1043930E+01  0.7957747E-01            NaN
         13   -1    0    0    0    0  0.00000000000E+00  0.00000000000E+00  0.74505805969E-08  0.10566000000E+00  0.10566000000E+00 0.  1.
     999900   -1    0    0    0    0 -0.00000000000E+00 -0.00000000000E+00 -0.74505805969E-08  0.93827000000E+00  0.93827000000E+00 0.  1.
     999902    2    1    2    0    0 -0.11608073634E-01  0.21851443473E-01  0.34027900970E-02  0.10189537726E+01  0.10186476225E+01 0.  0.
     999903    2    3    3    0    0  0.82476688094E-01 -0.51368614924E-01  0.80263986929E-01  0.12759483090E+00  0.19924723270E-01 0.  0.
         14    1    1    2    0    0  0.11608073634E-01 -0.21851443473E-01 -0.34027900970E-02  0.24976227413E-01  0.00000000000E+00 0. -1.
     999901    1    3    3    0    0 -0.94084761728E-01  0.73220058396E-01 -0.76861196832E-01  0.89135894168E+00  0.88000000000E+00 0. -1.
        -11    1    4    4    0    0  0.76782437045E-01 -0.52929565400E-01  0.75305171704E-01  0.11986747490E+00  0.51100000000E-03 0.  1.
         11    1    4    4    0    0  0.56942510495E-02  0.15609504766E-02  0.49588152246E-02  0.77273560056E-02  0.51100000000E-03 0. -1.
</event>
<event>
 8    1  0.1199892E+005  0.1043930E+01  0.7957747E-01            NaN
         13   -1    0    0    0    0  0.00000000000E+00  0.00000000000E+00  0.74505805969E-08  0.10566000000E+00  0.10566000000E+00 0. -1.
     999900   -1    0    0    0    0 -0.00000000000E+00 -0.00000000000E+00 -0.74505805969E-08  0.93827000000E+00  0.93827000000E+00 0.  1.
     999902    2    1    2    0    0 -0.58314652329E-02  0.49298735065E-02  0.22575388353E-01  0.10200981348E+01  0.10198197129E+01 0.  0.
     999903    2    3    3    0    0  0.12527943813E+00  0.15281259812E-01 -0.19948206121E-01  0.12930889134E+00  0.19859605543E-01 0.  0.
         14    1    1    2    0    0  0.58314652329E-02 -0.49298735065E-02 -0.22575388353E-01  0.23831865198E-01  0.00000000000E+00 0.  1.
     999901    1    3    3    0    0 -0.13111090336E+00 -0.10351386305E-01  0.42523594473E-01  0.89078924346E+00  0.88000000000E+00 0. -1.
        -11    1    4    4    0    0  0.57949502181E-01  0.22009746651E-02 -0.17879292689E-01  0.60687060570E-01  0.51100000000E-03 0. -1.
         11    1    4    4    0    0  0.67329935950E-01  0.13080285146E-01 -0.20689134323E-02  0.68621830771E-01  0.51100000000E-03 0.  1.
</event>
<event>
 8    1  0.1199892E+005  0.1043930E+01  0.7957747E-01            NaN
         13   -1    0    0    0    0  0.00000000000E+00  0.00000000000E+00  0.74505805969E-08  0.10566000000E+00  0.10566000000E+00 0. -1.
     999900   -1    0    0    0    0 -0.00000000000E+00 -0.00000000000E+00 -0.74505805969E-08  0.93827000000E+00  0.93827000000E+00 0. -1.
     999902    2    1    2    0    0 -0.18905952062E-01 -0.16149308903E-01 -0.12179272500E-03  0.10190653658E+01  0.10187619789E+01 0.  0.
     999903    2    3    3    0    0 -0.11929983076E+00  0.46702347028E-01  0.19830661038E-01  0.13090582947E+00  0.18152747305E-01 0.  0.
         14    1    1    2    0    0  0.18905952062E-01  0.16149308903E-01  0.12179272500E-03  0.24864634220E-01  0.00000000000E+00 0. -1.
     999901    1    3    3    0    0  0.10039387869E+00 -0.62851655931E-01 -0.19952453763E-01  0.88815953631E+00  0.88000000000E+00 0.  1.
        -11    1    4    4    0    0 -0.82849855485E-01  0.38774979758E-01  0.82652395197E-02  0.91848641331E-01  0.51100000000E-03 0. -1.
         11    1    4    4    0    0 -0.36449975272E-01  0.79273672698E-02  0.11565421519E-01  0.39057188135E-01  0.51100000000E-03 0.  1.
</event>
<event>
 8    1  0.1199892E+005  0.1043930E+01  0.7957747E-01            NaN
         13   -1    0    0    0    0  0.00000000000E+00  0.00000000000E+00  0.74505805969E-08  0.10566000000E+00  0.10566000000E+00 0.  1.
     999900   -1    0    0    0    0 -0.00000000000E+00 -0.00000000000E+00 -0.74505805969E-08  0.93827000000E+00  0.93827000000E+00 0.  1.
     999902    2    1    2    0    0  0.13718494243E-01  0.18820256039E-01  0.52706752847E-02  0.10200515759E+01  0.10197720521E+01 0.  0.
     999903    2    3    3    0    0 -0.18565951865E-01  0.83488149647E-01 -0.97368770631E-01  0.13114265038E+00  0.20068670997E-01 0.  0.
         14    1    1    2    0    0 -0.13718494243E-01 -0.18820256039E-01 -0.52706752847E-02  0.23878424144E-01  0.00000000000E+00 0. -1.
     999901    1    3    3    0    0  0.32284446108E-01 -0.64667893608E-01  0.10263944592E+00  0.88890892547E+00  0.88000000000E+00 0. -1.
        -11    1    4    4    0    0 -0.38958984555E-02  0.59366638820E-01 -0.62820581795E-01  0.86523190230E-01  0.51100000000E-03 0.  1.
         11    1    4    4    0    0 -0.14670053410E-01  0.24121510827E-01 -0.34548188836E-01  0.44619460155E-01  0.51100000000E-03 0. -1.
</event>
<event>
 8    1  0.1199892E+005  0.1043930E+01  0.7957747E-01            NaN
         13   -1    0    0    0    0  0.00000000000E+00  0.00000000000E+00  0.74505805969E-08  0.10566000000E+00  0.10566000000E+00 0. -1.
     999900   -1    0    0    0    0 -0.00000000000E+00 -0.00000000000E+00 -0.74505805969E-08  0.93827000000E+00  0.93827000000E+00 0.  1.
     999902    2    1    2    0    0  0.11826375845E-01  0.10903278702E-01  0.16031559785E-01  0.10212197477E+01  0.10209671971E+01 0.  0.
     999903    2    3    3    0    0 -0.53287370799E-01  0.10456583323E+00  0.58660441018E-01  0.13283374167E+00  0.20741220307E-01 0.  0.
         14    1    1    2    0    0 -0.11826375845E-01 -0.10903278702E-01 -0.16031559785E-01  0.22710252337E-01  0.00000000000E+00 0.  1.
     999901    1    3    3    0    0  0.65113746643E-01 -0.93662554532E-01 -0.42628881233E-01  0.88838600599E+00  0.88000000000E+00 0. -1.
        -11    1    4    4    0    0 -0.21710360676E-01  0.22695392378E-01  0.16472726364E-01  0.35468752879E-01  0.51100000000E-03 0. -1.
         11    1    4    4    0    0 -0.31577010122E-01  0.81870440856E-01  0.42187714653E-01  0.97364988794E-01  0.51100000000E-03 0.  1.
</event>
<event>
 8    1  0.1199892E+005  0.1043930E+01  0.7957747E-01            NaN
         13   -1    0    0    0    0  0.00000000000E+00  0.00000000000E+00  0.74505805969E-08  0.10566000000E+00  0.10566000000E+00 0. -1.
     999900   -1    0    0    0    0 -0.00000000000E+00 -0.00000000000E+00 -0.74505805969E-08  0.93827000000E+00  0.93827000000E+00 0. -1.
     999902    2    1    2    0    0  0.17870883450E-02  0.22245501221E-01 -0.96224721602E-02  0.10196267496E+01  0.10193370691E+01 0.  0.
     999903    2    3    3    0    0  0.52204176821E-01 -0.67277025748E-01 -0.95717448646E-01  0.12947591372E+00  0.18727199147E-01 0.  0.
         14    1    1    2    0    0 -0.17870883450E-02 -0.22245501221E-01  0.96224721602E-02  0.24303250396E-01  0.00000000000E+00 0. -1.
     999901    1    3    3    0    0 -0.50417088476E-01  0.89522526969E-01  0.86094976486E-01  0.89015083588E+00  0.88000000000E+00 0.  1.
        -11    1    4    4    0    0  0.14153754193E-01 -0.11877529425E-01 -0.11669314367E-01  0.21859516961E-01  0.51100000000E-03 0. -1.
         11    1    4    4    0    0  0.38050422628E-01 -0.55399496323E-01 -0.84048134279E-01  0.10761639676E+00  0.51100000000E-03 0.  1.
</event>
<event>
 8    1  0.1199892E+005  0.1043930E+01  0.7957747E-01            NaN
         13   -1    0    0    0    0  0.00000000000E+00  0.00000000000E+00  0.74505805969E-08  0.10566000000E+00  0.10566000000E+00 0.  1.
     999900   -1    0    0    0    0 -0.00000000000E+00 -0.00000000000E+00 -0.74505805969E-08  0.93827000000E+00  0.93827000000E+00 0.  1.
     999902    2    1    2    0    0 -0.10926946763E-01 -0.21904637974E-01  0.76558667684E-02  0.10182819274E+01  0.10179588696E+01 0.  0.
     999903    2    3    3    0    0 -0.15638413895E-05  0.11627525982E+00  0.46056175515E-01  0.12660506228E+00  0.19690973652E-01 0.  0.
         14    1    1    2    0    0  0.10926946763E-01  0.21904637974E-01 -0.76558667684E-02  0.25648072566E-01  0.00000000000E+00 0. -1.
     999901    1    3    3    0    0 -0.10925382922E-01 -0.13817989779E+00 -0.38400308746E-01  0.89167686516E+00  0.88000000000E+00 0.  1.
        -11    1    4    4    0    0 -0.70844126403E-02  0.43651081370E-01  0.10606072287E-01  0.45479178726E-01  0.51100000000E-03 0.  1.
         11    1    4    4    0    0  0.70828487989E-02  0.72624178446E-01  0.35450103228E-01  0.81125883551E-01  0.51100000000E-03 0. -1.
</event>
<event>
 7    1  0.1199892E+005  0.1043930E+01  0.7957747E-01            NaN
         13   -1    0    0    0    0  0.00000000000E+00  0.00000000000E+00  0.74505805969E-08  0.10566000000E+00  0.10566000000E+00 0. -1.
     999900   -1    0    0    0    0 -0.00000000000E+00 -0.00000000000E+00 -0.74505805969E-08  0.93827000000E+00  0.93827000000E+00 0. -1.
     999903    2    1    2    0    0  0.17332204242E-01  0.41971931875E-01 -0.10896947558E+00  0.11970972266E+00  0.19850005615E-01 0.  0.
         14    1    1    2    0    0 -0.12126019402E-01 -0.35425466037E-01  0.90889029318E-02  0.38530665021E-01  0.00000000000E+00 0. -1.
     999901    1    1    2    0    0 -0.52061848397E-02 -0.65464658383E-02  0.99880572645E-01  0.88568961232E+00  0.88000000000E+00 0.  1.
        -11    1    3    3    0    0  0.67012948933E-02  0.20718825657E-01 -0.76038062911E-01  0.79096303467E-01  0.51100000000E-03 0.  1.
         11    1    3    3    0    0  0.10630909349E-01  0.21253106218E-01 -0.32931412666E-01  0.40613419195E-01  0.51100000000E-03 0. -1.
</event>
<event>
 8    1  0.1199892E+005  0.1043930E+01  0.7957747E-01            NaN
         13   -1    0    0    0    0  0.00000000000E+00  0.00000000000E+00  0.74505805969E-08  0.10566000000E+00  0.10566000000E+00 0. -1.
     999900   -1    0    0    0    0 -0.00000000000E+00 -0.00000000000E+00 -0.74505805969E-08  0.93827000000E+00  0.93827000000E+00 0.  1.
     999902    2    1    2    0    0  0.21624610533E-01  0.11045923254E-01 -0.51400435056E-03  0.10196421347E+01  0.10193528253E+01 0.  0.
     999903    2    3    3    0    0  0.18534407199E-01  0.10462255714E+00  0.74705239035E-01  0.13148445142E+00  0.20442223780E-01 0.  0.
         14    1    1    2    0    0 -0.21624610533E-01 -0.11045923254E-01  0.51400435056E-03  0.24287865318E-01  0.00000000000E+00 0.  1.
     999901    1    3    3    0    0  0.30902033338E-02 -0.93576633884E-01 -0.75219243386E-01  0.88815768326E+00  0.88000000000E+00 0. -1.
        -11    1    4    4    0    0  0.24434342557E-02  0.39080163862E-01  0.17012078045E-01  0.42695450564E-01  0.51100000000E-03 0.  1.
         11    1    4    4    0    0  0.16090972943E-01  0.65542393276E-01  0.57693160990E-01  0.88789000854E-01  0.51100000000E-03 0. -1.
</event>
<event>
 8    1  0.1199892E+005  0.1043930E+01  0.7957747E-01            NaN
         13   -1    0    0    0    0  0.00000000000E+00  0.00000000000E+00  0.74505805969E-08  0.10566000000E+00  0.10566000000E+00 0.  1.
     999900   -1    0    0    0    0 -0.00000000000E+00 -0.00000000000E+00 -0.74505805969E-08  0.93827000000E+00  0.93827000000E+00 0. -1.
     999902    2    1    2    0    0  0.11065031230E-01 -0.19588023529E-01 -0.25444613143E-02  0.10212893316E+01  0.10210383435E+01 0.  0.
     999903    2    3    3    0    0 -0.11861632255E+00  0.23425135248E-01  0.42362195527E-01  0.12961450681E+00  0.19667125614E-01 0.  0.
         14    1    1    2    0    0 -0.11065031230E-01  0.19588023529E-01  0.25444613143E-02  0.22640668393E-01  0.00000000000E+00 0.  1.
     999901    1    3    3    0    0  0.12968135378E+00 -0.43013158777E-01 -0.44906656841E-01  0.89167482480E+00  0.88000000000E+00 0.  1.
        -11    1    4    4    0    0 -0.28842700060E-01  0.14124307547E-01  0.85999927466E-02  0.33250840691E-01  0.51100000000E-03 0. -1.
         11    1    4    4    0    0 -0.89773622489E-01  0.93008277010E-02  0.33762202780E-01  0.96363666121E-01  0.51100000000E-03 0.  1.
</event>
<event>
 8    1  0.1199892E+005  0.1043930E+01  0.7957747E-01            NaN
         13   -1    0    0    0    0  0.00000000000E+00  0.00000000000E+00  0.74505805969E-08  0.10566000000E+00  0.10566000000E+00 0.  1.
     999900   -1    0    0    0    0 -0.00000000000E+00 -0.00000000000E+00 -0.74505805969E-08  0.93827000000E+00  0.93827000000E+00 0.  1.
     999902    2    1    2    0    0  0.21630216686E-01  0.78543428918E-03  0.65952142681E-02  0.10213030242E+01  0.10210523431E+01 0.  0.
     999903    2    3    3    0    0 -0.10407923008E+00  0.37255479638E-01  0.64879282614E-01  0.12971457555E+00  0.19902082835E-01 0.  0.
         14    1    1    2    0    0 -0.21630216686E-01 -0.78543428918E-03 -0.65952142681E-02  0.22626975762E-01  0.00000000000E+00 0. -1.
     999901    1    3    3    0    0  0.12570944676E+00 -0.36470045349E-01 -0.58284068345E-01  0.89158844869E+00  0.88000000000E+00 0. -1.
        -11    1    4    4    0    0 -0.29951001262E-01  0.20554796993E-01  0.21618826890E-01  0.42275252254E-01  0.51100000000E-03 0. -1.
         11    1    4    4    0    0 -0.74128228814E-01  0.16700682645E-01  0.43260455724E-01  0.87439323295E-01  0.51100000000E-03 0.  1.
</event>
<event>
 8    1  0.1199892E+005  0.1043930E+01  0.7957747E-01            NaN
         13   -1    0    0    0    0  0.00000000000E+00  0.00000000000E+00  0.74505805969E-08  0.10566000000E+00  0.10566000000E+00 0.  1.
     999900   -1    0    0    0    0 -0.00000000000E+00 -0.00000000000E+00 -0.74505805969E-08  0.93827000000E+00  0.93827000000E+00 0. -1.
     999902    2    1    2    0    0  0.88847980932E-03  0.10893769116E-01 -0.21040603542E-01  0.10202198629E+01  0.10199443113E+01 0.  0.
     999903    2    3    3    0    0 -0.41902561855E-01  0.26572034220E-01 -0.12190263256E+00  0.13328692853E+00  0.21053641023E-01 0.  0.
         14    1    1    2    0    0 -0.88847980932E-03 -0.10893769116E-01  0.21040603542E-01  0.23710137058E-01  0.00000000000E+00 0.  1.
     999901    1    3    3    0    0  0.42791041664E-01 -0.15678265103E-01  0.10086202902E+00  0.88693293441E+00  0.88000000000E+00 0.  1.
        -11    1    4    4    0    0 -0.80064191663E-02  0.16801605091E-01 -0.41758163953E-01  0.45720914900E-01  0.51100000000E-03 0.  1.
         11    1    4    4    0    0 -0.33896142688E-01  0.97704291283E-02 -0.80144468605E-01  0.87566013632E-01  0.51100000000E-03 0. -1.
</event>
<event>
 8    1  0.1199892E+005  0.1043930E+01  0.7957747E-01            NaN
         13   -1    0    0    0    0  0.00000000000E+00  0.00000000000E+00  0.74505805969E-08  0.10566000000E+00  0.10566000000E+00 0. -1.
     999900   -1    0    0    0    0 -0.00000000000E+00 -0.00000000000E+00 -0.74505805969E-08  0.93827000000E+00  0.93827000000E+00 0.  1.
     999902    2    1    2    0    0  0.20161007305E-01 -0.98676986211E-02  0.41688939727E-02  0.10210998145E+01  0.10208445591E+01 0.  0.
     999903    2    3    3    0    0 -0.84445686262E-01 -0.50904252997E-01  0.84154326392E-01  0.13035617659E+00  0.13728263647E-01 0.  0.
         14    1    1    2    0    0 -0.20161007305E-01  0.98676986211E-02 -0.41688939727E-02  0.22830185470E-01  0.00000000000E+00 0. -1.
     999901    1    3    3    0    0  0.10460669357E+00  0.41036554376E-01 -0.79985432420E-01  0.89074363794E+00  0.88000000000E+00 0. -1.
        -11    1    4    4    0    0 -0.25927861336E-01 -0.11303502314E-01  0.17791577197E-01  0.33418924252E-01  0.51100000000E-03 0.  1.
         11    1    4    4    0    0 -0.58517824926E-01 -0.39600750684E-01  0.66362749195E-01  0.96937252337E-01  0.51100000000E-03 0. -1.
</event>
<event>
 8    1  0.1199892E+005  0.1043930E+01  0.7957747E-01            NaN
         13   -1    0    0    0    0  0.00000000000E+00  0.00000000000E+00  0.74505805969E-08  0.10566000000E+00  0.10566000000E+00 0.  1.
     999900   -1    0    0    0    0 -0.00000000000E+00 -0.00000000000E+00 -0.74505805969E-08  0.93827000000E+00  0.93827000000E+00 0. -1.
     999902    2    1    2    0    0  0.87589117240E-02  0.21605956680E-01  0.36004975455E-02  0.10203397588E+01  0.10200670193E+01 0.  0.
     999903    2    3    3    0    0  0.29753660496E-01 -0.11771867035E+00 -0.35792001721E-01  0.12826134284E+00  0.20662502682E-01 0.  0.
         14    1    1    2    0    0 -0.87589117240E-02 -0.21605956680E-01 -0.36004975455E-02  0.23590241229E-01  0.00000000000E+00 0.  1.
     999901    1    3    3    0    0 -0.20994748772E-01  0.13932462703E+00  0.39392499266E-01  0.89207841593E+00  0.88000000000E+00 0.  1.
        -11    1    4    4    0    0  0.34591270179E-02 -0.35442771905E-01 -0.18640047445E-01  0.40197862254E-01  0.51100000000E-03 0.  1.
         11    1    4    4    0    0  0.26294533479E-01 -0.82275898448E-01 -0.17151954276E-01  0.88063480585E-01  0.51100000000E-03 0. -1.
</event>
<event>
 8    1  0.1199892E+005  0.1043930E+01  0.7957747E-01            NaN
         13   -1    0    0    0    0  0.00000000000E+00  0.00000000000E+00  0.74505805969E-08  0.10566000000E+00  0.10566000000E+00 0.  1.
     999900   -1    0    0    0    0 -0.00000000000E+00 -0.00000000000E+00 -0.74505805969E-08  0.93827000000E+00  0.93827000000E+00 0.  1.
     999902    2    1    2    0    0  0.66349959100E-02  0.15641388565E-01  0.15525346372E-01  0.10209145142E+01  0.10206550508E+01 0.  0.
     999903    2    3    3    0    0  0.96931346755E-01  0.72268707448E-01  0.53384885776E-01  0.13367529676E+00  0.20017164528E-01 0.  0.
         14    1    1    2    0    0 -0.66349959100E-02 -0.15641388565E-01 -0.15525346372E-01  0.23015485807E-01  0.00000000000E+00 0. -1.
     999901    1    3    3    0    0 -0.90296350845E-01 -0.56627318883E-01 -0.37859539404E-01  0.88723921743E+00  0.88000000000E+00 0.  1.
        -11    1    4    4    0    0  0.27147186298E-01  0.31503354875E-01  0.21214034320E-01  0.46687551504E-01  0.51100000000E-03 0. -1.
         11    1    4    4    0    0  0.69784160457E-01  0.40765352573E-01  0.32170851455E-01  0.86987745260E-01  0.51100000000E-03 0.  1.
</event>
<event>
 8    1  0.1199892E+005  0.1043930E+01  0.7957747E-01            NaN
         13   -1    0    0    0    0  0.00000000000E+00  0.00000000000E+00  0.74505805969E-08  0.10566000000E+00  0.10566000000E+00 0. -1.
     999900   -1    0    0    0    0 -0.00000000000E+00 -0.00000000000E+00 -0.74505805969E-08  0.93827000000E+00  0.93827000000E+00 0. -1.
     999902    2    1    2    0    0  0.21232553922E-01 -0.61588038420E-02  0.80148950222E-02  0.10204142446E+01  0.10201432447E+01 0.  0.
     999903    2    3    3    0    0  0.34882943718E-01  0.11427408955E+00  0.50126156508E-01  0.13110902515E+00  0.20038902333E-01 0.  0.
         14    1    1    2    0    0 -0.21232553922E-01  0.61588038420E-02 -0.80148950222E-02  0.23515755422E-01  0.00000000000E+00 0.  1.
     999901    1    3    3    0    0 -0.13650389796E-01 -0.12043289339E+00 -0.42111261486E-01  0.88930521942E+00  0.88000000000E+00 0. -1.
        -11    1    4    4    0    0  0.28249385754E-01  0.61849774381E-01  0.32809431894E-01  0.75499286942E-01  0.51100000000E-03 0.  1.
         11    1    4    4    0    0  0.66335579642E-02  0.52424315164E-01  0.17316724614E-01  0.55609738213E-01  0.51100000000E-03 0. -1.
</event>
<event>
 8    1  0.1199892E+005  0.1043930E+01  0.7957747E-01            NaN
         13   -1    0    0    0    0  0.00000000000E+00  0.00000000000E+00  0.74505805969E-08  0.10566000000E+00  0.10566000000E+00 0.  1.
     999900   -1    0    0    0    0 -0.00000000000E+00 -0.00000000000E+00 -0.74505805969E-08  0.93827000000E+00  0.93827000000E+00 0.  1.
     999902    2    1    2    0    0 -0.18948772184E-02 -0.19311183271E-01 -0.99747097279E-02  0.10221124109E+01  0.10218795298E+01 0.  0.
     999903    2    3    3    0    0 -0.23712395768E-01 -0.80197875987E-01 -0.10375518475E+00  0.13476920170E+00  0.20090354367E-01 0.  0.
         14    1    1    2    0    0  0.18948772184E-02  0.19311183271E-01  0.99747097279E-02  0.21817589077E-01  0.00000000000E+00 0.  1.
     999901    1    3    3    0    0  0.21817518549E-01  0.60886692716E-01  0.93780475017E-01  0.88734320923E+00  0.88000000000E+00 0. -1.
        -11    1    4    4    0    0 -0.37349674058E-02 -0.43473102749E-02 -0.16327083351E-01  0.17311379492E-01  0.51100000000E-03 0. -1.
         11    1    4    4    0    0 -0.19977428362E-01 -0.75850565712E-01 -0.87428101394E-01  0.11745782220E+00  0.51100000000E-03 0.  1.
</event>
<event>
 8    1  0.1199892E+005  0.1043930E+01  0.7957747E-01            NaN
         13   -1    0    0    0    0  0.00000000000E+00  0.00000000000E+00  0.74505805969E-08  0.10566000000E+00  0.10566000000E+00 0.  1.
     999900   -1    0    0    0    0 -0.00000000000E+00 -0.00000000000E+00 -0.74505805969E-08  0.93827000000E+00  0.93827000000E+00 0.  1.
     999902    2    1    2    0    0 -0.20041301271E-01  0.13204285420E-01 -0.10860617596E-02  0.10199052952E+01  0.10196222951E+01 0.  0.
     999903    2    3    3    0    0 -0.51955648055E-01  0.49412079652E-01 -0.10887537302E+00  0.13201562554E+00  0.20816713374E-01 0.  0.
         14    1    1    2    0    0  0.20041301271E-01 -0.13204285420E-01  0.10860617596E-02  0.24024704790E-01  0.00000000000E+00 0. -1.
     999901    1    3    3    0    0  0.31914346784E-01 -0.36207794232E-01  0.10778931126E+00  0.88788966967E+00  0.88000000000E+00 0. -1.
        -11    1    4    4    0    0 -0.28732174550E-01  0.40635106640E-01 -0.70121381624E-01  0.85988481949E-01  0.51100000000E-03 0.  1.
         11    1    4    4    0    0 -0.23223473505E-01  0.87769730117E-02 -0.38753991392E-01  0.46027143586E-01  0.51100000000E-03 0. -1.
</event>
<event>
 8    1  0.1199892E+005  0.1043930E+01  0.7957747E-01            NaN
         13   -1    0    0    0    0  0.00000000000E+00  0.00000000000E+00  0.74505805969E-08  0.10566000000E+00  0.10566000000E+00 0. -1.
     999900   -1    0    0    0    0 -0.00000000000E+00 -0.00000000000E+00 -0.74505805969E-08  0.93827000000E+00  0.93827000000E+00 0. -1.
     999902    2    1    2    0    0  0.21690365492E-01  0.24285431283E-02  0.11043295950E-01  0.10194693344E+01  0.10191758433E+01 0.  0.
     999903    2    3    3    0    0 -0.11012347076E+00 -0.44945123647E-01  0.42801386366E-01  0.12782606040E+00  0.18981572437E-01 0.  0.
         14    1    1    2    0    0 -0.21690365492E-01 -0.24285431283E-02 -0.11043295950E-01  0.24460665616E-01  0.00000000000E+00 0. -1.
     999901    1    3    3    0    0  0.13181383625E+00  0.47373666775E-01 -0.31758090416E-01  0.89164327398E+00  0.88000000000E+00 0. -1.
        -11    1    4    4    0    0 -0.52823640010E-01 -0.31040327953E-01  0.25595025935E-01  0.66401847693E-01  0.51100000000E-03 0. -1.
         11    1    4    4    0    0 -0.57299830745E-01 -0.13904795694E-01  0.17206360431E-01  0.61424212710E-01  0.51100000000E-03 0.  1.
</event>
<event>
 8    1  0.1199892E+005  0.1043930E+01  0.7957747E-01            NaN
         13   -1    0    0    0    0  0.00000000000E+00  0.00000000000E+00  0.74505805969E-08  0.10566000000E+00  0.10566000000E+00 0.  1.
     999900   -1    0    0    0    0 -0.00000000000E+00 -0.00000000000E+00 -0.74505805969E-08  0.93827000000E+00  0.93827000000E+00 0.  1.
     999902    2    1    2    0    0 -0.28307651608E-03  0.19839330758E-01  0.12542357620E-01  0.10204568257E+01  0.10201868178E+01 0.  0.
     999903    2    3    3    0    0 -0.12177848708E+00 -0.23753262375E-01 -0.32902012458E-01  0.12988024856E+00  0.19801998743E-01 0.  0.
         14    1    1    2    0    0  0.28307651608E-03 -0.19839330758E-01 -0.12542357620E-01  0.23473174304E-01  0.00000000000E+00 0. -1.
     999901    1    3    3    0    0  0.12149541056E+00  0.43592593133E-01  0.45444370078E-01  0.89057657713E+00  0.88000000000E+00 0.  1.
        -11    1    4    4    0    0 -0.65647544821E-01 -0.14310785643E-01 -0.27850871553E-01  0.72734660885E-01  0.51100000000E-03 0.  1.
         11    1    4    4    0    0 -0.56130942260E-01 -0.94424767322E-02 -0.50511409049E-02  0.57145587679E-01  0.51100000000E-03 0. -1.
</event>
<event>
 8    1  0.1199892E+005  0.1043930E+01  0.7957747E-01            NaN
         13   -1    0    0    0    0  0.00000000000E+00  0.00000000000E+00  0.74505805969E-08  0.10566000000E+00  0.10566000000E+00 0. -1.
     999900   -1    0    0    0    0 -0.00000000000E+00 -0.00000000000E+00 -0.74505805969E-08  0.93827000000E+00  0.93827000000E+00 0. -1.
     999902    2    1    2    0    0 -0.29890148834E-02  0.21753035364E-01 -0.81422844611E-02  0.10205115126E+01  0.10202427759E+01 0.  0.
     999903    2    3    3    0    0 -0.10660018797E+00  0.30264268607E-02  0.73431978632E-01  0.13048886035E+00  0.16196538385E-01 0.  0.
         14    1    1    2    0    0  0.29890148834E-02 -0.21753035364E-01  0.81422844611E-02  0.23418487435E-01  0.00000000000E+00 0. -1.
     999901    1    3    3    0    0  0.10361117308E+00  0.18726608503E-01 -0.81574263093E-01  0.89002265221E+00  0.88000000000E+00 0. -1.
        -11    1    4    4    0    0 -0.58268542962E-01 -0.63986335905E-02  0.39750536439E-01  0.70827479688E-01  0.51100000000E-03 0. -1.
         11    1    4    4    0    0 -0.48331645006E-01  0.94250604512E-02  0.33681442193E-01  0.59661380664E-01  0.51100000000E-03 0.  1.
</event>
<event>
 8    1  0.1199892E+005  0.1043930E+01  0.7957747E-01            NaN
         13   -1    0    0    0    0  0.00000000000E+00  0.00000000000E+00  0.74505805969E-08  0.10566000000E+00  0.10566000000E+00 0.  1.
     999900   -1    0    0    0    0 -0.00000000000E+00 -0.00000000000E+00 -0.74505805969E-08  0.93827000000E+00  0.93827000000E+00 0. -1.
     999902    2    1    2    0    0  0.70766313353E-02 -0.22926478427E-01  0.17890662579E-02  0.10198695993E+01  0.10195857476E+01 0.  0.
     999903    2    3    3    0    0  0.70622456670E-01 -0.94026578907E-01  0.58401825228E-01  0.13290945324E+00  0.20630575453E-01 0.  0.
         14    1    1    2    0    0 -0.70766313353E-02  0.22926478427E-01 -0.17890662579E-02  0.24060400708E-01  0.00000000000E+00 0.  1.
     999901    1    3    3    0    0 -0.63545825335E-01  0.71100100480E-01 -0.56612758970E-01  0.88696014605E+00  0.88000000000E+00 0. -1.
        -11    1    4    4    0    0  0.37777484955E-01 -0.33403947439E-01  0.23823195583E-01  0.55774257887E-01  0.51100000000E-03 0. -1.
         11    1    4    4    0    0  0.32844971715E-01 -0.60622631468E-01  0.34578629645E-01  0.77135195353E-01  0.51100000000E-03 0.  1.
</event>
<event>
 8    1  0.1199892E+005  0.1043930E+01  0.7957747E-01            NaN
         13   -1    0    0    0    0  0.00000000000E+00  0.00000000000E+00  0.74505805969E-08  0.10566000000E+00  0.10566000000E+00 0. -1.
     999900   -1    0    0    0    0 -0.00000000000E+00 -0.00000000000E+00 -0.74505805969E-08  0.93827000000E+00  0.93827000000E+00 0.  1.
     999902    2    1    2    0    0 -0.57603102151E-02  0.47927216748E-02 -0.19978616899E-01  0.10225923223E+01  0.10223696793E+01 0.  0.
     999903    2    3    3    0    0  0.59940993976E-01 -0.10737775494E+00 -0.45868344431E-01  0.13266583370E+00  0.19323907346E-01 0.  0.
         14    1    1    2    0    0  0.57603102151E-02 -0.47927216748E-02  0.19978616899E-01  0.21337677662E-01  0.00000000000E+00 0. -1.
     999901    1    3    3    0    0 -0.65701304191E-01  0.11217047661E+00  0.25889727532E-01  0.88992648864E+00  0.88000000000E+00 0. -1.
        -11    1    4    4    0    0  0.31493779893E-01 -0.38249411793E-01 -0.21793042190E-01  0.54130153180E-01  0.51100000000E-03 0.  1.
         11    1    4    4    0    0  0.28447214083E-01 -0.69128343144E-01 -0.24075302242E-01  0.78535680515E-01  0.51100000000E-03 0. -1.
</event>
<event>
 8    1  0.1199892E+005  0.1043930E+01  0.7957747E-01            NaN
         13   -1    0    0    0    0  0.00000000000E+00  0.00000000000E+00  0.74505805969E-08  0.10566000000E+00  0.10566000000E+00 0. -1.
     999900   -1    0    0    0    0 -0.00000000000E+00 -0.00000000000E+00 -0.74505805969E-08  0.93827000000E+00  0.93827000000E+00 0.  1.
     999902    2    1    2    0    0  0.19985204627E-01 -0.10007026447E-01  0.66009320482E-02  0.10206250373E+01  0.10203589297E+01 0.  0.
     999903    2    3    3    0    0  0.12217846368E+00 -0.15116011170E-01 -0.46458427234E-01  0.13310891941E+00  0.20088010942E-01 0.  0.
         14    1    1    2    0    0 -0.19985204627E-01  0.10007026447E-01 -0.66009320482E-02  0.23304962695E-01  0.00000000000E+00 0. -1.
     999901    1    3    3    0    0 -0.10219325905E+00  0.51089847236E-02  0.53059359282E-01  0.88751611790E+00  0.88000000000E+00 0. -1.
        -11    1    4    4    0    0  0.34605326718E-01  0.30185896382E-02 -0.74031692997E-02  0.35520537121E-01  0.51100000000E-03 0. -1.
         11    1    4    4    0    0  0.87573136962E-01 -0.18134600809E-01 -0.39055257934E-01  0.97588382286E-01  0.51100000000E-03 0.  1.
</event>
<event>
 8    1  0.1199892E+005  0.1043930E+01  0.7957747E-01            NaN
         13   -1    0    0    0    0  0.00000000000E+00  0.00000000000E+00  0.74505805969E-08  0.10566000000E+00  0.10566000000E+00 0.  1.
     999900   -1    0    0    0    0 -0.00000000000E+00 -0.00000000000E+00 -0.74505805969E-08  0.93827000000E+00  0.93827000000E+00 0.  1.
     999902    2    1    2    0    0 -0.67143225380E-03  0.15553192856E-01  0.17702851672E-01  0.10203557856E+01  0.10200834209E+01 0.  0.
     999903    2    3    3    0    0  0.10351885870E+00 -0.32990414350E-01  0.71354643214E-01  0.13126039514E+00  0.18256086066E-01 0.  0.
         14    1    1    2    0    0  0.67143225380E-03 -0.15553192856E-01 -0.17702851672E-01  0.23574214443E-01  0.00000000000E+00 0. -1.
     999901    1    3    3    0    0 -0.10419029095E+00  0.48543607206E-01 -0.53651791542E-01  0.88909539042E+00  0.88000000000E+00 0.  1.
        -11    1    4    4    0    0  0.34678357018E-01 -0.15348029431E-01  0.15930660515E-01  0.41136328450E-01  0.51100000000E-03 0.  1.
         11    1    4    4    0    0  0.68840501680E-01 -0.17642384919E-01  0.55423982699E-01  0.90124066688E-01  0.51100000000E-03 0. -1.
</event>
<event>
 8    1  0.1199892E+005  0.1043930E+01  0.7957747E-01            NaN
         13   -1    0    0    0    0  0.00000000000E+00  0.00000000000E+00  0.74505805969E-08  0.10566000000E+00  0.10566000000E+00 0.  1.
     999900   -1    0    0    0    0 -0.00000000000E+00 -0.00000000000E+00 -0.74505805969E-08  0.93827000000E+00  0.93827000000E+00 0.  1.
     999902    2    1    2    0    0  0.42875095421E-02  0.64907361593E-02 -0.22009062968E-01  0.10205866659E+01  0.10203196712E+01 0.  0.
     999903    2    3    3    0    0  0.11661654819E+00  0.21865546081E-01  0.50087312854E-01  0.13038888726E+00  0.20371587882E-01 0.  0.
         14    1    1    2    0    0 -0.42875095421E-02 -0.64907361593E-02  0.22009062968E-01  0.23343334095E-01  0.00000000000E+00 0.  1.
     999901    1    3    3    0    0 -0.11232903865E+00 -0.15374809922E-01 -0.72096375822E-01  0.89019777865E+00  0.88000000000E+00 0.  1.
        -11    1    4    4    0    0  0.43514503175E-01  0.10906045810E-01  0.29362432097E-01  0.53617789599E-01  0.51100000000E-03 0.  1.
         11    1    4    4    0    0  0.73102045019E-01  0.10959500271E-01  0.20724880757E-01  0.76771097657E-01  0.51100000000E-03 0. -1.
</event>
<event>
 8    1  0.1199892E+005  0.1043930E+01  0.7957747E-01            NaN
         13   -1    0    0    0    0  0.00000000000E+00  0.00000000000E+00  0.74505805969E-08  0.10566000000E+00  0.10566000000E+00 0.  1.
     999900   -1    0    0    0    0 -0.00000000000E+00 -0.00000000000E+00 -0.74505805969E-08  0.93827000000E+00  0.93827000000E+00 0. -1.
     999902    2    1    2    0    0  0.11126390729E-01  0.13504866604E-01 -0.15606683340E-01  0.10204833252E+01  0.10202139337E+01 0.  0.
     999903    2    3    3    0    0 -0.55752249928E-01 -0.79574813108E-01 -0.84556639454E-01  0.13037621045E+00  0.20190758311E-01 0.  0.
         14    1    1    2    0    0 -0.11126390729E-01 -0.13504866604E-01  0.15606683340E-01  0.23446674765E-01  0.00000000000E+00 0. -1.
     999901    1    3    3    0    0  0.66878640657E-01  0.93079679712E-01  0.68949956114E-01  0.89010711479E+00  0.88000000000E+00 0. -1.
        -11    1    4    4    0    0 -0.31979348939E-01 -0.36206180419E-01 -0.30623580999E-01  0.57198173863E-01  0.51100000000E-03 0.  1.
         11    1    4    4    0    0 -0.23772900989E-01 -0.43368632689E-01 -0.53933058454E-01  0.73178036582E-01  0.51100000000E-03 0. -1.
</event>
<event>
 8    1  0.1199892E+005  0.1043930E+01  0.7957747E-01            NaN
         13   -1    0    0    0    0  0.00000000000E+00  0.00000000000E+00  0.74505805969E-08  0.10566000000E+00  0.10566000000E+00 0. -1.
     999900   -1    0    0    0    0 -0.00000000000E+00 -0.00000000000E+00 -0.74505805969E-08  0.93827000000E+00  0.93827000000E+00 0.  1.
     999902    2    1    2    0    0  0.50097859292E-03 -0.23474983921E-01 -0.11002044923E-02  0.10204239093E+01  0.10201531348E+01 0.  0.
     999903    2    3    3    0    0 -0.87645940922E-01  0.89842228911E-01  0.19834761514E-01  0.12854446513E+00  0.19411973004E-01 0.  0.
         14    1    1    2    0    0 -0.50097859292E-03  0.23474983921E-01  0.11002044923E-02  0.23506090691E-01  0.00000000000E+00 0.  1.
     999901    1    3    3    0    0  0.88146919515E-01 -0.11331721283E+00 -0.20934966006E-01  0.89187944418E+00  0.88000000000E+00 0.  1.
        -11    1    4    4    0    0 -0.61222054412E-01  0.74196202392E-01  0.12873819415E-01  0.97052628728E-01  0.51100000000E-03 0. -1.
         11    1    4    4    0    0 -0.26423886510E-01  0.15646026519E-01  0.69609420995E-02  0.31491836403E-01  0.51100000000E-03 0.  1.
</event>
<event>
 8    1  0.1199892E+005  0.1043930E+01  0.7957747E-01            NaN
         13   -1    0    0    0    0  0.00000000000E+00  0.00000000000E+00  0.74505805969E-08  0.10566000000E+00  0.10566000000E+00 0.  1.
     999900   -1    0    0    0    0 -0.00000000000E+00 -0.00000000000E+00 -0.74505805969E-08  0.93827000000E+00  0.93827000000E+00 0.  1.
     999902    2    1    2    0    0 -0.17285889886E-03  0.10351082868E-01 -0.31548584317E-01  0.10107262657E+01  0.10101807246E+01 0.  0.
     999903    2    3    3    0    0 -0.52982412943E-01 -0.34887044513E-01  0.98141466197E-01  0.11850720835E+00  0.19696930889E-01 0.  0.
         14    1    1    2    0    0  0.17285889886E-03 -0.10351082868E-01  0.31548584317E-01  0.33203734264E-01  0.00000000000E+00 0.  1.
     999901    1    3    3    0    0  0.52809554044E-01  0.45238127381E-01 -0.12969005051E+00  0.89221905739E+00  0.88000000000E+00 0.  1.
        -11    1    4    4    0    0 -0.33550574970E-01 -0.14524634019E-01  0.68376486660E-01  0.77538449322E-01  0.51100000000E-03 0. -1.
         11    1    4    4    0    0 -0.19431837973E-01 -0.20362410494E-01  0.29764979537E-01  0.40968759024E-01  0.51100000000E-03 0.  1.
</event>
<event>
 8    1  0.1199892E+005  0.1043930E+01  0.7957747E-01            NaN
         13   -1    0    0    0    0  0.00000000000E+00  0.00000000000E+00  0.74505805969E-08  0.10566000000E+00  0.10566000000E+00 0.  1.
     999900   -1    0    0    0    0 -0.00000000000E+00 -0.00000000000E+00 -0.74505805969E-08  0.93827000000E+00  0.93827000000E+00 0.  1.
     999902    2    1    2    0    0 -0.61269014551E-02  0.71945683696E-02  0.22268891244E-01  0.10197390047E+01  0.10194520261E+01 0.  0.
     999903    2    3    3    0    0  0.11665600131E+00 -0.34889160708E-01  0.40503349213E-01  0.13003165007E+00  0.21019813157E-01 0.  0.
         14    1    1    2    0    0  0.61269014551E-02 -0.71945683696E-02 -0.22268891244E-01  0.24190995281E-01  0.00000000000E+00 0. -1.
     999901    1    3    3    0    0 -0.12278290276E+00  0.42083729077E-01 -0.18234457970E-01  0.88970735465E+00  0.88000000000E+00 0.  1.
        -11    1    4    4    0    0  0.52053189404E-01 -0.97728319317E-02  0.83401515038E-02  0.53617739781E-01  0.51100000000E-03 0. -1.
         11    1    4    4    0    0  0.64602811905E-01 -0.25116328776E-01  0.32163197710E-01  0.76413910286E-01  0.51100000000E-03 0.  1.
</event>
<event>
 8    1  0.1199892E+005  0.1043930E+01  0.7957747E-01            NaN
         13   -1    0    0    0    0  0.00000000000E+00  0.00000000000E+00  0.74505805969E-08  0.10566000000E+00  0.10566000000E+00 0.  1.
     999900   -1    0    0    0    0 -0.00000000000E+00 -0.00000000000E+00 -0.74505805969E-08  0.93827000000E+00  0.93827000000E+00 0.  1.
     999902    2    1    2    0    0 -0.20574712534E-01  0.85000534211E-03 -0.12249590343E-01  0.10199697461E+01  0.10196882804E+01 0.  0.
     999903    2    3    3    0    0  0.10337101710E+00  0.48361304852E-01  0.55441432825E-01  0.12744414862E+00  0.11994813921E-01 0.  0.
         14    1    1    2    0    0  0.20574712534E-01 -0.85000534211E-03  0.12249590343E-01  0.23960253933E-01  0.00000000000E+00 0.  1.
     999901    1    3    3    0    0 -0.12394572964E+00 -0.47511299509E-01 -0.67691023168E-01  0.89252559744E+00  0.88000000000E+00 0.  1.
        -11    1    4    4    0    0  0.42129025267E-01  0.23168753179E-01  0.17803714515E-01  0.51272597607E-01  0.51100000000E-03 0. -1.
         11    1    4    4    0    0  0.61241991834E-01  0.25192551673E-01  0.37637718310E-01  0.76171551016E-01  0.51100000000E-03 0.  1.
</event>
<event>
 8    1  0.1199892E+005  0.1043930E+01  0.7957747E-01            NaN
         13   -1    0    0    0    0  0.00000000000E+00  0.00000000000E+00  0.74505805969E-08  0.10566000000E+00  0.10566000000E+00 0. -1.
     999900   -1    0    0    0    0 -0.00000000000E+00 -0.00000000000E+00 -0.74505805969E-08  0.93827000000E+00  0.93827000000E+00 0.  1.
     999902    2    1    2    0    0 -0.11836673891E-01 -0.18340737130E-01  0.76663863325E-02  0.10207942492E+01  0.10205320358E+01 0.  0.
     999903    2    3    3    0    0 -0.10511987352E+00  0.60777392162E-01 -0.44181026533E-01  0.13082257100E+00  0.20457340248E-01 0.  0.
         14    1    1    2    0    0  0.11836673891E-01  0.18340737130E-01 -0.76663863325E-02  0.23135750835E-01  0.00000000000E+00 0.  1.
     999901    1    3    3    0    0  0.93283199631E-01 -0.79118129293E-01  0.51847412866E-01  0.88997167817E+00  0.88000000000E+00 0. -1.
        -11    1    4    4    0    0 -0.41565486676E-01  0.35576041089E-01 -0.17751498995E-01  0.57521484854E-01  0.51100000000E-03 0.  1.
         11    1    4    4    0    0 -0.63554386846E-01  0.25201351074E-01 -0.26429527538E-01  0.73301086146E-01  0.51100000000E-03 0. -1.
</event>
<event>
 8    1  0.1199892E+005  0.1043930E+01  0.7957747E-01            NaN
         13   -1    0    0    0    0  0.00000000000E+00  0.00000000000E+00  0.74505805969E-08  0.10566000000E+00  0.10566000000E+00 0.  1.
     999900   -1    0    0    0    0 -0.00000000000E+00 -0.00000000000E+00 -0.74505805969E-08  0.93827000000E+00  0.93827000000E+00 0.  1.
     999902    2    1    2    0    0 -0.16060093454E-01  0.15757833733E-01  0.59629437697E-02  0.10206535608E+01  0.10203881117E+01 0.  0.
     999903    2    3    3    0    0 -0.67807913215E-01 -0.51218145827E-01  0.98629559599E-01  0.13174933623E+00  0.20220930069E-01 0.  0.
         14    1    1    2    0    0  0.16060093454E-01 -0.15757833733E-01 -0.59629437697E-02  0.23276439249E-01  0.00000000000E+00 0. -1.
     999901    1    3    3    0    0  0.51747819761E-01  0.66975979560E-01 -0.92666615829E-01  0.88890422452E+00  0.88000000000E+00 0. -1.
        -11    1    4    4    0    0 -0.87297279084E-02 -0.12095496073E-01  0.27838524811E-01  0.31587240450E-01  0.51100000000E-03 0. -1.
         11    1    4    4    0    0 -0.59078185307E-01 -0.39122649754E-01  0.70791034788E-01  0.10016209578E+00  0.51100000000E-03 0.  1.
</event>
<event>
 8    1  0.1199892E+005  0.1043930E+01  0.7957747E-01            NaN
         13   -1    0    0    0    0  0.00000000000E+00  0.00000000000E+00  0.74505805969E-08  0.10566000000E+00  0.10566000000E+00 0. -1.
     999900   -1    0    0    0    0 -0.00000000000E+00 -0.00000000000E+00 -0.74505805969E-08  0.93827000000E+00  0.93827000000E+00 0. -1.
     999902    2    1    2    0    0  0.19104283216E-01 -0.11694615005E-01 -0.24642144729E-02  0.10213953598E+01  0.10211467431E+01 0.  0.
     999903    2    3    3    0    0 -0.94253983996E-03 -0.29754493954E-01  0.12650536443E+00  0.13158572472E+00  0.20614980675E-01 0.  0.
         14    1    1    2    0    0 -0.19104283216E-01  0.11694615005E-01  0.24642144729E-02  0.22534640230E-01  0.00000000000E+00 0.  1.
     999901    1    3    3    0    0  0.20046823056E-01  0.18059878949E-01 -0.12896957891E+00  0.88980963505E+00  0.88000000000E+00 0. -1.
        -11    1    4    4    0    0  0.73741006884E-02 -0.24658293694E-01  0.79057869752E-01  0.83143350303E-01  0.51100000000E-03 0.  1.
         11    1    4    4    0    0 -0.83166405284E-02 -0.50962002603E-02  0.47447494682E-01  0.48442374419E-01  0.51100000000E-03 0. -1.
</event>
<event>
 8    1  0.1199892E+005  0.1043930E+01  0.7957747E-01            NaN
         13   -1    0    0    0    0  0.00000000000E+00  0.00000000000E+00  0.74505805969E-08  0.10566000000E+00  0.10566000000E+00 0. -1.
     999900   -1    0    0    0    0 -0.00000000000E+00 -0.00000000000E+00 -0.74505805969E-08  0.93827000000E+00  0.93827000000E+00 0. -1.
     999902    2    1    2    0    0  0.23465166651E-01  0.93097935097E-03  0.23069961299E-02  0.10203333265E+01  0.10200604365E+01 0.  0.
     999903    2    3    3    0    0  0.10031988305E+00 -0.78411480270E-01  0.32226605047E-01  0.13292301762E+00  0.20433682191E-01 0.  0.
         14    1    1    2    0    0 -0.23465166651E-01 -0.93097935097E-03 -0.23069961299E-02  0.23596673487E-01  0.00000000000E+00 0.  1.
     999901    1    3    3    0    0 -0.76854716395E-01  0.79342459621E-01 -0.29919608917E-01  0.88741030889E+00  0.88000000000E+00 0. -1.
        -11    1    4    4    0    0  0.41932110877E-01 -0.20702403520E-01  0.14147355225E-01  0.48860006293E-01  0.51100000000E-03 0. -1.
         11    1    4    4    0    0  0.58387772169E-01 -0.57709076751E-01  0.18079249821E-01  0.84063011327E-01  0.51100000000E-03 0.  1.
</event>
<event>
 8    1  0.1199892E+005  0.1043930E+01  0.7957747E-01            NaN
         13   -1    0    0    0    0  0.00000000000E+00  0.00000000000E+00  0.74505805969E-08  0.10566000000E+00  0.10566000000E+00 0.  1.
     999900   -1    0    0    0    0 -0.00000000000E+00 -0.00000000000E+00 -0.74505805969E-08  0.93827000000E+00  0.93827000000E+00 0.  1.
     999902    2    1    2    0    0 -0.19081441286E-01  0.92164077231E-02 -0.93131928888E-02  0.10207830967E+01  0.10205206276E+01 0.  0.
     999903    2    3    3    0    0  0.92791820647E-01 -0.44460506127E-01 -0.76081388954E-01  0.12957334030E+00  0.20342423316E-01 0.  0.
         14    1    1    2    0    0  0.19081441286E-01 -0.92164077231E-02  0.93131928888E-02  0.23146903349E-01  0.00000000000E+00 0.  1.
     999901    1    3    3    0    0 -0.11187326193E+00  0.53676913850E-01  0.66768196065E-01  0.89120975635E+00  0.88000000000E+00 0. -1.
        -11    1    4    4    0    0  0.23026643045E-01 -0.78949719150E-02 -0.28763733535E-01  0.37685147728E-01  0.51100000000E-03 0.  1.
         11    1    4    4    0    0  0.69765177602E-01 -0.36565534212E-01 -0.47317655419E-01  0.91888192568E-01  0.51100000000E-03 0. -1.
</event>
<event>
 8    1  0.1199892E+005  0.1043930E+01  0.7957747E-01            NaN
         13   -1    0    0    0    0  0.00000000000E+00  0.00000000000E+00  0.74505805969E-08  0.10566000000E+00  0.10566000000E+00 0. -1.
     999900   -1    0    0    0    0 -0.00000000000E+00 -0.00000000000E+00 -0.74505805969E-08  0.93827000000E+00  0.93827000000E+00 0.  1.
     999902    2    1    2    0    0  0.19027877408E-01 -0.13276300248E-01  0.64192721867E-02  0.10198566263E+01  0.10195724647E+01 0.  0.
     999903    2    3    3    0    0 -0.11307960236E+00  0.38931071760E-01 -0.38797578798E-01  0.12731947886E+00  0.20059231253E-01 0.  0.
         14    1    1    2    0    0 -0.19027877408E-01  0.13276300248E-01 -0.64192721867E-02  0.24073373721E-01  0.00000000000E+00 0. -1.
     999901    1    3    3    0    0  0.13210747977E+00 -0.52207372009E-01  0.45216850985E-01  0.89253714742E+00  0.88000000000E+00 0. -1.
        -11    1    4    4    0    0 -0.99004405299E-01  0.26860290263E-01 -0.30701106949E-01  0.10708018748E+00  0.51100000000E-03 0.  1.
         11    1    4    4    0    0 -0.14075197064E-01  0.12070781497E-01 -0.80964718490E-02  0.20239291385E-01  0.51100000000E-03 0. -1.
</event>
<event>
 8    1  0.1199892E+005  0.1043930E+01  0.7957747E-01            NaN
         13   -1    0    0    0    0  0.00000000000E+00  0.00000000000E+00  0.74505805969E-08  0.10566000000E+00  0.10566000000E+00 0. -1.
     999900   -1    0    0    0    0 -0.00000000000E+00 -0.00000000000E+00 -0.74505805969E-08  0.93827000000E+00  0.93827000000E+00 0.  1.
     999902    2    1    2    0    0  0.10089145752E-01 -0.74998809557E-02  0.22533519417E-01  0.10181269270E+01  0.10177999022E+01 0.  0.
     999903    2    3    3    0    0  0.11907277589E+00 -0.25804543197E-02 -0.44900504913E-01  0.12883002498E+00  0.19903147812E-01 0.  0.
         14    1    1    2    0    0 -0.10089145752E-01  0.74998809557E-02 -0.22533519417E-01  0.25803072950E-01  0.00000000000E+00 0.  1.
     999901    1    3    3    0    0 -0.10898363013E+00 -0.49194266359E-02  0.67434024330E-01  0.88929690207E+00  0.88000000000E+00 0. -1.
        -11    1    4    4    0    0  0.10108405972E+00 -0.12687224672E-02 -0.30061450627E-01  0.10546823561E+00  0.51100000000E-03 0. -1.
         11    1    4    4    0    0  0.17988716162E-01 -0.13117318525E-02 -0.14839054285E-01  0.23361789373E-01  0.51100000000E-03 0.  1.
</event>
<event>
 8    1  0.1199892E+005  0.1043930E+01  0.7957747E-01            NaN
         13   -1    0    0    0    0  0.00000000000E+00  0.00000000000E+00  0.74505805969E-08  0.10566000000E+00  0.10566000000E+00 0. -1.
     999900   -1    0    0    0    0 -0.00000000000E+00 -0.00000000000E+00 -0.74505805969E-08  0.93827000000E+00  0.93827000000E+00 0.  1.
     999902    2    1    2    0    0 -0.21434125026E-01  0.15215491253E-02 -0.68149966741E-02  0.10213871296E+01  0.10211383292E+01 0.  0.
     999903    2    3    3    0    0  0.93657294046E-01  0.13372384725E-01  0.85461208588E-01  0.12902992805E+00  0.19864409354E-01 0.  0.
         14    1    1    2    0    0  0.21434125026E-01 -0.15215491253E-02  0.68149966741E-02  0.22542870426E-01  0.00000000000E+00 0.  1.
     999901    1    3    3    0    0 -0.11509141907E+00 -0.11850835600E-01 -0.92276205262E-01  0.89235720152E+00  0.88000000000E+00 0.  1.
        -11    1    4    4    0    0  0.50807138351E-01  0.13523668434E-01  0.36734895400E-01  0.64140225884E-01  0.51100000000E-03 0.  1.
         11    1    4    4    0    0  0.42850155695E-01 -0.15128370941E-03  0.48726313188E-01  0.64889702170E-01  0.51100000000E-03 0. -1.
</event>
<event>
 8    1  0.1199892E+005  0.1043930E+01  0.7957747E-01            NaN
         13   -1    0    0    0    0  0.00000000000E+00  0.00000000000E+00  0.74505805969E-08  0.10566000000E+00  0.10566000000E+00 0.  1.
     999900   -1    0    0    0    0 -0.00000000000E+00 -0.00000000000E+00 -0.74505805969E-08  0.93827000000E+00  0.93827000000E+00 0.  1.
     999902    2    1    2    0    0 -0.25159506173E-01 -0.19131929587E-01  0.96060051517E-02  0.10108950667E+01  0.10103551500E+01 0.  0.
     999903    2    3    3    0    0  0.29963368561E-01 -0.94658895787E-01  0.71150828521E-01  0.12380396701E+00  0.20171064423E-01 0.  0.
         14    1    1    2    0    0  0.25159506173E-01  0.19131929587E-01 -0.96060051517E-02  0.33034933261E-01  0.00000000000E+00 0. -1.
     999901    1    3    3    0    0 -0.55122874734E-01  0.75526966201E-01 -0.61544823370E-01  0.88709109973E+00  0.88000000000E+00 0. -1.
        -11    1    4    4    0    0  0.10004383777E-01 -0.61192243295E-01  0.48569911276E-01  0.78764685847E-01  0.51100000000E-03 0. -1.
         11    1    4    4    0    0  0.19958984785E-01 -0.33466652492E-01  0.22580917245E-01  0.45039281159E-01  0.51100000000E-03 0.  1.
</event>
<event>
 8    1  0.1199892E+005  0.1043930E+01  0.7957747E-01            NaN
         13   -1    0    0    0    0  0.00000000000E+00  0.00000000000E+00  0.74505805969E-08  0.10566000000E+00  0.10566000000E+00 0.  1.
     999900   -1    0    0    0    0 -0.00000000000E+00 -0.00000000000E+00 -0.74505805969E-08  0.93827000000E+00  0.93827000000E+00 0.  1.
     999902    2    1    2    0    0  0.14452978973E-02 -0.21625033550E-01  0.15908668297E-01  0.10170447496E+01  0.10166893360E+01 0.  0.
     999903    2    3    3    0    0 -0.98118195240E-01  0.70003235024E-01  0.33041781525E-01  0.12653805544E+00  0.19811284625E-01 0.  0.
         14    1    1    2    0    0 -0.14452978973E-02  0.21625033550E-01 -0.15908668297E-01  0.26885250399E-01  0.00000000000E+00 0. -1.
     999901    1    3    3    0    0  0.99563493137E-01 -0.91628268574E-01 -0.17133113228E-01  0.89050669416E+00  0.88000000000E+00 0.  1.
        -11    1    4    4    0    0 -0.50562619223E-01  0.40905658489E-01  0.83921724014E-02  0.65578510487E-01  0.51100000000E-03 0. -1.
         11    1    4    4    0    0 -0.47555576017E-01  0.29097576535E-01  0.24649609124E-01  0.60959544958E-01  0.51100000000E-03 0.  1.
</event>
<event>
 8    1  0.1199892E+005  0.1043930E+01  0.7957747E-01            NaN
         13   -1    0    0    0    0  0.00000000000E+00  0.00000000000E+00  0.74505805969E-08  0.10566000000E+00  0.10566000000E+00 0.  1.
     999900   -1    0    0    0    0 -0.00000000000E+00 -0.00000000000E+00 -0.74505805969E-08  0.93827000000E+00  0.93827000000E+00 0. -1.
     999902    2    1    2    0    0 -0.20987271019E-01 -0.11298040372E-01 -0.16897292664E-03  0.10200943164E+01  0.10198158042E+01 0.  0.
     999903    2    3    3    0    0  0.16333466977E-01 -0.24973723635E-01 -0.12508261804E+00  0.13038465559E+00  0.21541310582E-01 0.  0.
         14    1    1    2    0    0  0.20987271019E-01  0.11298040372E-01  0.16897292664E-03  0.23835683605E-01  0.00000000000E+00 0. -1.
     999901    1    3    3    0    0 -0.37320737996E-01  0.13675683263E-01  0.12491364511E+00  0.88970966081E+00  0.88000000000E+00 0.  1.
        -11    1    4    4    0    0  0.14848592917E-01 -0.55666985264E-02 -0.74795540131E-01  0.76459811591E-01  0.51100000000E-03 0.  1.
         11    1    4    4    0    0  0.14848740602E-02 -0.19407025108E-01 -0.50287077909E-01  0.53924843997E-01  0.51100000000E-03 0. -1.
</event>
<event>
 8    1  0.1199892E+005  0.1043930E+01  0.7957747E-01            NaN
         13   -1    0    0    0    0  0.00000000000E+00  0.00000000000E+00  0.74505805969E-08  0.10566000000E+00  0.10566000000E+00 0.  1.
     999900   -1    0    0    0    0 -0.00000000000E+00 -0.00000000000E+00 -0.74505805969E-08  0.93827000000E+00  0.93827000000E+00 0.  1.
     999902    2    1    2    0    0 -0.11869438690E-01 -0.98892096064E-02  0.14365890054E-01  0.10228335823E+01  0.10226159975E+01 0.  0.
     999903    2    3    3    0    0 -0.59758905618E-01  0.66448399763E-01  0.98624498677E-01  0.13422773901E+00  0.17429215419E-01 0.  0.
         14    1    1    2    0    0  0.11869438690E-01  0.98892096064E-02 -0.14365890054E-01  0.21096417670E-01  0.00000000000E+00 0. -1.
     999901    1    3    3    0    0  0.47889466928E-01 -0.76337609369E-01 -0.84258608623E-01  0.88860584332E+00  0.88000000000E+00 0.  1.
        -11    1    4    4    0    0 -0.30149225429E-01  0.40138446311E-01  0.44028419382E-01  0.66774497381E-01  0.51100000000E-03 0. -1.
         11    1    4    4    0    0 -0.29609680189E-01  0.26309953451E-01  0.54596079295E-01  0.67453241634E-01  0.51100000000E-03 0.  1.
</event>
<event>
 8    1  0.1199892E+005  0.1043930E+01  0.7957747E-01            NaN
         13   -1    0    0    0    0  0.00000000000E+00  0.00000000000E+00  0.74505805969E-08  0.10566000000E+00  0.10566000000E+00 0. -1.
     999900   -1    0    0    0    0 -0.00000000000E+00 -0.00000000000E+00 -0.74505805969E-08  0.93827000000E+00  0.93827000000E+00 0. -1.
     999902    2    1    2    0    0 -0.36857850827E-02  0.23110987904E-01  0.75444053242E-02  0.10193409613E+01  0.10190443437E+01 0.  0.
     999903    2    3    3    0    0 -0.93777288608E-01  0.67186979366E-01 -0.59169442234E-01  0.13113495506E+00  0.19674437441E-01 0.  0.
         14    1    1    2    0    0  0.36857850827E-02 -0.23110987904E-01 -0.75444053242E-02  0.24589038722E-01  0.00000000000E+00 0.  1.
     999901    1    3    3    0    0  0.90091503525E-01 -0.44075991463E-01  0.66713847558E-01  0.88820600622E+00  0.88000000000E+00 0.  1.
        -11    1    4    4    0    0 -0.49405948610E-01  0.23419027093E-01 -0.28917557038E-01  0.61853737269E-01  0.51100000000E-03 0.  1.
         11    1    4    4    0    0 -0.44371339997E-01  0.43767952273E-01 -0.30251885196E-01  0.69281217789E-01  0.51100000000E-03 0. -1.
</event>
<event>
 8    1  0.1199892E+005  0.1043930E+01  0.7957747E-01            NaN
         13   -1    0    0    0    0  0.00000000000E+00  0.00000000000E+00  0.74505805969E-08  0.10566000000E+00  0.10566000000E+00 0.  1.
     999900   -1    0    0    0    0 -0.00000000000E+00 -0.00000000000E+00 -0.74505805969E-08  0.93827000000E+00  0.93827000000E+00 0. -1.
     999902    2    1    2    0    0 -0.10969195464E-01 -0.17402775018E-01  0.10855062851E-01  0.10206703307E+01  0.10204052684E+01 0.  0.
     999903    2    3    3    0    0 -0.74257391810E-01 -0.10438562524E+00  0.27348287459E-01  0.13396663807E+00  0.28082241604E-01 0.  0.
         14    1    1    2    0    0  0.10969195464E-01  0.17402775018E-01 -0.10855062851E-01  0.23259669322E-01  0.00000000000E+00 0.  1.
     999901    1    3    3    0    0  0.63288196347E-01  0.86982850221E-01 -0.16493224607E-01  0.88670369261E+00  0.88000000000E+00 0. -1.
        -11    1    4    4    0    0 -0.20048850104E-01 -0.16246651124E-01  0.14746703772E-01  0.29726023218E-01  0.51100000000E-03 0.  1.
         11    1    4    4    0    0 -0.54208541706E-01 -0.88138974115E-01  0.12601583687E-01  0.10424061485E+00  0.51100000000E-03 0. -1.
</event>
<event>
 8    1  0.1199892E+005  0.1043930E+01  0.7957747E-01            NaN
         13   -1    0    0    0    0  0.00000000000E+00  0.00000000000E+00  0.74505805969E-08  0.10566000000E+00  0.10566000000E+00 0. -1.
     999900   -1    0    0    0    0 -0.00000000000E+00 -0.00000000000E+00 -0.74505805969E-08  0.93827000000E+00  0.93827000000E+00 0. -1.
     999902    2    1    2    0    0  0.11942024564E-01 -0.23017402108E-01 -0.28503010353E-02  0.10178428965E+01  0.10175085381E+01 0.  0.
     999903    2    3    3    0    0  0.74807346214E-01 -0.27367469925E-01 -0.10093826595E+00  0.13015363751E+00  0.20157340237E-01 0.  0.
         14    1    1    2    0    0 -0.11942024564E-01  0.23017402108E-01  0.28503010353E-02  0.26087103451E-01  0.00000000000E+00 0. -1.
     999901    1    3    3    0    0 -0.62865321650E-01  0.43500678174E-02  0.98087964916E-01  0.88768925904E+00  0.88000000000E+00 0.  1.
        -11    1    4    4    0    0  0.20929293033E-01 -0.12479778196E-02 -0.37176324811E-01  0.42684107148E-01  0.51100000000E-03 0. -1.
         11    1    4    4    0    0  0.53878053180E-01 -0.26119492106E-01 -0.63761941140E-01  0.87469530359E-01  0.51100000000E-03 0.  1.
</event>
<event>
 8    1  0.1199892E+005  0.1043930E+01  0.7957747E-01            NaN
         13   -1    0    0    0    0  0.00000000000E+00  0.00000000000E+00  0.74505805969E-08  0.10566000000E+00  0.10566000000E+00 0.  1.
     999900   -1    0    0    0    0 -0.00000000000E+00 -0.00000000000E+00 -0.74505805969E-08  0.93827000000E+00  0.93827000000E+00 0. -1.
     999902    2    1    2    0    0  0.35421824398E-02 -0.76020216470E-03 -0.24285445921E-01  0.10193758181E+01  0.10190800512E+01 0.  0.
     999903    2    3    3    0    0  0.75708667130E-02 -0.11228208145E+00  0.58750723779E-01  0.12845025146E+00  0.19576407188E-01 0.  0.
         14    1    1    2    0    0 -0.35421824398E-02  0.76020216470E-03  0.24285445921E-01  0.24554181871E-01  0.00000000000E+00 0.  1.
     999901    1    3    3    0    0 -0.40286842732E-02  0.11152187929E+00 -0.83036169700E-01  0.89092556666E+00  0.88000000000E+00 0.  1.
        -11    1    4    4    0    0 -0.54663041662E-02 -0.16324356589E-01  0.11393187431E-01  0.20650204360E-01  0.51100000000E-03 0.  1.
         11    1    4    4    0    0  0.13037170879E-01 -0.95957724865E-01  0.47357536348E-01  0.10780004710E+00  0.51100000000E-03 0. -1.
</event>
<event>
 8    1  0.1199892E+005  0.1043930E+01  0.7957747E-01            NaN
         13   -1    0    0    0    0  0.00000000000E+00  0.00000000000E+00  0.74505805969E-08  0.10566000000E+00  0.10566000000E+00 0. -1.
     999900   -1    0    0    0    0 -0.00000000000E+00 -0.00000000000E+00 -0.74505805969E-08  0.93827000000E+00  0.93827000000E+00 0.  1.
     999902    2    1    2    0    0  0.88554628459E-02 -0.21908460838E-01  0.78423577054E-02  0.10190321597E+01  0.10187279519E+01 0.  0.
     999903    2    3    3    0    0  0.10556110960E+00 -0.68323809116E-01  0.34566654946E-01  0.13211584190E+00  0.21176668650E-01 0.  0.
         14    1    1    2    0    0 -0.88554628459E-02  0.21908460838E-01 -0.78423577054E-02  0.24897840326E-01  0.00000000000E+00 0.  1.
     999901    1    3    3    0    0 -0.96705646753E-01  0.46415348278E-01 -0.26724297241E-01  0.88691631777E+00  0.88000000000E+00 0.  1.
        -11    1    4    4    0    0  0.48708349492E-01 -0.19156146554E-01  0.13606145516E-01  0.54081878461E-01  0.51100000000E-03 0.  1.
         11    1    4    4    0    0  0.56852760106E-01 -0.49167662562E-01  0.20960509431E-01  0.78033963440E-01  0.51100000000E-03 0. -1.
</event>
<event>
 8    1  0.1199892E+005  0.1043930E+01  0.7957747E-01            NaN
         13   -1    0    0    0    0  0.00000000000E+00  0.00000000000E+00  0.74505805969E-08  0.10566000000E+00  0.10566000000E+00 0.  1.
     999900   -1    0    0    0    0 -0.00000000000E+00 -0.00000000000E+00 -0.74505805969E-08  0.93827000000E+00  0.93827000000E+00 0.  1.
     999902    2    1    2    0    0  0.10730151906E-01 -0.14280535792E-01 -0.15149432235E-01  0.10205083186E+01  0.10202395078E+01 0.  0.
     999903    2    3    3    0    0  0.18317070603E-01  0.15169924768E-01 -0.12983479971E+00  0.13254569300E+00  0.12068298242E-01 0.  0.
         14    1    1    2    0    0 -0.10730151906E-01  0.14280535792E-01  0.15149432235E-01  0.23421681397E-01  0.00000000000E+00 0.  1.
     999901    1    3    3    0    0 -0.75869186972E-02 -0.29450460560E-01  0.11468536748E+00  0.88796262561E+00  0.88000000000E+00 0. -1.
        -11    1    4    4    0    0  0.15453521289E-01  0.53698654462E-02 -0.84804019350E-01  0.86369147235E-01  0.51100000000E-03 0. -1.
         11    1    4    4    0    0  0.28635493143E-02  0.98000593221E-02 -0.45030780361E-01  0.46176545760E-01  0.51100000000E-03 0.  1.
</event>
<event>
 8    1  0.1199892E+005  0.1043930E+01  0.7957747E-01            NaN
         13   -1    0    0    0    0  0.00000000000E+00  0.00000000000E+00  0.74505805969E-08  0.10566000000E+00  0.10566000000E+00 0.  1.
     999900   -1    0    0    0    0 -0.00000000000E+00 -0.00000000000E+00 -0.74505805969E-08  0.93827000000E+00  0.93827000000E+00 0. -1.
     999902    2    1    2    0    0 -0.17885158594E-01  0.12587138334E-01  0.82505024210E-02  0.10205551045E+01  0.10202873789E+01 0.  0.
     999903    2    3    3    0    0 -0.11082152742E+00  0.55366361474E-01 -0.43390321609E-01  0.13312397743E+00  0.22190728586E-01 0.  0.
         14    1    1    2    0    0  0.17885158594E-01 -0.12587138334E-01 -0.82505024210E-02  0.23374895498E-01  0.00000000000E+00 0. -1.
     999901    1    3    3    0    0  0.92936368828E-01 -0.42779223140E-01  0.51640824030E-01  0.88743112707E+00  0.88000000000E+00 0.  1.
        -11    1    4    4    0    0 -0.39406326059E-01  0.29822124529E-01 -0.10894187302E-01  0.50607925099E-01  0.51100000000E-03 0.  1.
         11    1    4    4    0    0 -0.71415201363E-01  0.25544236946E-01 -0.32496134308E-01  0.82516052334E-01  0.51100000000E-03 0. -1.
</event>
<event>
 8    1  0.1199892E+005  0.1043930E+01  0.7957747E-01            NaN
         13   -1    0    0    0    0  0.00000000000E+00  0.00000000000E+00  0.74505805969E-08  0.10566000000E+00  0.10566000000E+00 0.  1.
     999900   -1    0    0    0    0 -0.00000000000E+00 -0.00000000000E+00 -0.74505805969E-08  0.93827000000E+00  0.93827000000E+00 0.  1.
     999902    2    1    2    0    0 -0.11273307105E-02 -0.49705663713E-02  0.23077143043E-01  0.10202967197E+01  0.10200229725E+01 0.  0.
     999903    2    3    3    0    0 -0.29777097097E-01 -0.11983976989E+00 -0.36326820470E-01  0.13038404206E+00  0.20787365821E-01 0.  0.
         14    1    1    2    0    0  0.11273307105E-02  0.49705663713E-02 -0.23077143043E-01  0.23633280255E-01  0.00000000000E+00 0. -1.
     999901    1    3    3    0    0  0.28649766387E-01  0.11486920352E+00  0.59403963513E-01  0.88991267769E+00  0.88000000000E+00 0.  1.
        -11    1    4    4    0    0 -0.27600205473E-01 -0.69991798904E-01 -0.19494394808E-01  0.77723328582E-01  0.51100000000E-03 0.  1.
         11    1    4    4    0    0 -0.21768916242E-02 -0.49847970990E-01 -0.16832425662E-01  0.52660713474E-01  0.51100000000E-03 0. -1.
</event>
<event>
 8    1  0.1199892E+005  0.1043930E+01  0.7957747E-01            NaN
         13   -1    0    0    0    0  0.00000000000E+00  0.00000000000E+00  0.74505805969E-08  0.10566000000E+00  0.10566000000E+00 0.  1.
     999900   -1    0    0    0    0 -0.00000000000E+00 -0.00000000000E+00 -0.74505805969E-08  0.93827000000E+00  0.93827000000E+00 0.  1.
     999902    2    1    2    0    0  0.19978478437E-01 -0.23753601635E-02 -0.24175918705E-01  0.10124775441E+01  0.10119888934E+01 0.  0.
     999903    2    3    3    0    0 -0.25165217841E-01  0.67292567495E-01 -0.10063613962E+00  0.12526971116E+00  0.20082084227E-01 0.  0.
         14    1    1    2    0    0 -0.19978478437E-01  0.23753601635E-02  0.24175918705E-01  0.31452455895E-01  0.00000000000E+00 0.  1.
     999901    1    3    3    0    0  0.45143696278E-01 -0.69667927659E-01  0.76460220917E-01  0.88720783295E+00  0.88000000000E+00 0. -1.
        -11    1    4    4    0    0 -0.28084150202E-01  0.54877360688E-01 -0.79871912318E-01  0.10089612335E+00  0.51100000000E-03 0.  1.
         11    1    4    4    0    0  0.29189323611E-02  0.12415206807E-01 -0.20764227304E-01  0.24373587809E-01  0.51100000000E-03 0. -1.
</event>
<event>
 8    1  0.1199892E+005  0.1043930E+01  0.7957747E-01            NaN
         13   -1    0    0    0    0  0.00000000000E+00  0.00000000000E+00  0.74505805969E-08  0.10566000000E+00  0.10566000000E+00 0. -1.
     999900   -1    0    0    0    0 -0.00000000000E+00 -0.00000000000E+00 -0.74505805969E-08  0.93827000000E+00  0.93827000000E+00 0.  1.
     999902    2    1    2    0    0  0.13692123241E-01  0.81509145326E-02  0.18898611453E-01  0.10192101869E+01  0.10189103669E+01 0.  0.
     999903    2    3    3    0    0  0.46538150310E-01  0.93845796275E-01 -0.73770749884E-01  0.12959786412E+00  0.19510252001E-01 0.  0.
         14    1    1    2    0    0 -0.13692123241E-01 -0.81509145326E-02 -0.18898611453E-01  0.24719813134E-01  0.00000000000E+00 0.  1.
     999901    1    3    3    0    0 -0.32846027070E-01 -0.85694881742E-01  0.92669361337E-01  0.88961232275E+00  0.88000000000E+00 0. -1.
        -11    1    4    4    0    0  0.39789860230E-01  0.63915102486E-01 -0.46131162914E-01  0.88299029529E-01  0.51100000000E-03 0. -1.
         11    1    4    4    0    0  0.67482900801E-02  0.29930693788E-01 -0.27639586970E-01  0.41298834590E-01  0.51100000000E-03 0.  1.
</event>
<event>
 8    1  0.1199892E+005  0.1043930E+01  0.7957747E-01            NaN
         13   -1    0    0    0    0  0.00000000000E+00  0.00000000000E+00  0.74505805969E-08  0.10566000000E+00  0.10566000000E+00 0.  1.
     999900   -1    0    0    0    0 -0.00000000000E+00 -0.00000000000E+00 -0.74505805969E-08  0.93827000000E+00  0.93827000000E+00 0.  1.
     999902    2    1    2    0    0 -0.18307265426E-01 -0.97302386450E-02  0.14287261530E-01  0.10187514505E+01  0.10184402577E+01 0.  0.
     999903    2    3    3    0    0  0.13545934450E-01  0.89798295384E-01  0.90056572941E-01  0.12933504412E+00  0.19239051815E-01 0.  0.
         14    1    1    2    0    0  0.18307265426E-01  0.97302386450E-02 -0.14287261530E-01  0.25178549472E-01  0.00000000000E+00 0.  1.
     999901    1    3    3    0    0 -0.31853199875E-01 -0.99528534029E-01 -0.75769311411E-01  0.88941640640E+00  0.88000000000E+00 0.  1.
        -11    1    4    4    0    0  0.11498396079E-01  0.46652829001E-01  0.35474812301E-01  0.59727908007E-01  0.51100000000E-03 0. -1.
         11    1    4    4    0    0  0.20475383708E-02  0.43145466384E-01  0.54581760641E-01  0.69607136118E-01  0.51100000000E-03 0.  1.
</event>
<event>
 8    1  0.1199892E+005  0.1043930E+01  0.7957747E-01            NaN
         13   -1    0    0    0    0  0.00000000000E+00  0.00000000000E+00  0.74505805969E-08  0.10566000000E+00  0.10566000000E+00 0. -1.
     999900   -1    0    0    0    0 -0.00000000000E+00 -0.00000000000E+00 -0.74505805969E-08  0.93827000000E+00  0.93827000000E+00 0.  1.
     999902    2    1    2    0    0 -0.99160556468E-02 -0.11197994121E-01  0.17314603007E-01  0.10210494688E+01  0.10207930735E+01 0.  0.
     999903    2    3    3    0    0 -0.50971507132E-01  0.11763661186E+00 -0.11196453325E-01  0.13026510310E+00  0.20178442183E-01 0.  0.
         14    1    1    2    0    0  0.99160556468E-02  0.11197994121E-01 -0.17314603007E-01  0.22880531227E-01  0.00000000000E+00 0.  1.
     999901    1    3    3    0    0  0.41055451485E-01 -0.12883460598E+00  0.28511056332E-01  0.89078436567E+00  0.88000000000E+00 0.  1.
        -11    1    4    4    0    0 -0.16063004221E-01  0.62090836516E-01 -0.39248313063E-02  0.64256964647E-01  0.51100000000E-03 0.  1.
         11    1    4    4    0    0 -0.34908502910E-01  0.55545775346E-01 -0.72716220187E-02  0.66008138452E-01  0.51100000000E-03 0. -1.
</event>
<event>
 8    1  0.1199892E+005  0.1043930E+01  0.7957747E-01            NaN
         13   -1    0    0    0    0  0.00000000000E+00  0.00000000000E+00  0.74505805969E-08  0.10566000000E+00  0.10566000000E+00 0.  1.
     999900   -1    0    0    0    0 -0.00000000000E+00 -0.00000000000E+00 -0.74505805969E-08  0.93827000000E+00  0.93827000000E+00 0. -1.
     999902    2    1    2    0    0  0.11112298812E-02  0.17938868957E-01 -0.16975106307E-01  0.10192077006E+01  0.10189078197E+01 0.  0.
     999903    2    3    3    0    0  0.57626561000E-01  0.67352174448E-01 -0.96251683442E-01  0.13246059290E+00  0.20598207940E-01 0.  0.
         14    1    1    2    0    0 -0.11112298812E-02 -0.17938868957E-01  0.16975106307E-01  0.24722299356E-01  0.00000000000E+00 0.  1.
     999901    1    3    3    0    0 -0.56515331119E-01 -0.49413305492E-01  0.79276577135E-01  0.88674710774E+00  0.88000000000E+00 0.  1.
        -11    1    4    4    0    0  0.29446030303E-01  0.31967080169E-01 -0.32422429838E-01  0.54225805598E-01  0.51100000000E-03 0. -1.
         11    1    4    4    0    0  0.28180530696E-01  0.35385094279E-01 -0.63829253604E-01  0.78234787302E-01  0.51100000000E-03 0.  1.
</event>
<event>
 8    1  0.1199892E+005  0.1043930E+01  0.7957747E-01            NaN
         13   -1    0    0    0    0  0.00000000000E+00  0.00000000000E+00  0.74505805969E-08  0.10566000000E+00  0.10566000000E+00 0. -1.
     999900   -1    0    0    0    0 -0.00000000000E+00 -0.00000000000E+00 -0.74505805969E-08  0.93827000000E+00  0.93827000000E+00 0.  1.
     999902    2    1    2    0    0  0.23737487698E-01  0.38150507789E-02  0.12626481560E-02  0.10198547593E+01  0.10195705531E+01 0.  0.
     999903    2    3    3    0    0  0.71393406147E-01  0.10168523391E+00  0.40669791396E-01  0.13227232242E+00  0.20125359876E-01 0.  0.
         14    1    1    2    0    0 -0.23737487698E-01 -0.38150507789E-02 -0.12626481560E-02  0.24075240705E-01  0.00000000000E+00 0.  1.
     999901    1    3    3    0    0 -0.47655918449E-01 -0.97870183129E-01 -0.39407143240E-01  0.88758243687E+00  0.88000000000E+00 0.  1.
        -11    1    4    4    0    0  0.55843301716E-01  0.76771572189E-01  0.39649327805E-01  0.10288186895E+00  0.51100000000E-03 0.  1.
         11    1    4    4    0    0  0.15550104431E-01  0.24913661720E-01  0.10204635907E-02  0.29390453468E-01  0.51100000000E-03 0. -1.
</event>
<event>
 8    1  0.1199892E+005  0.1043930E+01  0.7957747E-01            NaN
         13   -1    0    0    0    0  0.00000000000E+00  0.00000000000E+00  0.74505805969E-08  0.10566000000E+00  0.10566000000E+00 0.  1.
     999900   -1    0    0    0    0 -0.00000000000E+00 -0.00000000000E+00 -0.74505805969E-08  0.93827000000E+00  0.93827000000E+00 0. -1.
     999902    2    1    2    0    0 -0.94437132785E-02 -0.20436908770E-01 -0.79861013091E-02  0.10200421626E+01  0.10197624158E+01 0.  0.
     999903    2    3    3    0    0  0.88263894476E-01 -0.52790364513E-01  0.76864690319E-01  0.12998981610E+00  0.20293694038E-01 0.  0.
         14    1    1    2    0    0  0.94437132785E-02  0.20436908770E-01  0.79861013091E-02  0.23887837379E-01  0.00000000000E+00 0. -1.
     999901    1    3    3    0    0 -0.97707607754E-01  0.32353455743E-01 -0.84850791628E-01  0.89005234652E+00  0.88000000000E+00 0. -1.
        -11    1    4    4    0    0  0.68837288474E-01 -0.32422211051E-01  0.62009616869E-01  0.98159185811E-01  0.51100000000E-03 0.  1.
         11    1    4    4    0    0  0.19426606002E-01 -0.20368153462E-01  0.14855073450E-01  0.31830630286E-01  0.51100000000E-03 0. -1.
</event>
<event>
 8    1  0.1199892E+005  0.1043930E+01  0.7957747E-01            NaN
         13   -1    0    0    0    0  0.00000000000E+00  0.00000000000E+00  0.74505805969E-08  0.10566000000E+00  0.10566000000E+00 0. -1.
     999900   -1    0    0    0    0 -0.00000000000E+00 -0.00000000000E+00 -0.74505805969E-08  0.93827000000E+00  0.93827000000E+00 0.  1.
     999902    2    1    2    0    0 -0.14063515293E-01  0.19397659338E-01 -0.18245149936E-02  0.10199012567E+01  0.10196181603E+01 0.  0.
     999903    2    3    3    0    0 -0.45047775753E-01 -0.46936768139E-01 -0.11095205380E+00  0.13014336805E+00  0.19863929683E-01 0.  0.
         14    1    1    2    0    0  0.14063515293E-01 -0.19397659338E-01  0.18245149936E-02  0.24028743312E-01  0.00000000000E+00 0.  1.
     999901    1    3    3    0    0  0.30984260460E-01  0.66334427477E-01  0.10912753880E+00  0.88975788864E+00  0.88000000000E+00 0. -1.
        -11    1    4    4    0    0 -0.27599993503E-01 -0.35470364572E-01 -0.89790360072E-01  0.10041153463E+00  0.51100000000E-03 0. -1.
         11    1    4    4    0    0 -0.17447782250E-01 -0.11466403567E-01 -0.21161693725E-01  0.29731833420E-01  0.51100000000E-03 0.  1.
</event>
<event>
 8    1  0.1199892E+005  0.1043930E+01  0.7957747E-01            NaN
         13   -1    0    0    0    0  0.00000000000E+00  0.00000000000E+00  0.74505805969E-08  0.10566000000E+00  0.10566000000E+00 0. -1.
     999900   -1    0    0    0    0 -0.00000000000E+00 -0.00000000000E+00 -0.74505805969E-08  0.93827000000E+00  0.93827000000E+00 0. -1.
     999902    2    1    2    0    0  0.12871251441E-01  0.14919578323E-01  0.11844406897E-01  0.10209397215E+01  0.10206808326E+01 0.  0.
     999903    2    3    3    0    0 -0.32849634926E-01 -0.11978247550E+00 -0.27724763340E-01  0.12863889667E+00  0.18771342017E-01 0.  0.
         14    1    1    2    0    0 -0.12871251441E-01 -0.14919578323E-01 -0.11844406897E-01  0.22990278505E-01  0.00000000000E+00 0.  1.
     999901    1    3    3    0    0  0.45720886367E-01  0.13470205383E+00  0.39569170237E-01  0.89230082483E+00  0.88000000000E+00 0.  1.
        -11    1    4    4    0    0 -0.13532943046E-01 -0.64846487313E-01 -0.61298371373E-02  0.66528516357E-01  0.51100000000E-03 0. -1.
         11    1    4    4    0    0 -0.19316691881E-01 -0.54935988190E-01 -0.21594926202E-01  0.62110380310E-01  0.51100000000E-03 0.  1.
</event>
<event>
 8    1  0.1199892E+005  0.1043930E+01  0.7957747E-01            NaN
         13   -1    0    0    0    0  0.00000000000E+00  0.00000000000E+00  0.74505805969E-08  0.10566000000E+00  0.10566000000E+00 0. -1.
     999900   -1    0    0    0    0 -0.00000000000E+00 -0.00000000000E+00 -0.74505805969E-08  0.93827000000E+00  0.93827000000E+00 0. -1.
     999902    2    1    2    0    0 -0.13516016164E-01  0.18774428500E-01 -0.55644341944E-02  0.10201366231E+01  0.10198591103E+01 0.  0.
     999903    2    3    3    0    0  0.11980201313E+00  0.44929356069E-01  0.66282231979E-02  0.12962753379E+00  0.19702659418E-01 0.  0.
         14    1    1    2    0    0  0.13516016164E-01 -0.18774428500E-01  0.55644341944E-02  0.23793376943E-01  0.00000000000E+00 0.  1.
     999901    1    3    3    0    0 -0.13331802929E+00 -0.26154927569E-01 -0.12192657392E-01  0.89050908927E+00  0.88000000000E+00 0.  1.
        -11    1    4    4    0    0  0.62675245793E-01  0.13058540018E-01  0.43294424926E-02  0.64169440515E-01  0.51100000000E-03 0. -1.
         11    1    4    4    0    0  0.57126767333E-01  0.31870816051E-01  0.22987807053E-02  0.65458093277E-01  0.51100000000E-03 0.  1.
</event>
<event>
 8    1  0.1199892E+005  0.1043930E+01  0.7957747E-01            NaN
         13   -1    0    0    0    0  0.00000000000E+00  0.00000000000E+00  0.74505805969E-08  0.10566000000E+00  0.10566000000E+00 0. -1.
     999900   -1    0    0    0    0 -0.00000000000E+00 -0.00000000000E+00 -0.74505805969E-08  0.93827000000E+00  0.93827000000E+00 0. -1.
     999902    2    1    2    0    0 -0.89411170032E-02 -0.19288133385E-02 -0.21459072539E-01  0.10206028551E+01  0.10203362349E+01 0.  0.
     999903    2    3    3    0    0 -0.79703385237E-01  0.10120950254E+00  0.13502238001E-01  0.13107089726E+00  0.20031890952E-01 0.  0.
         14    1    1    2    0    0  0.89411170032E-02  0.19288133385E-02  0.21459072539E-01  0.23327144883E-01  0.00000000000E+00 0. -1.
     999901    1    3    3    0    0  0.70762268233E-01 -0.10313831588E+00 -0.34961310540E-01  0.88953195785E+00  0.88000000000E+00 0. -1.
        -11    1    4    4    0    0 -0.76858842317E-01  0.90844056978E-01  0.87815661275E-02  0.11932016324E+00  0.51100000000E-03 0. -1.
         11    1    4    4    0    0 -0.28445429193E-02  0.10365445566E-01  0.47206718734E-02  0.11750734025E-01  0.51100000000E-03 0.  1.
</event>
<event>
 8    1  0.1199892E+005  0.1043930E+01  0.7957747E-01            NaN
         13   -1    0    0    0    0  0.00000000000E+00  0.00000000000E+00  0.74505805969E-08  0.10566000000E+00  0.10566000000E+00 0.  1.
     999900   -1    0    0    0    0 -0.00000000000E+00 -0.00000000000E+00 -0.74505805969E-08  0.93827000000E+00  0.93827000000E+00 0.  1.
     999902    2    1    2    0    0  0.56919877462E-02  0.23181411158E-01 -0.16060820327E-02  0.10200060361E+01  0.10197254325E+01 0.  0.
     999903    2    3    3    0    0 -0.76533939201E-01  0.10579396121E+00  0.64376851941E-03  0.13231746556E+00  0.21393718166E-01 0.  0.
         14    1    1    2    0    0 -0.56919877462E-02 -0.23181411158E-01  0.16060820327E-02  0.23923963871E-01  0.00000000000E+00 0. -1.
     999901    1    3    3    0    0  0.82225926947E-01 -0.82612550051E-01 -0.22498505521E-02  0.88768857057E+00  0.88000000000E+00 0.  1.
        -11    1    4    4    0    0 -0.61812078226E-01  0.79244331075E-01  0.87770508313E-02  0.10088456158E+00  0.51100000000E-03 0.  1.
         11    1    4    4    0    0 -0.14721860975E-01  0.26549630134E-01 -0.81332823119E-02  0.31432903986E-01  0.51100000000E-03 0. -1.
</event>
<event>
 8    1  0.1199892E+005  0.1043930E+01  0.7957747E-01            NaN
         13   -1    0    0    0    0  0.00000000000E+00  0.00000000000E+00  0.74505805969E-08  0.10566000000E+00  0.10566000000E+00 0.  1.
     999900   -1    0    0    0    0 -0.00000000000E+00 -0.00000000000E+00 -0.74505805969E-08  0.93827000000E+00  0.93827000000E+00 0. -1.
     999902    2    1    2    0    0  0.15195031381E-01 -0.15433906792E-01 -0.84659205995E-02  0.10206756183E+01  0.10204106779E+01 0.  0.
     999903    2    3    3    0    0  0.45115818126E-01 -0.87127332881E-01 -0.88590220820E-01  0.13362708279E+00  0.19528462588E-01 0.  0.
         14    1    1    2    0    0 -0.15195031381E-01  0.15433906792E-01  0.84659205995E-02  0.23254381719E-01  0.00000000000E+00 0.  1.
     999901    1    3    3    0    0 -0.29920786745E-01  0.71693426089E-01  0.80124300220E-01  0.88704853549E+00  0.88000000000E+00 0.  1.
        -11    1    4    4    0    0  0.27723575848E-01 -0.36906132230E-01 -0.49249425337E-01  0.67501305699E-01  0.51100000000E-03 0.  1.
         11    1    4    4    0    0  0.17392242278E-01 -0.50221200651E-01 -0.39340795483E-01  0.66125777096E-01  0.51100000000E-03 0. -1.
</event>
<event>
 8    1  0.1199892E+005  0.1043930E+01  0.7957747E-01            NaN
         13   -1    0    0    0    0  0.00000000000E+00  0.00000000000E+00  0.74505805969E-08  0.10566000000E+00  0.10566000000E+00 0.  1.
     999900   -1    0    0    0    0 -0.00000000000E+00 -0.00000000000E+00 -0.74505805969E-08  0.93827000000E+00  0.93827000000E+00 0. -1.
     999902    2    1    2    0    0 -0.19756364079E-01  0.12838573591E-01 -0.58499613230E-02  0.10196531604E+01  0.10193641168E+01 0.  0.
     999903    2    3    3    0    0  0.13999960742E-01 -0.10840111646E+00  0.63329925551E-01  0.12801174780E+00  0.20725036927E-01 0.  0.
         14    1    1    2    0    0  0.19756364079E-01 -0.12838573591E-01  0.58499613230E-02  0.24276839600E-01  0.00000000000E+00 0.  1.
     999901    1    3    3    0    0 -0.33756324821E-01  0.12123969005E+00 -0.69179886874E-01  0.89164141260E+00  0.88000000000E+00 0. -1.
        -11    1    4    4    0    0  0.13628219085E-01 -0.99415182143E-01  0.50505005862E-01  0.11233932319E+00  0.51100000000E-03 0. -1.
         11    1    4    4    0    0  0.37174165727E-03 -0.89859343140E-02  0.12824919689E-01  0.15672424617E-01  0.51100000000E-03 0.  1.
</event>
<event>
 8    1  0.1199892E+005  0.1043930E+01  0.7957747E-01            NaN
         13   -1    0    0    0    0  0.00000000000E+00  0.00000000000E+00  0.74505805969E-08  0.10566000000E+00  0.10566000000E+00 0. -1.
     999900   -1    0    0    0    0 -0.00000000000E+00 -0.00000000000E+00 -0.74505805969E-08  0.93827000000E+00  0.93827000000E+00 0.  1.
     999902    2    1    2    0    0 -0.10405252818E-01 -0.13661944485E-01 -0.14826747600E-01  0.10212418873E+01  0.10209898344E+01 0.  0.
     999903    2    3    3    0    0 -0.94737299143E-01  0.78084749293E-01 -0.44288335119E-01  0.13197402271E+00  0.19578103126E-01 0.  0.
         14    1    1    2    0    0  0.10405252818E-01  0.13661944485E-01  0.14826747600E-01  0.22688112696E-01  0.00000000000E+00 0. -1.
     999901    1    3    3    0    0  0.84332046326E-01 -0.91746693778E-01  0.29461587519E-01  0.88926786459E+00  0.88000000000E+00 0. -1.
        -11    1    4    4    0    0 -0.24922579950E-01  0.30387681715E-01 -0.19413267402E-01  0.43836996517E-01  0.51100000000E-03 0.  1.
         11    1    4    4    0    0 -0.69814719193E-01  0.47697067577E-01 -0.24875067717E-01  0.88137026195E-01  0.51100000000E-03 0. -1.
</event>
<event>
 8    1  0.1199892E+005  0.1043930E+01  0.7957747E-01            NaN
         13   -1    0    0    0    0  0.00000000000E+00  0.00000000000E+00  0.74505805969E-08  0.10566000000E+00  0.10566000000E+00 0.  1.
     999900   -1    0    0    0    0 -0.00000000000E+00 -0.00000000000E+00 -0.74505805969E-08  0.93827000000E+00  0.93827000000E+00 0. -1.
     999902    2    1    2    0    0  0.23707579525E-01 -0.26221711800E-02 -0.83789343426E-03  0.10200631365E+01  0.10197838865E+01 0.  0.
     999903    2    3    3    0    0  0.73847927701E-01 -0.92474101701E-01 -0.55322534683E-01  0.13239427927E+00  0.21510147123E-01 0.  0.
         14    1    1    2    0    0 -0.23707579525E-01  0.26221711800E-02  0.83789343426E-03  0.23866863515E-01  0.00000000000E+00 0. -1.
     999901    1    3    3    0    0 -0.50140348176E-01  0.89851930521E-01  0.54484641249E-01  0.88766885721E+00  0.88000000000E+00 0. -1.
        -11    1    4    4    0    0  0.44340285663E-01 -0.67331878564E-01 -0.29679757282E-01  0.85911535413E-01  0.51100000000E-03 0.  1.
         11    1    4    4    0    0  0.29507642038E-01 -0.25142223136E-01 -0.25642777402E-01  0.46482743860E-01  0.51100000000E-03 0. -1.
</event>
<event>
 8    1  0.1199892E+005  0.1043930E+01  0.7957747E-01            NaN
         13   -1    0    0    0    0  0.00000000000E+00  0.00000000000E+00  0.74505805969E-08  0.10566000000E+00  0.10566000000E+00 0.  1.
     999900   -1    0    0    0    0 -0.00000000000E+00 -0.00000000000E+00 -0.74505805969E-08  0.93827000000E+00  0.93827000000E+00 0. -1.
     999902    2    1    2    0    0  0.64470744308E-02  0.17973305473E-01 -0.16955442500E-01  0.10183939175E+01  0.10180737104E+01 0.  0.
     999903    2    3    3    0    0 -0.71077866095E-01  0.72889485001E-01 -0.79956421848E-01  0.13104109784E+00  0.20342071116E-01 0.  0.
         14    1    1    2    0    0 -0.64470744308E-02 -0.17973305473E-01  0.16955442500E-01  0.25536082486E-01  0.00000000000E+00 0.  1.
     999901    1    3    3    0    0  0.77524940526E-01 -0.54916179528E-01  0.63000979347E-01  0.88735281967E+00  0.88000000000E+00 0.  1.
        -11    1    4    4    0    0 -0.49393919242E-01  0.45023827420E-01 -0.40764450779E-01  0.78287328872E-01  0.51100000000E-03 0.  1.
         11    1    4    4    0    0 -0.21683946853E-01  0.27865657580E-01 -0.39191971068E-01  0.52753768972E-01  0.51100000000E-03 0. -1.
</event>
<event>
 8    1  0.1199892E+005  0.1043930E+01  0.7957747E-01            NaN
         13   -1    0    0    0    0  0.00000000000E+00  0.00000000000E+00  0.74505805969E-08  0.10566000000E+00  0.10566000000E+00 0. -1.
     999900   -1    0    0    0    0 -0.00000000000E+00 -0.00000000000E+00 -0.74505805969E-08  0.93827000000E+00  0.93827000000E+00 0. -1.
     999902    2    1    2    0    0 -0.18162505626E-01 -0.14715210283E-01 -0.21582008012E-02  0.10204550803E+01  0.10201850318E+01 0.  0.
     999903    2    3    3    0    0  0.10495777738E+00 -0.38019403674E-01  0.62529761917E-01  0.12922771198E+00  0.18116852133E-01 0.  0.
         14    1    1    2    0    0  0.18162505626E-01  0.14715210283E-01  0.21582008012E-02  0.23474919702E-01  0.00000000000E+00 0. -1.
     999901    1    3    3    0    0 -0.12312028300E+00  0.23304193390E-01 -0.64687962718E-01  0.89122736832E+00  0.88000000000E+00 0.  1.
        -11    1    4    4    0    0  0.34982063597E-01 -0.21921892035E-01  0.22662955098E-01  0.47097609055E-01  0.51100000000E-03 0. -1.
         11    1    4    4    0    0  0.69975713779E-01 -0.16097511638E-01  0.39866806819E-01  0.82130102927E-01  0.51100000000E-03 0.  1.
</event>
<event>
 8    1  0.1199892E+005  0.1043930E+01  0.7957747E-01            NaN
         13   -1    0    0    0    0  0.00000000000E+00  0.00000000000E+00  0.74505805969E-08  0.10566000000E+00  0.10566000000E+00 0.  1.
     999900   -1    0    0    0    0 -0.00000000000E+00 -0.00000000000E+00 -0.74505805969E-08  0.93827000000E+00  0.93827000000E+00 0. -1.
     999902    2    1    2    0    0 -0.10676559020E-01 -0.34736914112E-02  0.19815826128E-01  0.10211545217E+01  0.10209005019E+01 0.  0.
     999903    2    3    3    0    0  0.68880644090E-01  0.90994556771E-01  0.62244511049E-01  0.13151763414E+00  0.19948845648E-01 0.  0.
         14    1    1    2    0    0  0.10676559020E-01  0.34736914112E-02 -0.19815826128E-01  0.22775478253E-01  0.00000000000E+00 0. -1.
     999901    1    3    3    0    0 -0.79557203110E-01 -0.94468248182E-01 -0.42428684921E-01  0.88963688760E+00  0.88000000000E+00 0. -1.
        -11    1    4    4    0    0  0.67875867574E-01  0.90095883874E-01  0.57608311732E-01  0.12666246639E+00  0.51100000000E-03 0.  1.
         11    1    4    4    0    0  0.10047765158E-02  0.89867289724E-03  0.46361993168E-02  0.48551677548E-02  0.51100000000E-03 0. -1.
</event>
<event>
 8    1  0.1199892E+005  0.1043930E+01  0.7957747E-01            NaN
         13   -1    0    0    0    0  0.00000000000E+00  0.00000000000E+00  0.74505805969E-08  0.10566000000E+00  0.10566000000E+00 0.  1.
     999900   -1    0    0    0    0 -0.00000000000E+00 -0.00000000000E+00 -0.74505805969E-08  0.93827000000E+00  0.93827000000E+00 0.  1.
     999902    2    1    2    0    0 -0.44043482771E-02 -0.17651034892E-01 -0.14338751244E-01  0.10207662977E+01  0.10205034431E+01 0.  0.
     999903    2    3    3    0    0  0.85872614130E-01  0.79068528529E-01 -0.53626579909E-01  0.13000923915E+00  0.20016346595E-01 0.  0.
         14    1    1    2    0    0  0.44043482771E-02  0.17651034892E-01  0.14338751244E-01  0.23163702290E-01  0.00000000000E+00 0.  1.
     999901    1    3    3    0    0 -0.90276962407E-01 -0.96719563421E-01  0.39287828665E-01  0.89075705856E+00  0.88000000000E+00 0. -1.
        -11    1    4    4    0    0  0.66860009629E-01  0.49162476515E-01 -0.37283371341E-01  0.90980881972E-01  0.51100000000E-03 0. -1.
         11    1    4    4    0    0  0.19012604500E-01  0.29906052014E-01 -0.16343208569E-01  0.39028357181E-01  0.51100000000E-03 0.  1.
</event>
<event>
 8    1  0.1199892E+005  0.1043930E+01  0.7957747E-01            NaN
         13   -1    0    0    0    0  0.00000000000E+00  0.00000000000E+00  0.74505805969E-08  0.10566000000E+00  0.10566000000E+00 0. -1.
     999900   -1    0    0    0    0 -0.00000000000E+00 -0.00000000000E+00 -0.74505805969E-08  0.93827000000E+00  0.93827000000E+00 0.  1.
     999902    2    1    2    0    0  0.20983080743E-01  0.32549749548E-02 -0.88242445531E-02  0.10209353956E+01  0.10206764082E+01 0.  0.
     999903    2    3    3    0    0  0.81689077031E-01  0.10186180758E+00  0.14548102551E-01  0.13304193801E+00  0.20966087650E-01 0.  0.
         14    1    1    2    0    0 -0.20983080743E-01 -0.32549749548E-02  0.88242445531E-02  0.22994604397E-01  0.00000000000E+00 0. -1.
     999901    1    3    3    0    0 -0.60705996288E-01 -0.98606832629E-01 -0.23372347104E-01  0.88789345759E+00  0.88000000000E+00 0.  1.
        -11    1    4    4    0    0  0.60746489336E-01  0.88041286172E-01  0.14506371981E-01  0.10794489329E+00  0.51100000000E-03 0. -1.
         11    1    4    4    0    0  0.20942587696E-01  0.13820521411E-01  0.41730569901E-04  0.25097044725E-01  0.51100000000E-03 0.  1.
</event>
<event>
 8    1  0.1199892E+005  0.1043930E+01  0.7957747E-01            NaN
         13   -1    0    0    0    0  0.00000000000E+00  0.00000000000E+00  0.74505805969E-08  0.10566000000E+00  0.10566000000E+00 0. -1.
     999900   -1    0    0    0    0 -0.00000000000E+00 -0.00000000000E+00 -0.74505805969E-08  0.93827000000E+00  0.93827000000E+00 0.  1.
     999902    2    1    2    0    0  0.18859447978E-01 -0.26844147022E-02 -0.10579623382E-03  0.10248801692E+01  0.10247031108E+01 0.  0.
     999903    2    3    3    0    0 -0.96708908086E-01  0.33979238067E-01  0.81743343191E-01  0.13280419151E+00  0.21160756236E-01 0.  0.
         14    1    1    2    0    0 -0.18859447978E-01  0.26844147022E-02  0.10579623382E-03  0.19049830791E-01  0.00000000000E+00 0.  1.
     999901    1    3    3    0    0  0.11556835606E+00 -0.36663652770E-01 -0.81849139425E-01  0.89207597770E+00  0.88000000000E+00 0.  1.
        -11    1    4    4    0    0 -0.46038230059E-01  0.19688411615E-01  0.27156064136E-01  0.56963717569E-01  0.51100000000E-03 0. -1.
         11    1    4    4    0    0 -0.50670678027E-01  0.14290826452E-01  0.54587279055E-01  0.75840473944E-01  0.51100000000E-03 0.  1.
</event>
<event>
 8    1  0.1199892E+005  0.1043930E+01  0.7957747E-01            NaN
         13   -1    0    0    0    0  0.00000000000E+00  0.00000000000E+00  0.74505805969E-08  0.10566000000E+00  0.10566000000E+00 0. -1.
     999900   -1    0    0    0    0 -0.00000000000E+00 -0.00000000000E+00 -0.74505805969E-08  0.93827000000E+00  0.93827000000E+00 0.  1.
     999902    2    1    2    0    0 -0.19148608165E-01 -0.21304398954E-02  0.12564247578E-01  0.10209285156E+01  0.10206693714E+01 0.  0.
     999903    2    3    3    0    0  0.10286946039E+00  0.32748363118E-01 -0.66432566482E-01  0.12832253498E+00  0.19970125837E-01 0.  0.
         14    1    1    2    0    0  0.19148608165E-01  0.21304398954E-02 -0.12564247578E-01  0.23001484431E-01  0.00000000000E+00 0.  1.
     999901    1    3    3    0    0 -0.12201806856E+00 -0.34878803013E-01  0.78996814060E-01  0.89260598059E+00  0.88000000000E+00 0. -1.
        -11    1    4    4    0    0  0.66915900683E-01  0.19230142269E-01 -0.31577640063E-01  0.76452237435E-01  0.51100000000E-03 0.  1.
         11    1    4    4    0    0  0.35953559709E-01  0.13518220849E-01 -0.34854926419E-01  0.51870297544E-01  0.51100000000E-03 0. -1.
</event>
<event>
 8    1  0.1199892E+005  0.1043930E+01  0.7957747E-01            NaN
         13   -1    0    0    0    0  0.00000000000E+00  0.00000000000E+00  0.74505805969E-08  0.10566000000E+00  0.10566000000E+00 0.  1.
     999900   -1    0    0    0    0 -0.00000000000E+00 -0.00000000000E+00 -0.74505805969E-08  0.93827000000E+00  0.93827000000E+00 0.  1.
     999902    2    1    2    0    0 -0.23279196540E-01  0.41238576259E-02 -0.42206418219E-04  0.10202883212E+01  0.10200143771E+01 0.  0.
     999903    2    3    3    0    0 -0.45491731560E-01 -0.12135385380E+00 -0.46565824747E-02  0.13109804619E+00  0.19203085206E-01 0.  0.
         14    1    1    2    0    0  0.23279196540E-01 -0.41238576259E-02  0.42206418219E-04  0.23641678761E-01  0.00000000000E+00 0. -1.
     999901    1    3    3    0    0  0.22212535020E-01  0.12547771143E+00  0.46143760565E-02  0.88919027505E+00  0.88000000000E+00 0.  1.
        -11    1    4    4    0    0 -0.85565720425E-02 -0.43416080867E-01  0.39036569215E-02  0.44426013340E-01  0.51100000000E-03 0.  1.
         11    1    4    4    0    0 -0.36935159517E-01 -0.77937772935E-01 -0.85602393963E-02  0.86672032848E-01  0.51100000000E-03 0. -1.
</event>
<event>
 8    1  0.1199892E+005  0.1043930E+01  0.7957747E-01            NaN
         13   -1    0    0    0    0  0.00000000000E+00  0.00000000000E+00  0.74505805969E-08  0.10566000000E+00  0.10566000000E+00 0. -1.
     999900   -1    0    0    0    0 -0.00000000000E+00 -0.00000000000E+00 -0.74505805969E-08  0.93827000000E+00  0.93827000000E+00 0. -1.
     999902    2    1    2    0    0  0.12939001274E-01  0.19738221712E-01 -0.27665466918E-02  0.10201672365E+01  0.10198904458E+01 0.  0.
     999903    2    3    3    0    0  0.63389296465E-01 -0.10122717881E+00 -0.45554016520E-01  0.12943235560E+00  0.20308166291E-01 0.  0.
         14    1    1    2    0    0 -0.12939001274E-01 -0.19738221712E-01  0.27665466918E-02  0.23762763537E-01  0.00000000000E+00 0.  1.
     999901    1    3    3    0    0 -0.50450295191E-01  0.12096540053E+00  0.42787469829E-01  0.89073488086E+00  0.88000000000E+00 0.  1.
        -11    1    4    4    0    0  0.14170712373E-01 -0.40043030546E-01 -0.12975171867E-01  0.44416996639E-01  0.51100000000E-03 0.  1.
         11    1    4    4    0    0  0.49218584093E-01 -0.61184148269E-01 -0.32578844653E-01  0.85015358962E-01  0.51100000000E-03 0. -1.
</event>
<event>
 8    1  0.1199892E+005  0.1043930E+01  0.7957747E-01            NaN
         13   -1    0    0    0    0  0.00000000000E+00  0.00000000000E+00  0.74505805969E-08  0.10566000000E+00  0.10566000000E+00 0.  1.
     999900   -1    0    0    0    0 -0.00000000000E+00 -0.00000000000E+00 -0.74505805969E-08  0.93827000000E+00  0.93827000000E+00 0.  1.
     999902    2    1    2    0    0 -0.52089525712E-02 -0.22790820246E-01 -0.31624952493E-02  0.10203385598E+01  0.10200657923E+01 0.  0.
     999903    2    3    3    0    0  0.68689536111E-01  0.10567549117E+00 -0.78704827119E-02  0.12793352567E+00  0.20481227653E-01 0.  0.
         14    1    1    2    0    0  0.52089525712E-02  0.22790820246E-01  0.31624952493E-02  0.23591440197E-01  0.00000000000E+00 0.  1.
     999901    1    3    3    0    0 -0.73898488682E-01 -0.12846631142E+00  0.47079874626E-02  0.89240503413E+00  0.88000000000E+00 0. -1.
        -11    1    4    4    0    0  0.11624692865E-01  0.34733704123E-01 -0.13966588204E-02  0.36657543059E-01  0.51100000000E-03 0. -1.
         11    1    4    4    0    0  0.57064843246E-01  0.70941787052E-01 -0.64738238915E-02  0.91275982611E-01  0.51100000000E-03 0.  1.
</event>
<event>
 8    1  0.1199892E+005  0.1043930E+01  0.7957747E-01            NaN
         13   -1    0    0    0    0  0.00000000000E+00  0.00000000000E+00  0.74505805969E-08  0.10566000000E+00  0.10566000000E+00 0. -1.
     999900   -1    0    0    0    0 -0.00000000000E+00 -0.00000000000E+00 -0.74505805969E-08  0.93827000000E+00  0.93827000000E+00 0.  1.
     999902    2    1    2    0    0  0.32770047663E-02 -0.23126093872E-01 -0.15456433164E-02  0.10205217965E+01  0.10202532985E+01 0.  0.
     999903    2    3    3    0    0  0.45715918269E-02 -0.17289467978E-01  0.12794108042E+00  0.13102612266E+00  0.21888344010E-01 0.  0.
         14    1    1    2    0    0 -0.32770047663E-02  0.23126093872E-01  0.15456433164E-02  0.23408203503E-01  0.00000000000E+00 0.  1.
     999901    1    3    3    0    0 -0.12945870606E-02 -0.58366258936E-02 -0.12948672374E+00  0.88949567384E+00  0.88000000000E+00 0.  1.
        -11    1    4    4    0    0 -0.40080662068E-02  0.12944271290E-02  0.57856754565E-01  0.58012113442E-01  0.51100000000E-03 0. -1.
         11    1    4    4    0    0  0.85796580337E-02 -0.18583895107E-01  0.70084325858E-01  0.73014009213E-01  0.51100000000E-03 0.  1.
</event>
<event>
 8    1  0.1199892E+005  0.1043930E+01  0.7957747E-01            NaN
         13   -1    0    0    0    0  0.00000000000E+00  0.00000000000E+00  0.74505805969E-08  0.10566000000E+00  0.10566000000E+00 0. -1.
     999900   -1    0    0    0    0 -0.00000000000E+00 -0.00000000000E+00 -0.74505805969E-08  0.93827000000E+00  0.93827000000E+00 0.  1.
     999902    2    1    2    0    0  0.11456434119E-01  0.14070607415E-01  0.12990784532E-01  0.10216142576E+01  0.10213705004E+01 0.  0.
     999903    2    3    3    0    0 -0.98170582785E-01 -0.31042153401E-01  0.79353370649E-01  0.13118894527E+00  0.17677763281E-01 0.  0.
         14    1    1    2    0    0 -0.11456434119E-01 -0.14070607415E-01 -0.12990784532E-01  0.22315742392E-01  0.00000000000E+00 0.  1.
     999901    1    3    3    0    0  0.10962701690E+00  0.45112760816E-01 -0.66362586117E-01  0.89042531234E+00  0.88000000000E+00 0.  1.
        -11    1    4    4    0    0 -0.80247689227E-01 -0.25741624932E-01  0.72831866797E-01  0.11138700473E+00  0.51100000000E-03 0.  1.
         11    1    4    4    0    0 -0.17922893558E-01 -0.53005284687E-02  0.65215038517E-02  0.19801940537E-01  0.51100000000E-03 0. -1.
</event>
<event>
 8    1  0.1199892E+005  0.1043930E+01  0.7957747E-01            NaN
         13   -1    0    0    0    0  0.00000000000E+00  0.00000000000E+00  0.74505805969E-08  0.10566000000E+00  0.10566000000E+00 0.  1.
     999900   -1    0    0    0    0 -0.00000000000E+00 -0.00000000000E+00 -0.74505805969E-08  0.93827000000E+00  0.93827000000E+00 0.  1.
     999902    2    1    2    0    0  0.23815658898E-02  0.22750258333E-01  0.85692870807E-02  0.10195029905E+01  0.10192103163E+01 0.  0.
     999903    2    3    3    0    0 -0.58773035159E-02 -0.12022739521E+00  0.38433790235E-01  0.12742524343E+00  0.16458042835E-01 0.  0.
         14    1    1    2    0    0 -0.23815658898E-02 -0.22750258333E-01 -0.85692870807E-02  0.24427009465E-01  0.00000000000E+00 0.  1.
     999901    1    3    3    0    0  0.82588694057E-02  0.14297765355E+00 -0.29864503154E-01  0.89207774711E+00  0.88000000000E+00 0.  1.
        -11    1    4    4    0    0 -0.52718855372E-02 -0.58366856379E-01  0.26935738468E-01  0.64500215725E-01  0.51100000000E-03 0. -1.
         11    1    4    4    0    0 -0.60541797868E-03 -0.61860538835E-01  0.11498051766E-01  0.62925027702E-01  0.51100000000E-03 0.  1.
</event>
<event>
 8    1  0.1199892E+005  0.1043930E+01  0.7957747E-01            NaN
         13   -1    0    0    0    0  0.00000000000E+00  0.00000000000E+00  0.74505805969E-08  0.10566000000E+00  0.10566000000E+00 0.  1.
     999900   -1    0    0    0    0 -0.00000000000E+00 -0.00000000000E+00 -0.74505805969E-08  0.93827000000E+00  0.93827000000E+00 0. -1.
     999902    2    1    2    0    0  0.83555705897E-03  0.20370216369E-01 -0.35220889712E-02  0.10232406554E+01  0.10230314706E+01 0.  0.
     999903    2    3    3    0    0  0.71223487552E-01 -0.36721534065E-01 -0.10408432046E+00  0.13288865131E+00  0.20114463420E-01 0.  0.
         14    1    1    2    0    0 -0.83555705897E-03 -0.20370216369E-01  0.35220889712E-02  0.20689344630E-01  0.00000000000E+00 0.  1.
     999901    1    3    3    0    0 -0.70387930493E-01  0.57091750434E-01  0.10056223149E+00  0.89035200406E+00  0.88000000000E+00 0.  1.
        -11    1    4    4    0    0  0.41633904472E-01 -0.29054632845E-01 -0.53293277820E-01  0.73606985220E-01  0.51100000000E-03 0. -1.
         11    1    4    4    0    0  0.29589583080E-01 -0.76669012202E-02 -0.50791042641E-01  0.59281666093E-01  0.51100000000E-03 0.  1.
</event>
<event>
 8    1  0.1199892E+005  0.1043930E+01  0.7957747E-01            NaN
         13   -1    0    0    0    0  0.00000000000E+00  0.00000000000E+00  0.74505805969E-08  0.10566000000E+00  0.10566000000E+00 0. -1.
     999900   -1    0    0    0    0 -0.00000000000E+00 -0.00000000000E+00 -0.74505805969E-08  0.93827000000E+00  0.93827000000E+00 0.  1.
     999902    2    1    2    0    0 -0.14372358233E-01  0.11986218560E-01  0.12706377922E-02  0.10251723712E+01  0.10250007522E+01 0.  0.
     999903    2    3    3    0    0  0.12994898154E+00 -0.16784331731E-01 -0.90255385716E-02  0.13289304001E+00  0.20264455134E-01 0.  0.
         14    1    1    2    0    0  0.14372358233E-01 -0.11986218560E-01 -0.12706377922E-02  0.18757628767E-01  0.00000000000E+00 0. -1.
     999901    1    3    3    0    0 -0.14432133977E+00  0.28770550292E-01  0.10296176364E-01  0.89227933122E+00  0.88000000000E+00 0.  1.
        -11    1    4    4    0    0  0.84915306019E-01 -0.10721459269E-01  0.37989080167E-02  0.85675268942E-01  0.51100000000E-03 0. -1.
         11    1    4    4    0    0  0.45033675522E-01 -0.60628724623E-02 -0.12824446588E-01  0.47217771070E-01  0.51100000000E-03 0.  1.
</event>
<event>
 8    1  0.1199892E+005  0.1043930E+01  0.7957747E-01            NaN
         13   -1    0    0    0    0  0.00000000000E+00  0.00000000000E+00  0.74505805969E-08  0.10566000000E+00  0.10566000000E+00 0.  1.
     999900   -1    0    0    0    0 -0.00000000000E+00 -0.00000000000E+00 -0.74505805969E-08  0.93827000000E+00  0.93827000000E+00 0. -1.
     999902    2    1    2    0    0  0.17617595611E-01  0.16039526217E-01 -0.39076460101E-02  0.10197863513E+01  0.10195005083E+01 0.  0.
     999903    2    3    3    0    0 -0.38611223630E-01  0.11506624008E+00 -0.46118808681E-01  0.13144533994E+00  0.20490648608E-01 0.  0.
         14    1    1    2    0    0 -0.17617595611E-01 -0.16039526217E-01  0.39076460101E-02  0.24143648724E-01  0.00000000000E+00 0. -1.
     999901    1    3    3    0    0  0.56228819242E-01 -0.99026713864E-01  0.42211162671E-01  0.88834101134E+00  0.88000000000E+00 0.  1.
        -11    1    4    4    0    0 -0.25007236491E-01  0.43071106518E-01 -0.19532022987E-01  0.53499935856E-01  0.51100000000E-03 0.  1.
         11    1    4    4    0    0 -0.13603987139E-01  0.71995133563E-01 -0.26586785694E-01  0.77945404081E-01  0.51100000000E-03 0. -1.
</event>
<event>
 8    1  0.1199892E+005  0.1043930E+01  0.7957747E-01            NaN
         13   -1    0    0    0    0  0.00000000000E+00  0.00000000000E+00  0.74505805969E-08  0.10566000000E+00  0.10566000000E+00 0. -1.
     999900   -1    0    0    0    0 -0.00000000000E+00 -0.00000000000E+00 -0.74505805969E-08  0.93827000000E+00  0.93827000000E+00 0.  1.
     999902    2    1    2    0    0 -0.22686498761E-01 -0.51689990895E-02  0.15744649666E-02  0.10206088783E+01  0.10203423973E+01 0.  0.
     999903    2    3    3    0    0 -0.36604804720E-01  0.21770095203E-01  0.12312119626E+00  0.13173709793E+00  0.19544442385E-01 0.  0.
         14    1    1    2    0    0  0.22686498761E-01  0.51689990895E-02 -0.15744649666E-02  0.23321121705E-01  0.00000000000E+00 0. -1.
     999901    1    3    3    0    0  0.13918305958E-01 -0.26939094293E-01 -0.12154673130E+00  0.88887178037E+00  0.88000000000E+00 0.  1.
        -11    1    4    4    0    0 -0.36138677754E-01  0.23969209153E-01  0.10704429717E+00  0.11549575618E+00  0.51100000000E-03 0. -1.
         11    1    4    4    0    0 -0.46612696557E-03 -0.21991139497E-02  0.16076899091E-01  0.16241341752E-01  0.51100000000E-03 0.  1.
</event>
<event>
 8    1  0.1199892E+005  0.1043930E+01  0.7957747E-01            NaN
         13   -1    0    0    0    0  0.00000000000E+00  0.00000000000E+00  0.74505805969E-08  0.10566000000E+00  0.10566000000E+00 0.  1.
     999900   -1    0    0    0    0 -0.00000000000E+00 -0.00000000000E+00 -0.74505805969E-08  0.93827000000E+00  0.93827000000E+00 0. -1.
     999902    2    1    2    0    0  0.91434259772E-02  0.15229218572E-01 -0.14813044181E-01  0.10208008492E+01  0.10205387872E+01 0.  0.
     999903    2    3    3    0    0 -0.88390309402E-01  0.43761748787E-01  0.82035563252E-01  0.12967426588E+00  0.18911481688E-01 0.  0.
         14    1    1    2    0    0 -0.91434259772E-02 -0.15229218572E-01  0.14813044181E-01  0.23129150759E-01  0.00000000000E+00 0.  1.
     999901    1    3    3    0    0  0.97533735379E-01 -0.28532530215E-01 -0.96848607433E-01  0.89112658336E+00  0.88000000000E+00 0. -1.
        -11    1    4    4    0    0 -0.11986853699E-01  0.56177241625E-02  0.20530252053E-01  0.24433498659E-01  0.51100000000E-03 0. -1.
         11    1    4    4    0    0 -0.76403455703E-01  0.38144024624E-01  0.61505311198E-01  0.10524076722E+00  0.51100000000E-03 0.  1.
</event>
<event>
 8    1  0.1199892E+005  0.1043930E+01  0.7957747E-01            NaN
         13   -1    0    0    0    0  0.00000000000E+00  0.00000000000E+00  0.74505805969E-08  0.10566000000E+00  0.10566000000E+00 0. -1.
     999900   -1    0    0    0    0 -0.00000000000E+00 -0.00000000000E+00 -0.74505805969E-08  0.93827000000E+00  0.93827000000E+00 0.  1.
     999902    2    1    2    0    0  0.34025584869E-02  0.59702192107E-02 -0.24044433549E-01  0.10189228869E+01  0.10186159697E+01 0.  0.
     999903    2    3    3    0    0 -0.20487582763E-01  0.63341808589E-01  0.10647867854E+00  0.12712777538E+00  0.19794861083E-01 0.  0.
         14    1    1    2    0    0 -0.34025584869E-02 -0.59702192107E-02  0.24044433549E-01  0.25007113116E-01  0.00000000000E+00 0. -1.
     999901    1    3    3    0    0  0.23890141250E-01 -0.57371589379E-01 -0.13052311209E+00  0.89179511151E+00  0.88000000000E+00 0.  1.
        -11    1    4    4    0    0  0.30316674806E-02  0.15217122008E-01  0.18808043395E-01  0.24387608068E-01  0.51100000000E-03 0. -1.
         11    1    4    4    0    0 -0.23519250243E-01  0.48124686582E-01  0.87670635148E-01  0.10274016731E+00  0.51100000000E-03 0.  1.
</event>
<event>
 8    1  0.1199892E+005  0.1043930E+01  0.7957747E-01            NaN
         13   -1    0    0    0    0  0.00000000000E+00  0.00000000000E+00  0.74505805969E-08  0.10566000000E+00  0.10566000000E+00 0. -1.
     999900   -1    0    0    0    0 -0.00000000000E+00 -0.00000000000E+00 -0.74505805969E-08  0.93827000000E+00  0.93827000000E+00 0. -1.
     999902    2    1    2    0    0 -0.61631483377E-02  0.14693376894E-01 -0.17575167098E-01  0.10202073058E+01  0.10199314588E+01 0.  0.
     999903    2    3    3    0    0  0.51787605931E-01 -0.90001377261E-01  0.71405505447E-01  0.12766215760E+00  0.20412648994E-01 0.  0.
         14    1    1    2    0    0  0.61631483377E-02 -0.14693376894E-01  0.17575167098E-01  0.23722694208E-01  0.00000000000E+00 0. -1.
     999901    1    3    3    0    0 -0.57950754268E-01  0.10469475416E+00 -0.88980672544E-01  0.89254514819E+00  0.88000000000E+00 0.  1.
        -11    1    4    4    0    0  0.47566531341E-01 -0.84618704806E-01  0.71876531347E-01  0.12078657618E+00  0.51100000000E-03 0. -1.
         11    1    4    4    0    0  0.42210745893E-02 -0.53826724554E-02 -0.47102590057E-03  0.68755814190E-02  0.51100000000E-03 0.  1.
</event>
<event>
 8    1  0.1199892E+005  0.1043930E+01  0.7957747E-01            NaN
         13   -1    0    0    0    0  0.00000000000E+00  0.00000000000E+00  0.74505805969E-08  0.10566000000E+00  0.10566000000E+00 0.  1.
     999900   -1    0    0    0    0 -0.00000000000E+00 -0.00000000000E+00 -0.74505805969E-08  0.93827000000E+00  0.93827000000E+00 0.  1.
     999902    2    1    2    0    0 -0.98914951860E-02  0.19772444552E-01  0.82439618198E-02  0.10203343617E+01  0.10200614959E+01 0.  0.
     999903    2    3    3    0    0 -0.66290002663E-01 -0.15598576496E-01 -0.10904130185E+00  0.13006039608E+00  0.19698250618E-01 0.  0.
         14    1    1    2    0    0  0.98914951860E-02 -0.19772444552E-01 -0.82439618198E-02  0.23595638306E-01  0.00000000000E+00 0. -1.
     999901    1    3    3    0    0  0.56398507477E-01  0.35371021048E-01  0.11728526367E+00  0.89027396561E+00  0.88000000000E+00 0. -1.
        -11    1    4    4    0    0 -0.21985067626E-01 -0.76685690875E-02 -0.21844293180E-01  0.31930931961E-01  0.51100000000E-03 0.  1.
         11    1    4    4    0    0 -0.44304935038E-01 -0.79300074087E-02 -0.87197008671E-01  0.98129464119E-01  0.51100000000E-03 0. -1.
</event>
<event>
 8    1  0.1199892E+005  0.1043930E+01  0.7957747E-01            NaN
         13   -1    0    0    0    0  0.00000000000E+00  0.00000000000E+00  0.74505805969E-08  0.10566000000E+00  0.10566000000E+00 0. -1.
     999900   -1    0    0    0    0 -0.00000000000E+00 -0.00000000000E+00 -0.74505805969E-08  0.93827000000E+00  0.93827000000E+00 0. -1.
     999902    2    1    2    0    0  0.83898898796E-02  0.14055128115E-01 -0.21132561637E-01  0.10171994549E+01  0.10168481740E+01 0.  0.
     999903    2    3    3    0    0  0.11984756234E-01  0.11768390559E+00  0.46264822052E-01  0.12855202545E+00  0.19800340168E-01 0.  0.
         14    1    1    2    0    0 -0.83898898796E-02 -0.14055128115E-01  0.21132561637E-01  0.26730545073E-01  0.00000000000E+00 0. -1.
     999901    1    3    3    0    0 -0.35948663542E-02 -0.10362877748E+00 -0.67397383689E-01  0.88864742948E+00  0.88000000000E+00 0. -1.
        -11    1    4    4    0    0 -0.43917909387E-02  0.48603736813E-01  0.21877695781E-01  0.53483696146E-01  0.51100000000E-03 0. -1.
         11    1    4    4    0    0  0.16376547172E-01  0.69080168780E-01  0.24387126271E-01  0.75068329305E-01  0.51100000000E-03 0.  1.
</event>
<event>
 8    1  0.1199892E+005  0.1043930E+01  0.7957747E-01            NaN
         13   -1    0    0    0    0  0.00000000000E+00  0.00000000000E+00  0.74505805969E-08  0.10566000000E+00  0.10566000000E+00 0.  1.
     999900   -1    0    0    0    0 -0.00000000000E+00 -0.00000000000E+00 -0.74505805969E-08  0.93827000000E+00  0.93827000000E+00 0. -1.
     999902    2    1    2    0    0 -0.23435827299E-02 -0.54921307780E-02 -0.22784695637E-01  0.10203758446E+01  0.10201039486E+01 0.  0.
     999903    2    3    3    0    0  0.97629517154E-01  0.75134460569E-01 -0.39743529778E-01  0.13089123543E+00  0.19397359807E-01 0.  0.
         14    1    1    2    0    0  0.23435827299E-02  0.54921307780E-02  0.22784695637E-01  0.23554155383E-01  0.00000000000E+00 0.  1.
     999901    1    3    3    0    0 -0.99973099884E-01 -0.80626591347E-01  0.16958834140E-01  0.88948460919E+00  0.88000000000E+00 0.  1.
        -11    1    4    4    0    0  0.65863312120E-01  0.41566383544E-01 -0.31137338092E-01  0.83878096478E-01  0.51100000000E-03 0.  1.
         11    1    4    4    0    0  0.31766205034E-01  0.33568077025E-01 -0.86061916853E-02  0.47013138948E-01  0.51100000000E-03 0. -1.
</event>
<event>
 8    1  0.1199892E+005  0.1043930E+01  0.7957747E-01            NaN
         13   -1    0    0    0    0  0.00000000000E+00  0.00000000000E+00  0.74505805969E-08  0.10566000000E+00  0.10566000000E+00 0. -1.
     999900   -1    0    0    0    0 -0.00000000000E+00 -0.00000000000E+00 -0.74505805969E-08  0.93827000000E+00  0.93827000000E+00 0.  1.
     999902    2    1    2    0    0  0.19311030868E-01  0.60388942687E-02  0.48405780809E-02  0.10231257852E+01  0.10229142471E+01 0.  0.
     999903    2    3    3    0    0 -0.82251727109E-01 -0.68893536595E-01  0.73416281607E-01  0.13147984083E+00  0.19629878819E-01 0.  0.
         14    1    1    2    0    0 -0.19311030868E-01 -0.60388942687E-02 -0.48405780809E-02  0.20804214797E-01  0.00000000000E+00 0.  1.
     999901    1    3    3    0    0  0.10156275798E+00  0.74932430864E-01 -0.68575703526E-01  0.89164594437E+00  0.88000000000E+00 0. -1.
        -11    1    4    4    0    0 -0.23217025549E-01 -0.14057271537E-01  0.27946282911E-01  0.38960146406E-01  0.51100000000E-03 0.  1.
         11    1    4    4    0    0 -0.59034701560E-01 -0.54836265058E-01  0.45469998696E-01  0.92519694424E-01  0.51100000000E-03 0. -1.
</event>
<event>
 8    1  0.1199892E+005  0.1043930E+01  0.7957747E-01            NaN
         13   -1    0    0    0    0  0.00000000000E+00  0.00000000000E+00  0.74505805969E-08  0.10566000000E+00  0.10566000000E+00 0. -1.
     999900   -1    0    0    0    0 -0.00000000000E+00 -0.00000000000E+00 -0.74505805969E-08  0.93827000000E+00  0.93827000000E+00 0. -1.
     999902    2    1    2    0    0  0.12673897451E-01 -0.16325313853E-01 -0.10905279610E-01  0.10205618877E+01  0.10202943193E+01 0.  0.
     999903    2    3    3    0    0  0.11481514526E+00 -0.61003302205E-01  0.19410415887E-01  0.13301019989E+00  0.20273839513E-01 0.  0.
         14    1    1    2    0    0 -0.12673897451E-01  0.16325313853E-01  0.10905279610E-01  0.23368112298E-01  0.00000000000E+00 0. -1.
     999901    1    3    3    0    0 -0.10214124781E+00  0.44677988352E-01 -0.30315695497E-01  0.88755168781E+00  0.88000000000E+00 0. -1.
        -11    1    4    4    0    0  0.81601708573E-02  0.81512833969E-03  0.24393637549E-02  0.85711398985E-02  0.51100000000E-03 0.  1.
         11    1    4    4    0    0  0.10665497440E+00 -0.61818430545E-01  0.16971052132E-01  0.12443905999E+00  0.51100000000E-03 0. -1.
</event>
<event>
 8    1  0.1199892E+005  0.1043930E+01  0.7957747E-01            NaN
         13   -1    0    0    0    0  0.00000000000E+00  0.00000000000E+00  0.74505805969E-08  0.10566000000E+00  0.10566000000E+00 0. -1.
     999900   -1    0    0    0    0 -0.00000000000E+00 -0.00000000000E+00 -0.74505805969E-08  0.93827000000E+00  0.93827000000E+00 0. -1.
     999902    2    1    2    0    0  0.22956947093E-01 -0.70575118525E-02 -0.77370959520E-03  0.10199002576E+01  0.10196171374E+01 0.  0.
     999903    2    3    3    0    0 -0.93762373691E-01  0.59987203755E-01 -0.59027129786E-01  0.12776133641E+00  0.21187489136E-01 0.  0.
         14    1    1    2    0    0 -0.22956947093E-01  0.70575118525E-02  0.77370959520E-03  0.24029742402E-01  0.00000000000E+00 0.  1.
     999901    1    3    3    0    0  0.11671932078E+00 -0.67044715608E-01  0.58253420191E-01  0.89213892119E+00  0.88000000000E+00 0.  1.
        -11    1    4    4    0    0 -0.24722629077E-01  0.12596751549E-01 -0.52618391504E-02  0.28245966266E-01  0.51100000000E-03 0.  1.
         11    1    4    4    0    0 -0.69039744613E-01  0.47390452206E-01 -0.53765290636E-01  0.99515370143E-01  0.51100000000E-03 0. -1.
</event>
<event>
 8    1  0.1199892E+005  0.1043930E+01  0.7957747E-01            NaN
         13   -1    0    0    0    0  0.00000000000E+00  0.00000000000E+00  0.74505805969E-08  0.10566000000E+00  0.10566000000E+00 0. -1.
     999900   -1    0    0    0    0 -0.00000000000E+00 -0.00000000000E+00 -0.74505805969E-08  0.93827000000E+00  0.93827000000E+00 0.  1.
     999902    2    1    2    0    0  0.16169304992E-01 -0.11312771747E-01 -0.12497148345E-01  0.10205718334E+01  0.10203044954E+01 0.  0.
     999903    2    3    3    0    0 -0.11288812707E+00 -0.47630693523E-01 -0.38687700209E-01  0.13003224576E+00  0.19980855577E-01 0.  0.
         14    1    1    2    0    0 -0.16169304992E-01  0.11312771747E-01  0.12497148345E-01  0.23358166565E-01  0.00000000000E+00 0. -1.
     999901    1    3    3    0    0  0.12905743207E+00  0.36317921776E-01  0.26190551864E-01  0.89053958768E+00  0.88000000000E+00 0. -1.
        -11    1    4    4    0    0 -0.75438186253E-01 -0.24580162697E-01 -0.17657618157E-01  0.81284420053E-01  0.51100000000E-03 0. -1.
         11    1    4    4    0    0 -0.37449940821E-01 -0.23050530826E-01 -0.21030082051E-01  0.48747825705E-01  0.51100000000E-03 0.  1.
</event>
<event>
 8    1  0.1199892E+005  0.1043930E+01  0.7957747E-01            NaN
         13   -1    0    0    0    0  0.00000000000E+00  0.00000000000E+00  0.74505805969E-08  0.10566000000E+00  0.10566000000E+00 0. -1.
     999900   -1    0    0    0    0 -0.00000000000E+00 -0.00000000000E+00 -0.74505805969E-08  0.93827000000E+00  0.93827000000E+00 0. -1.
     999902    2    1    2    0    0  0.20240245592E-01 -0.11503092231E-01 -0.16861255711E-02  0.10205883700E+01  0.10203214147E+01 0.  0.
     999903    2    3    3    0    0  0.62533090609E-01  0.11296851040E+00  0.71040863529E-03  0.13082008106E+00  0.21002789452E-01 0.  0.
         14    1    1    2    0    0 -0.20240245592E-01  0.11503092231E-01  0.16861255711E-02  0.23341630019E-01  0.00000000000E+00 0.  1.
     999901    1    3    3    0    0 -0.42292845017E-01 -0.12447160263E+00 -0.23965342064E-02  0.88976828893E+00  0.88000000000E+00 0. -1.
        -11    1    4    4    0    0  0.27781967989E-01  0.58790776631E-01 -0.92692876648E-02  0.65683894350E-01  0.51100000000E-03 0.  1.
         11    1    4    4    0    0  0.34751122620E-01  0.54177733766E-01  0.99796963001E-02  0.65136186706E-01  0.51100000000E-03 0. -1.
</event>
<event>
 8    1  0.1199892E+005  0.1043930E+01  0.7957747E-01            NaN
         13   -1    0    0    0    0  0.00000000000E+00  0.00000000000E+00  0.74505805969E-08  0.10566000000E+00  0.10566000000E+00 0. -1.
     999900   -1    0    0    0    0 -0.00000000000E+00 -0.00000000000E+00 -0.74505805969E-08  0.93827000000E+00  0.93827000000E+00 0.  1.
     999902    2    1    2    0    0 -0.15617114555E-01 -0.18068636589E-01  0.16219692573E-02  0.10199925674E+01  0.10197116440E+01 0.  0.
     999903    2    3    3    0    0 -0.59384661674E-01 -0.52062313442E-01  0.10427419445E+00  0.13229405575E+00  0.19788558190E-01 0.  0.
         14    1    1    2    0    0  0.15617114555E-01  0.18068636589E-01 -0.16219692573E-02  0.23937432600E-01  0.00000000000E+00 0. -1.
     999901    1    3    3    0    0  0.43767547119E-01  0.33993676854E-01 -0.10265222520E+00  0.88769851165E+00  0.88000000000E+00 0.  1.
        -11    1    4    4    0    0 -0.50940099818E-01 -0.42571690033E-01  0.73760883111E-01  0.99237954232E-01  0.51100000000E-03 0. -1.
         11    1    4    4    0    0 -0.84445618556E-02 -0.94906234092E-02  0.30513311342E-01  0.33056101519E-01  0.51100000000E-03 0.  1.
</event>
<event>
 8    1  0.1199892E+005  0.1043930E+01  0.7957747E-01            NaN
         13   -1    0    0    0    0  0.00000000000E+00  0.00000000000E+00  0.74505805969E-08  0.10566000000E+00  0.10566000000E+00 0. -1.
     999900   -1    0    0    0    0 -0.00000000000E+00 -0.00000000000E+00 -0.74505805969E-08  0.93827000000E+00  0.93827000000E+00 0.  1.
     999902    2    1    2    0    0  0.21839630731E-01 -0.47463168924E-02 -0.98758862552E-02  0.10194958001E+01  0.10192029515E+01 0.  0.
     999903    2    3    3    0    0  0.13395765528E-01  0.92535097831E-01 -0.88791396396E-01  0.13058487643E+00  0.20647203540E-01 0.  0.
         14    1    1    2    0    0 -0.21839630731E-01  0.47463168924E-02  0.98758862552E-02  0.24434199881E-01  0.00000000000E+00 0. -1.
     999901    1    3    3    0    0  0.84438652028E-02 -0.97281414723E-01  0.78915510141E-01  0.88891092369E+00  0.88000000000E+00 0. -1.
        -11    1    4    4    0    0  0.17175804148E-01  0.76320147195E-01 -0.65984223462E-01  0.10234232743E+00  0.51100000000E-03 0.  1.
         11    1    4    4    0    0 -0.37800386205E-02  0.16214950635E-01 -0.22807172935E-01  0.28242549006E-01  0.51100000000E-03 0. -1.
</event>
<event>
 8    1  0.1199892E+005  0.1043930E+01  0.7957747E-01            NaN
         13   -1    0    0    0    0  0.00000000000E+00  0.00000000000E+00  0.74505805969E-08  0.10566000000E+00  0.10566000000E+00 0.  1.
     999900   -1    0    0    0    0 -0.00000000000E+00 -0.00000000000E+00 -0.74505805969E-08  0.93827000000E+00  0.93827000000E+00 0. -1.
     999902    2    1    2    0    0  0.11963952307E-01  0.20125401824E-01  0.86654546834E-03  0.10205009826E+01  0.10202320014E+01 0.  0.
     999903    2    3    3    0    0  0.46451847096E-02 -0.12659177248E+00 -0.46534414223E-02  0.12830707779E+00  0.19849360012E-01 0.  0.
         14    1    1    2    0    0 -0.11963952307E-01 -0.20125401824E-01 -0.86654546834E-03  0.23429017359E-01  0.00000000000E+00 0.  1.
     999901    1    3    3    0    0  0.73187675979E-02  0.14671717431E+00  0.55199868906E-02  0.89219390485E+00  0.88000000000E+00 0. -1.
        -11    1    4    4    0    0 -0.51731911981E-02 -0.94438414799E-01 -0.43882153430E-02  0.94683122317E-01  0.51100000000E-03 0.  1.
         11    1    4    4    0    0  0.98183759077E-02 -0.32153357684E-01 -0.26522607927E-03  0.33623955474E-01  0.51100000000E-03 0. -1.
</event>
<event>
 8    1  0.1199892E+005  0.1043930E+01  0.7957747E-01            NaN
         13   -1    0    0    0    0  0.00000000000E+00  0.00000000000E+00  0.74505805969E-08  0.10566000000E+00  0.10566000000E+00 0.  1.
     999900   -1    0    0    0    0 -0.00000000000E+00 -0.00000000000E+00 -0.74505805969E-08  0.93827000000E+00  0.93827000000E+00 0.  1.
     999902    2    1    2    0    0  0.32763538633E-02  0.21644334772E-01 -0.58223025614E-02  0.10212780480E+01  0.10210268069E+01 0.  0.
     999903    2    3    3    0    0 -0.32979201622E-01  0.46661360283E-01 -0.11835108962E+00  0.13301961444E+00  0.20550599244E-01 0.  0.
         14    1    1    2    0    0 -0.32763538633E-02 -0.21644334772E-01  0.58223025614E-02  0.22651952002E-01  0.00000000000E+00 0. -1.
     999901    1    3    3    0    0  0.36255555486E-01 -0.25017025511E-01  0.11252878706E+00  0.88825843356E+00  0.88000000000E+00 0. -1.
        -11    1    4    4    0    0 -0.52703045239E-02  0.24770024667E-01 -0.52740601121E-01  0.58507797424E-01  0.51100000000E-03 0. -1.
         11    1    4    4    0    0 -0.27708897098E-01  0.21891335617E-01 -0.65610488496E-01  0.74511817017E-01  0.51100000000E-03 0.  1.
</event>
<event>
 8    1  0.1199892E+005  0.1043930E+01  0.7957747E-01            NaN
         13   -1    0    0    0    0  0.00000000000E+00  0.00000000000E+00  0.74505805969E-08  0.10566000000E+00  0.10566000000E+00 0. -1.
     999900   -1    0    0    0    0 -0.00000000000E+00 -0.00000000000E+00 -0.74505805969E-08  0.93827000000E+00  0.93827000000E+00 0. -1.
     999902    2    1    2    0    0  0.62008475361E-02 -0.11053600583E-02  0.23051724028E-01  0.10200332573E+01  0.10197532994E+01 0.  0.
     999903    2    3    3    0    0 -0.89741889965E-01 -0.80235388543E-02  0.94415257243E-01  0.13191973756E+00  0.19250775742E-01 0.  0.
         14    1    1    2    0    0 -0.62008475361E-02  0.11053600583E-02 -0.23051724028E-01  0.23896742700E-01  0.00000000000E+00 0.  1.
     999901    1    3    3    0    0  0.95942737501E-01  0.69181787960E-02 -0.71363533215E-01  0.88811351974E+00  0.88000000000E+00 0. -1.
        -11    1    4    4    0    0 -0.25008025964E-01  0.16051274752E-02  0.15808596816E-01  0.29633606785E-01  0.51100000000E-03 0. -1.
         11    1    4    4    0    0 -0.64733864001E-01 -0.96286663295E-02  0.78606660427E-01  0.10228613077E+00  0.51100000000E-03 0.  1.
</event>
<event>
 8    1  0.1199892E+005  0.1043930E+01  0.7957747E-01            NaN
         13   -1    0    0    0    0  0.00000000000E+00  0.00000000000E+00  0.74505805969E-08  0.10566000000E+00  0.10566000000E+00 0. -1.
     999900   -1    0    0    0    0 -0.00000000000E+00 -0.00000000000E+00 -0.74505805969E-08  0.93827000000E+00  0.93827000000E+00 0. -1.
     999902    2    1    2    0    0  0.12640840060E-01  0.16825059888E-01  0.10724438458E-01  0.10203103671E+01  0.10200369396E+01 0.  0.
     999903    2    3    3    0    0 -0.61244374927E-01 -0.87208216999E-01  0.70200487000E-01  0.12912051750E+00  0.19693986200E-01 0.  0.
         14    1    1    2    0    0 -0.12640840060E-01 -0.16825059888E-01 -0.10724438458E-01  0.23619632891E-01  0.00000000000E+00 0.  1.
     999901    1    3    3    0    0  0.73885214988E-01  0.10403327689E+00 -0.59476048541E-01  0.89118984961E+00  0.88000000000E+00 0. -1.
        -11    1    4    4    0    0 -0.17501951547E-01 -0.11801606965E-01  0.15653388013E-01  0.26284708714E-01  0.51100000000E-03 0. -1.
         11    1    4    4    0    0 -0.43742423380E-01 -0.75406610034E-01  0.54547098987E-01  0.10283580879E+00  0.51100000000E-03 0.  1.
</event>
<event>
 8    1  0.1199892E+005  0.1043930E+01  0.7957747E-01            NaN
         13   -1    0    0    0    0  0.00000000000E+00  0.00000000000E+00  0.74505805969E-08  0.10566000000E+00  0.10566000000E+00 0. -1.
     999900   -1    0    0    0    0 -0.00000000000E+00 -0.00000000000E+00 -0.74505805969E-08  0.93827000000E+00  0.93827000000E+00 0. -1.
     999902    2    1    2    0    0 -0.12199893919E-01 -0.10544404849E-01  0.56429308268E-02  0.10268459562E+01  0.10267038293E+01 0.  0.
     999903    2    3    3    0    0 -0.90510553290E-01  0.10015050365E+00  0.17003616632E-02  0.13645196136E+00  0.19848498468E-01 0.  0.
         14    1    1    2    0    0  0.12199893919E-01  0.10544404849E-01 -0.56429308268E-02  0.17084043830E-01  0.00000000000E+00 0.  1.
     999901    1    3    3    0    0  0.78310659371E-01 -0.11069490850E+00  0.39425691636E-02  0.89039399481E+00  0.88000000000E+00 0.  1.
        -11    1    4    4    0    0 -0.16393703853E-01  0.90973813389E-02 -0.27777031859E-02  0.18960290853E-01  0.51100000000E-03 0.  1.
         11    1    4    4    0    0 -0.74116849437E-01  0.91053122311E-01  0.44780648491E-02  0.11749167051E+00  0.51100000000E-03 0. -1.
</event>
<event>
 8    1  0.1199892E+005  0.1043930E+01  0.7957747E-01            NaN
         13   -1    0    0    0    0  0.00000000000E+00  0.00000000000E+00  0.74505805969E-08  0.10566000000E+00  0.10566000000E+00 0.  1.
     999900   -1    0    0    0    0 -0.00000000000E+00 -0.00000000000E+00 -0.74505805969E-08  0.93827000000E+00  0.93827000000E+00 0. -1.
     999902    2    1    2    0    0  0.20619241497E-01  0.72160952180E-02  0.87183511886E-02  0.10204090562E+01  0.10201379354E+01 0.  0.
     999903    2    3    3    0    0  0.66793205660E-01  0.24138753949E-01 -0.10856449195E+00  0.13126695471E+00  0.20018809179E-01 0.  0.
         14    1    1    2    0    0 -0.20619241497E-01 -0.72160952180E-02 -0.87183511886E-02  0.23520943806E-01  0.00000000000E+00 0. -1.
     999901    1    3    3    0    0 -0.46173964164E-01 -0.16922658731E-01  0.11728284314E+00  0.88914210149E+00  0.88000000000E+00 0.  1.
        -11    1    4    4    0    0  0.39348318971E-01  0.23949378890E-01 -0.73373193632E-01  0.86635729464E-01  0.51100000000E-03 0.  1.
         11    1    4    4    0    0  0.27444886689E-01  0.18937505958E-03 -0.35191298316E-01  0.44631225241E-01  0.51100000000E-03 0. -1.
</event>
<event>
 8    1  0.1199892E+005  0.1043930E+01  0.7957747E-01            NaN
         13   -1    0    0    0    0  0.00000000000E+00  0.00000000000E+00  0.74505805969E-08  0.10566000000E+00  0.10566000000E+00 0. -1.
     999900   -1    0    0    0    0 -0.00000000000E+00 -0.00000000000E+00 -0.74505805969E-08  0.93827000000E+00  0.93827000000E+00 0.  1.
     999902    2    1    2    0    0 -0.89085767525E-02 -0.19693825375E-01  0.11472025563E-01  0.10194592651E+01  0.10191655294E+01 0.  0.
     999903    2    3    3    0    0  0.10322523416E+00 -0.60102146777E-01  0.49946929106E-01  0.13059080337E+00  0.17074694273E-01 0.  0.
         14    1    1    2    0    0  0.89085767525E-02  0.19693825375E-01 -0.11472025563E-01  0.24470734933E-01  0.00000000000E+00 0.  1.
     999901    1    3    3    0    0 -0.11213381091E+00  0.40408321402E-01 -0.38474903543E-01  0.88886846169E+00  0.88000000000E+00 0.  1.
        -11    1    4    4    0    0  0.73059613002E-01 -0.48651692549E-01  0.30561718546E-01  0.92946081151E-01  0.51100000000E-03 0. -1.
         11    1    4    4    0    0  0.30165621157E-01 -0.11450454228E-01  0.19385210560E-01  0.37644722224E-01  0.51100000000E-03 0.  1.
</event>
<event>
 8    1  0.1199892E+005  0.1043930E+01  0.7957747E-01            NaN
         13   -1    0    0    0    0  0.00000000000E+00  0.00000000000E+00  0.74505805969E-08  0.10566000000E+00  0.10566000000E+00 0. -1.
     999900   -1    0    0    0    0 -0.00000000000E+00 -0.00000000000E+00 -0.74505805969E-08  0.93827000000E+00  0.93827000000E+00 0. -1.
     999902    2    1    2    0    0  0.26174847164E-01 -0.12469921597E-02 -0.13368514114E-02  0.10176913875E+01  0.10173530830E+01 0.  0.
     999903    2    3    3    0    0  0.76384730704E-01  0.10322840902E+00  0.46278281170E-02  0.13007000468E+00  0.20150876228E-01 0.  0.
         14    1    1    2    0    0 -0.26174847164E-01  0.12469921597E-02  0.13368514114E-02  0.26238612486E-01  0.00000000000E+00 0. -1.
     999901    1    3    3    0    0 -0.50209883540E-01 -0.10447540117E+00 -0.59646795284E-02  0.88762138283E+00  0.88000000000E+00 0.  1.
        -11    1    4    4    0    0  0.29446021378E-01  0.52410140268E-01 -0.45170573651E-02  0.60287278145E-01  0.51100000000E-03 0.  1.
         11    1    4    4    0    0  0.46938709326E-01  0.50818268747E-01  0.91448854821E-02  0.69782726539E-01  0.51100000000E-03 0. -1.
</event>
<event>
 8    1  0.1199892E+005  0.1043930E+01  0.7957747E-01            NaN
         13   -1    0    0    0    0  0.00000000000E+00  0.00000000000E+00  0.74505805969E-08  0.10566000000E+00  0.10566000000E+00 0.  1.
     999900   -1    0    0    0    0 -0.00000000000E+00 -0.00000000000E+00 -0.74505805969E-08  0.93827000000E+00  0.93827000000E+00 0. -1.
     999902    2    1    2    0    0 -0.15198550836E-01  0.13000091836E-01 -0.11996415825E-01  0.10206080720E+01  0.10203415723E+01 0.  0.
     999903    2    3    3    0    0 -0.13903941594E-01 -0.12556024556E+00  0.18562240070E-01  0.12924143887E+00  0.20002447560E-01 0.  0.
         14    1    1    2    0    0  0.15198550836E-01 -0.13000091836E-01  0.11996415825E-01  0.23321928049E-01  0.00000000000E+00 0.  1.
     999901    1    3    3    0    0 -0.12946092426E-02  0.13856033740E+00 -0.30558655895E-01  0.89136663308E+00  0.88000000000E+00 0. -1.
        -11    1    4    4    0    0  0.31804659517E-02 -0.61024518802E-01  0.10298472344E-01  0.61971178077E-01  0.51100000000E-03 0. -1.
         11    1    4    4    0    0 -0.17084407546E-01 -0.64535726760E-01  0.82637677268E-02  0.67270260797E-01  0.51100000000E-03 0.  1.
</event>
<event>
 8    1  0.1199892E+005  0.1043930E+01  0.7957747E-01            NaN
         13   -1    0    0    0    0  0.00000000000E+00  0.00000000000E+00  0.74505805969E-08  0.10566000000E+00  0.10566000000E+00 0. -1.
     999900   -1    0    0    0    0 -0.00000000000E+00 -0.00000000000E+00 -0.74505805969E-08  0.93827000000E+00  0.93827000000E+00 0. -1.
     999902    2    1    2    0    0 -0.61906302291E-02  0.15751499535E-01  0.13005381327E-01  0.10225858302E+01  0.10223630503E+01 0.  0.
     999903    2    3    3    0    0 -0.11226811975E+00 -0.43334299485E-01  0.53529990850E-01  0.13332444603E+00  0.20687091729E-01 0.  0.
         14    1    1    2    0    0  0.61906302291E-02 -0.15751499535E-01 -0.13005381327E-01  0.21344169783E-01  0.00000000000E+00 0.  1.
     999901    1    3    3    0    0  0.10607748952E+00  0.59085799021E-01 -0.40524609523E-01  0.88926138419E+00  0.88000000000E+00 0. -1.
        -11    1    4    4    0    0 -0.10457281342E+00 -0.35544057447E-01  0.52564851139E-01  0.12231998211E+00  0.51100000000E-03 0.  1.
         11    1    4    4    0    0 -0.76953063300E-02 -0.77902420379E-02  0.96513971042E-03  0.11004463921E-01  0.51100000000E-03 0. -1.
</event>
<event>
 8    1  0.1199892E+005  0.1043930E+01  0.7957747E-01            NaN
         13   -1    0    0    0    0  0.00000000000E+00  0.00000000000E+00  0.74505805969E-08  0.10566000000E+00  0.10566000000E+00 0.  1.
     999900   -1    0    0    0    0 -0.00000000000E+00 -0.00000000000E+00 -0.74505805969E-08  0.93827000000E+00  0.93827000000E+00 0.  1.
     999902    2    1    2    0    0  0.52876303672E-02 -0.31115259884E-02  0.23332667104E-01  0.10198042050E+01  0.10195187897E+01 0.  0.
     999903    2    3    3    0    0 -0.94573767397E-01 -0.85948431777E-01  0.14365356980E-01  0.13024551423E+00  0.20644614092E-01 0.  0.
         14    1    1    2    0    0 -0.52876303672E-02  0.31115259884E-02 -0.23332667104E-01  0.24125794972E-01  0.00000000000E+00 0. -1.
     999901    1    3    3    0    0  0.99861397765E-01  0.82836905789E-01  0.89673101242E-02  0.88955869080E+00  0.88000000000E+00 0. -1.
        -11    1    4    4    0    0 -0.11127810024E-01 -0.85254586919E-02 -0.47692318109E-02  0.14816149800E-01  0.51100000000E-03 0. -1.
         11    1    4    4    0    0 -0.83445957374E-01 -0.77422973085E-01  0.19134588791E-01  0.11542936443E+00  0.51100000000E-03 0.  1.
</event>
<event>
 8    1  0.1199892E+005  0.1043930E+01  0.7957747E-01            NaN
         13   -1    0    0    0    0  0.00000000000E+00  0.00000000000E+00  0.74505805969E-08  0.10566000000E+00  0.10566000000E+00 0.  1.
     999900   -1    0    0    0    0 -0.00000000000E+00 -0.00000000000E+00 -0.74505805969E-08  0.93827000000E+00  0.93827000000E+00 0.  1.
     999902    2    1    2    0    0  0.51326982094E-02 -0.22060386541E-02  0.23019731221E-01  0.10202420448E+01  0.10199670145E+01 0.  0.
     999903    2    3    3    0    0  0.77814525536E-01 -0.19254785863E-01  0.10466189701E+00  0.13331546887E+00  0.19825599377E-01 0.  0.
         14    1    1    2    0    0 -0.51326982094E-02  0.22060386541E-02 -0.23019731221E-01  0.23687955229E-01  0.00000000000E+00 0. -1.
     999901    1    3    3    0    0 -0.72681827327E-01  0.17048747208E-01 -0.81642165791E-01  0.88692657590E+00  0.88000000000E+00 0. -1.
        -11    1    4    4    0    0  0.18035253181E-01 -0.13448599368E-01  0.27578820943E-01  0.35594770232E-01  0.51100000000E-03 0.  1.
         11    1    4    4    0    0  0.59779272355E-01 -0.58061864949E-02  0.77083076069E-01  0.97720698637E-01  0.51100000000E-03 0. -1.
</event>
<event>
 8    1  0.1199892E+005  0.1043930E+01  0.7957747E-01            NaN
         13   -1    0    0    0    0  0.00000000000E+00  0.00000000000E+00  0.74505805969E-08  0.10566000000E+00  0.10566000000E+00 0.  1.
     999900   -1    0    0    0    0 -0.00000000000E+00 -0.00000000000E+00 -0.74505805969E-08  0.93827000000E+00  0.93827000000E+00 0.  1.
     999902    2    1    2    0    0  0.18120590678E-01  0.12821202652E-01  0.79974206981E-02  0.10203355561E+01  0.10200627183E+01 0.  0.
     999903    2    3    3    0    0  0.91163111228E-01  0.72532581183E-01 -0.60605157056E-01  0.13263798814E+00  0.18659117177E-01 0.  0.
         14    1    1    2    0    0 -0.18120590678E-01 -0.12821202652E-01 -0.79974206981E-02  0.23594443875E-01  0.00000000000E+00 0.  1.
     999901    1    3    3    0    0 -0.73042520550E-01 -0.59711378531E-01  0.68602577754E-01  0.88769756799E+00  0.88000000000E+00 0.  1.
        -11    1    4    4    0    0  0.45646204974E-01  0.46020282415E-01 -0.39377968707E-01  0.75844103018E-01  0.51100000000E-03 0. -1.
         11    1    4    4    0    0  0.45516906254E-01  0.26512298768E-01 -0.21227188349E-01  0.56793885120E-01  0.51100000000E-03 0.  1.
</event>
<event>
 8    1  0.1199892E+005  0.1043930E+01  0.7957747E-01            NaN
         13   -1    0    0    0    0  0.00000000000E+00  0.00000000000E+00  0.74505805969E-08  0.10566000000E+00  0.10566000000E+00 0.  1.
     999900   -1    0    0    0    0 -0.00000000000E+00 -0.00000000000E+00 -0.74505805969E-08  0.93827000000E+00  0.93827000000E+00 0. -1.
     999902    2    1    2    0    0  0.16041155333E-01  0.55955081963E-02 -0.20404367001E-01  0.10173787935E+01  0.10170322723E+01 0.  0.
     999903    2    3    3    0    0  0.25450944932E-01 -0.11581214920E+00  0.41242601974E-01  0.12685719787E+00  0.18209665948E-01 0.  0.
         14    1    1    2    0    0 -0.16041155333E-01 -0.55955081963E-02  0.20404367001E-01  0.26551206547E-01  0.00000000000E+00 0.  1.
     999901    1    3    3    0    0 -0.94097895995E-02  0.12140765740E+00 -0.61646968975E-01  0.89052159558E+00  0.88000000000E+00 0. -1.
        -11    1    4    4    0    0  0.57355262146E-02 -0.23332583691E-01  0.16380771666E-01  0.29084300302E-01  0.51100000000E-03 0. -1.
         11    1    4    4    0    0  0.19715418718E-01 -0.92479565508E-01  0.24861830308E-01  0.97772897569E-01  0.51100000000E-03 0.  1.
</event>
<event>
 8    1  0.1199892E+005  0.1043930E+01  0.7957747E-01            NaN
         13   -1    0    0    0    0  0.00000000000E+00  0.00000000000E+00  0.74505805969E-08  0.10566000000E+00  0.10566000000E+00 0.  1.
     999900   -1    0    0    0    0 -0.00000000000E+00 -0.00000000000E+00 -0.74505805969E-08  0.93827000000E+00  0.93827000000E+00 0.  1.
     999902    2    1    2    0    0 -0.13633259691E-01 -0.78366395153E-02  0.14159709157E-01  0.10227692804E+01  0.10225503533E+01 0.  0.
     999903    2    3    3    0    0  0.12029852895E+00  0.30381925754E-01 -0.35049024340E-01  0.13045774169E+00  0.19899517095E-01 0.  0.
         14    1    1    2    0    0  0.13633259691E-01  0.78366395153E-02 -0.14159709157E-01  0.21160719555E-01  0.00000000000E+00 0. -1.
     999901    1    3    3    0    0 -0.13393178864E+00 -0.38218565269E-01  0.49208733497E-01  0.89231153875E+00  0.88000000000E+00 0. -1.
        -11    1    4    4    0    0  0.33719350252E-01 -0.38105193248E-03 -0.11089119432E-01  0.35501682675E-01  0.51100000000E-03 0. -1.
         11    1    4    4    0    0  0.86579178696E-01  0.30762977686E-01 -0.23959904908E-01  0.94956059017E-01  0.51100000000E-03 0.  1.
</event>
<event>
 8    1  0.1199892E+005  0.1043930E+01  0.7957747E-01            NaN
         13   -1    0    0    0    0  0.00000000000E+00  0.00000000000E+00  0.74505805969E-08  0.10566000000E+00  0.10566000000E+00 0.  1.
     999900   -1    0    0    0    0 -0.00000000000E+00 -0.00000000000E+00 -0.74505805969E-08  0.93827000000E+00  0.93827000000E+00 0. -1.
     999902    2    1    2    0    0 -0.18099559731E-01  0.54883544555E-03 -0.12173115409E-01  0.10221107420E+01  0.10218778248E+01 0.  0.
     999903    2    3    3    0    0 -0.24851888753E-01  0.11372790701E+00 -0.62131309506E-01  0.13343143121E+00  0.19798838559E-01 0.  0.
         14    1    1    2    0    0  0.18099559731E-01 -0.54883544555E-03  0.12173115409E-01  0.21819258043E-01  0.00000000000E+00 0.  1.
     999901    1    3    3    0    0  0.67523290218E-02 -0.11317907156E+00  0.49958194096E-01  0.88867931074E+00  0.88000000000E+00 0. -1.
        -11    1    4    4    0    0 -0.21038888629E-01  0.10900029052E+00 -0.62365327045E-01  0.12733182362E+00  0.51100000000E-03 0. -1.
         11    1    4    4    0    0 -0.38130001234E-02  0.47276164895E-02  0.23401753928E-03  0.60996075957E-02  0.51100000000E-03 0.  1.
</event>
<event>
 8    1  0.1199892E+005  0.1043930E+01  0.7957747E-01            NaN
         13   -1    0    0    0    0  0.00000000000E+00  0.00000000000E+00  0.74505805969E-08  0.10566000000E+00  0.10566000000E+00 0. -1.
     999900   -1    0    0    0    0 -0.00000000000E+00 -0.00000000000E+00 -0.74505805969E-08  0.93827000000E+00  0.93827000000E+00 0.  1.
     999902    2    1    2    0    0  0.43464405562E-03  0.40172985282E-02  0.22901783542E-01  0.10206744782E+01  0.10204095115E+01 0.  0.
     999903    2    3    3    0    0 -0.18559141825E-01 -0.95565593628E-01  0.87501485239E-01  0.13250183862E+00  0.20567033999E-01 0.  0.
         14    1    1    2    0    0 -0.43464405562E-03 -0.40172985282E-02 -0.22901783542E-01  0.23255521760E-01  0.00000000000E+00 0.  1.
     999901    1    3    3    0    0  0.18993785881E-01  0.99582892157E-01 -0.64599701698E-01  0.88817263962E+00  0.88000000000E+00 0.  1.
        -11    1    4    4    0    0 -0.52096236673E-02 -0.39203446769E-01  0.48905223150E-01  0.62896998256E-01  0.51100000000E-03 0. -1.
         11    1    4    4    0    0 -0.13349518158E-01 -0.56362146859E-01  0.38596262090E-01  0.69604840363E-01  0.51100000000E-03 0.  1.
</event>
<event>
 8    1  0.1199892E+005  0.1043930E+01  0.7957747E-01            NaN
         13   -1    0    0    0    0  0.00000000000E+00  0.00000000000E+00  0.74505805969E-08  0.10566000000E+00  0.10566000000E+00 0.  1.
     999900   -1    0    0    0    0 -0.00000000000E+00 -0.00000000000E+00 -0.74505805969E-08  0.93827000000E+00  0.93827000000E+00 0.  1.
     999902    2    1    2    0    0  0.79542606271E-02 -0.21075131874E-01  0.78760793856E-02  0.10200665536E+01  0.10197873846E+01 0.  0.
     999903    2    3    3    0    0  0.92165876832E-02 -0.54639962528E-01  0.11866498949E+00  0.13248423412E+00  0.20005538380E-01 0.  0.
         14    1    1    2    0    0 -0.79542606271E-02  0.21075131874E-01 -0.78760793856E-02  0.23863446358E-01  0.00000000000E+00 0.  1.
     999901    1    3    3    0    0 -0.12623270561E-02  0.33564830654E-01 -0.11078891010E+00  0.88758231952E+00  0.88000000000E+00 0.  1.
        -11    1    4    4    0    0  0.59303393824E-02 -0.39207699727E-01  0.10243226088E+00  0.10984098430E+00  0.51100000000E-03 0. -1.
         11    1    4    4    0    0  0.32862483008E-02 -0.15432262801E-01  0.16232728613E-01  0.22643249817E-01  0.51100000000E-03 0.  1.
</event>
<event>
 8    1  0.1199892E+005  0.1043930E+01  0.7957747E-01            NaN
         13   -1    0    0    0    0  0.00000000000E+00  0.00000000000E+00  0.74505805969E-08  0.10566000000E+00  0.10566000000E+00 0.  1.
     999900   -1    0    0    0    0 -0.00000000000E+00 -0.00000000000E+00 -0.74505805969E-08  0.93827000000E+00  0.93827000000E+00 0. -1.
     999902    2    1    2    0    0  0.21591024410E-01 -0.51230185770E-02  0.35382503332E-02  0.10214591996E+01  0.10212120052E+01 0.  0.
     999903    2    3    3    0    0 -0.16759891414E-01  0.12522672749E+00 -0.27953639910E-01  0.13047458236E+00  0.16720748128E-01 0.  0.
         14    1    1    2    0    0 -0.21591024410E-01  0.51230185770E-02 -0.35382503332E-02  0.22470800382E-01  0.00000000000E+00 0. -1.
     999901    1    3    3    0    0  0.38350915824E-01 -0.13034974607E+00  0.31491890243E-01  0.89098461726E+00  0.88000000000E+00 0.  1.
        -11    1    4    4    0    0  0.24291535895E-02  0.41588774352E-02 -0.15241760003E-02  0.50775271700E-02  0.51100000000E-03 0. -1.
         11    1    4    4    0    0 -0.19189045004E-01  0.12106785006E+00 -0.26429463909E-01  0.12539705519E+00  0.51100000000E-03 0.  1.
</event>
<event>
 8    1  0.1199892E+005  0.1043930E+01  0.7957747E-01            NaN
         13   -1    0    0    0    0  0.00000000000E+00  0.00000000000E+00  0.74505805969E-08  0.10566000000E+00  0.10566000000E+00 0. -1.
     999900   -1    0    0    0    0 -0.00000000000E+00 -0.00000000000E+00 -0.74505805969E-08  0.93827000000E+00  0.93827000000E+00 0. -1.
     999902    2    1    2    0    0 -0.79075075059E-02  0.24041177918E-01 -0.50156019114E-02  0.10181295509E+01  0.10178025935E+01 0.  0.
     999903    2    3    3    0    0 -0.15552857837E-02 -0.11003731416E+00  0.56959894989E-01  0.12579645449E+00  0.21672307271E-01 0.  0.
         14    1    1    2    0    0  0.79075075059E-02 -0.24041177918E-01  0.50156019114E-02  0.25800449088E-01  0.00000000000E+00 0.  1.
     999901    1    3    3    0    0 -0.63522217222E-02  0.13407849208E+00 -0.61975496900E-01  0.89233309642E+00  0.88000000000E+00 0. -1.
        -11    1    4    4    0    0  0.77541718657E-02 -0.65000041917E-01  0.40336239656E-01  0.76892171130E-01  0.51100000000E-03 0. -1.
         11    1    4    4    0    0 -0.93094576494E-02 -0.45037272245E-01  0.16623655333E-01  0.48904283357E-01  0.51100000000E-03 0.  1.
</event>
<event>
 8    1  0.1199892E+005  0.1043930E+01  0.7957747E-01            NaN
         13   -1    0    0    0    0  0.00000000000E+00  0.00000000000E+00  0.74505805969E-08  0.10566000000E+00  0.10566000000E+00 0.  1.
     999900   -1    0    0    0    0 -0.00000000000E+00 -0.00000000000E+00 -0.74505805969E-08  0.93827000000E+00  0.93827000000E+00 0. -1.
     999902    2    1    2    0    0 -0.55752787394E-02 -0.83685797637E-02 -0.20491924953E-01  0.10211037903E+01  0.10208486248E+01 0.  0.
     999903    2    3    3    0    0 -0.19466685716E-01  0.11862527908E+00 -0.49255514904E-01  0.13141409414E+00  0.19815390477E-01 0.  0.
         14    1    1    2    0    0  0.55752787394E-02  0.83685797637E-02  0.20491924953E-01  0.22826209685E-01  0.00000000000E+00 0.  1.
     999901    1    3    3    0    0  0.13891406977E-01 -0.12699385885E+00  0.28763589951E-01  0.88968969617E+00  0.88000000000E+00 0.  1.
        -11    1    4    4    0    0 -0.11633292441E-01  0.79181687809E-01 -0.22591663599E-01  0.83160793421E-01  0.51100000000E-03 0.  1.
         11    1    4    4    0    0 -0.78333932751E-02  0.39443591275E-01 -0.26663851305E-01  0.48253300719E-01  0.51100000000E-03 0. -1.
</event>
<event>
 8    1  0.1199892E+005  0.1043930E+01  0.7957747E-01            NaN
         13   -1    0    0    0    0  0.00000000000E+00  0.00000000000E+00  0.74505805969E-08  0.10566000000E+00  0.10566000000E+00 0.  1.
     999900   -1    0    0    0    0 -0.00000000000E+00 -0.00000000000E+00 -0.74505805969E-08  0.93827000000E+00  0.93827000000E+00 0. -1.
     999902    2    1    2    0    0  0.12629589819E-01  0.12404774190E-01  0.16945072535E-01  0.10194244813E+01  0.10191298998E+01 0.  0.
     999903    2    3    3    0    0 -0.12436565315E+00 -0.39673544608E-03 -0.22263157868E-01  0.12787029870E+00  0.19702588910E-01 0.  0.
         14    1    1    2    0    0 -0.12629589819E-01 -0.12404774190E-01 -0.16945072535E-01  0.24505518662E-01  0.00000000000E+00 0. -1.
     999901    1    3    3    0    0  0.13699524297E+00  0.12801509636E-01  0.39208230403E-01  0.89155418264E+00  0.88000000000E+00 0.  1.
        -11    1    4    4    0    0 -0.82769663380E-01  0.74054225758E-02 -0.20058881938E-01  0.85488463111E-01  0.51100000000E-03 0.  1.
         11    1    4    4    0    0 -0.41595989769E-01 -0.78021580219E-02 -0.22042759297E-02  0.42381835590E-01  0.51100000000E-03 0. -1.
</event>
<event>
 7    1  0.1199892E+005  0.1043930E+01  0.7957747E-01            NaN
         13   -1    0    0    0    0  0.00000000000E+00  0.00000000000E+00  0.74505805969E-08  0.10566000000E+00  0.10566000000E+00 0. -1.
     999900   -1    0    0    0    0 -0.00000000000E+00 -0.00000000000E+00 -0.74505805969E-08  0.93827000000E+00  0.93827000000E+00 0. -1.
     999903    2    1    2    0    0  0.85476862718E-01 -0.12874684500E-01 -0.68783152880E-01  0.11129574618E+00  0.13548779858E-01 0.  0.
         14    1    1    2    0    0 -0.67445497466E-02 -0.13921880070E-01  0.45878388183E-01  0.48416259648E-01  0.00000000000E+00 0. -1.
     999901    1    1    2    0    0 -0.78732312972E-01  0.26796564570E-01  0.22904764697E-01  0.88421799418E+00  0.88000000000E+00 0.  1.
        -11    1    3    3    0    0  0.30455391047E-01 -0.33567097518E-02 -0.32681150217E-01  0.44800859866E-01  0.51100000000E-03 0. -1.
         11    1    3    3    0    0  0.55021471671E-01 -0.95179747487E-02 -0.36102002663E-01  0.66494886311E-01  0.51100000000E-03 0.  1.
</event>
<event>
 8    1  0.1199892E+005  0.1043930E+01  0.7957747E-01            NaN
         13   -1    0    0    0    0  0.00000000000E+00  0.00000000000E+00  0.74505805969E-08  0.10566000000E+00  0.10566000000E+00 0. -1.
     999900   -1    0    0    0    0 -0.00000000000E+00 -0.00000000000E+00 -0.74505805969E-08  0.93827000000E+00  0.93827000000E+00 0.  1.
     999902    2    1    2    0    0  0.18866575017E-03  0.95675187631E-02 -0.26019268616E-01  0.10162068085E+01  0.10158285791E+01 0.  0.
     999903    2    3    3    0    0 -0.56307377158E-01 -0.74931265274E-01 -0.85339193188E-01  0.12837196975E+00  0.20282245583E-01 0.  0.
         14    1    1    2    0    0 -0.18866575017E-03 -0.95675187631E-02  0.26019268616E-01  0.27723191543E-01  0.00000000000E+00 0. -1.
     999901    1    3    3    0    0  0.56496042908E-01  0.84498784037E-01  0.59319924573E-01  0.88783483871E+00  0.88000000000E+00 0. -1.
        -11    1    4    4    0    0 -0.26329526865E-01 -0.32616929669E-01 -0.25001797026E-01  0.48810440087E-01  0.51100000000E-03 0. -1.
         11    1    4    4    0    0 -0.29977850293E-01 -0.42314335604E-01 -0.60337396163E-01  0.79561529664E-01  0.51100000000E-03 0.  1.
</event>
<event>
 8    1  0.1199892E+005  0.1043930E+01  0.7957747E-01            NaN
         13   -1    0    0    0    0  0.00000000000E+00  0.00000000000E+00  0.74505805969E-08  0.10566000000E+00  0.10566000000E+00 0.  1.
     999900   -1    0    0    0    0 -0.00000000000E+00 -0.00000000000E+00 -0.74505805969E-08  0.93827000000E+00  0.93827000000E+00 0. -1.
     999902    2    1    2    0    0  0.23311283331E-01 -0.16242832233E-02 -0.46201357106E-02  0.10201098430E+01  0.10198316978E+01 0.  0.
     999903    2    3    3    0    0 -0.22972751858E-01  0.53695307584E-01 -0.11475299298E+00  0.13031676856E+00  0.20081767496E-01 0.  0.
         14    1    1    2    0    0 -0.23311283331E-01  0.16242832233E-02  0.46201357106E-02  0.23820157021E-01  0.00000000000E+00 0.  1.
     999901    1    3    3    0    0  0.46284035189E-01 -0.55319590807E-01  0.11013285726E+00  0.88979307442E+00  0.88000000000E+00 0.  1.
        -11    1    4    4    0    0 -0.97116144330E-02  0.34213475974E-01 -0.49636242773E-01  0.61064679732E-01  0.51100000000E-03 0.  1.
         11    1    4    4    0    0 -0.13261137425E-01  0.19481831609E-01 -0.65116750202E-01  0.69252088824E-01  0.51100000000E-03 0. -1.
</event>
<event>
 8    1  0.1199892E+005  0.1043930E+01  0.7957747E-01            NaN
         13   -1    0    0    0    0  0.00000000000E+00  0.00000000000E+00  0.74505805969E-08  0.10566000000E+00  0.10566000000E+00 0.  1.
     999900   -1    0    0    0    0 -0.00000000000E+00 -0.00000000000E+00 -0.74505805969E-08  0.93827000000E+00  0.93827000000E+00 0.  1.
     999902    2    1    2    0    0  0.76431319151E-02  0.22002631674E-01 -0.78978502479E-02  0.10193350960E+01  0.10190383352E+01 0.  0.
     999903    2    3    3    0    0 -0.15073026996E-01 -0.10165557992E+00 -0.73624189050E-01  0.12797247122E+00  0.19884142098E-01 0.  0.
         14    1    1    2    0    0 -0.76431319151E-02 -0.22002631674E-01  0.78978502479E-02  0.24594904037E-01  0.00000000000E+00 0.  1.
     999901    1    3    3    0    0  0.22716158912E-01  0.12365821159E+00  0.65726338802E-01  0.89136262474E+00  0.88000000000E+00 0. -1.
        -11    1    4    4    0    0 -0.25157431373E-02 -0.15155232847E-01 -0.31462483248E-02  0.15689807064E-01  0.51100000000E-03 0. -1.
         11    1    4    4    0    0 -0.12557283859E-01 -0.86500347069E-01 -0.70477940725E-01  0.11228266416E+00  0.51100000000E-03 0.  1.
</event>
<event>
 8    1  0.1199892E+005  0.1043930E+01  0.7957747E-01            NaN
         13   -1    0    0    0    0  0.00000000000E+00  0.00000000000E+00  0.74505805969E-08  0.10566000000E+00  0.10566000000E+00 0. -1.
     999900   -1    0    0    0    0 -0.00000000000E+00 -0.00000000000E+00 -0.74505805969E-08  0.93827000000E+00  0.93827000000E+00 0. -1.
     999902    2    1    2    0    0 -0.21587646908E-01 -0.72546659000E-02  0.66287748790E-02  0.10202108657E+01  0.10199351024E+01 0.  0.
     999903    2    3    3    0    0  0.29030938713E-01  0.10177649905E+00  0.72350891866E-01  0.12961026339E+00  0.19050397950E-01 0.  0.
         14    1    1    2    0    0  0.21587646908E-01  0.72546659000E-02 -0.66287748790E-02  0.23719134317E-01  0.00000000000E+00 0.  1.
     999901    1    3    3    0    0 -0.50618585621E-01 -0.10903116495E+00 -0.65722116987E-01  0.89060060229E+00  0.88000000000E+00 0. -1.
        -11    1    4    4    0    0  0.10335901095E-01  0.34620174459E-01  0.35933173525E-01  0.50959213216E-01  0.51100000000E-03 0. -1.
         11    1    4    4    0    0  0.18695037618E-01  0.67156324588E-01  0.36417718341E-01  0.78651050176E-01  0.51100000000E-03 0.  1.
</event>
<event>
 8    1  0.1199892E+005  0.1043930E+01  0.7957747E-01            NaN
         13   -1    0    0    0    0  0.00000000000E+00  0.00000000000E+00  0.74505805969E-08  0.10566000000E+00  0.10566000000E+00 0.  1.
     999900   -1    0    0    0    0 -0.00000000000E+00 -0.00000000000E+00 -0.74505805969E-08  0.93827000000E+00  0.93827000000E+00 0.  1.
     999902    2    1    2    0    0  0.14611241673E-01 -0.16976260501E-02 -0.18630520609E-01  0.10201925482E+01  0.10199163539E+01 0.  0.
     999903    2    3    3    0    0  0.12514025236E+00  0.30713553580E-01  0.19034768331E-01  0.13188752138E+00  0.20702433601E-01 0.  0.
         14    1    1    2    0    0 -0.14611241673E-01  0.16976260501E-02  0.18630520609E-01  0.23737451751E-01  0.00000000000E+00 0. -1.
     999901    1    3    3    0    0 -0.11052901068E+00 -0.32411179631E-01 -0.37665288940E-01  0.88830502687E+00  0.88000000000E+00 0.  1.
        -11    1    4    4    0    0  0.61586535363E-01  0.45647834486E-02  0.77379482869E-02  0.62240465540E-01  0.51100000000E-03 0. -1.
         11    1    4    4    0    0  0.63553716995E-01  0.26148770132E-01  0.11296820044E-01  0.69647055841E-01  0.51100000000E-03 0.  1.
</event>
<event>
 8    1  0.1199892E+005  0.1043930E+01  0.7957747E-01            NaN
         13   -1    0    0    0    0  0.00000000000E+00  0.00000000000E+00  0.74505805969E-08  0.10566000000E+00  0.10566000000E+00 0. -1.
     999900   -1    0    0    0    0 -0.00000000000E+00 -0.00000000000E+00 -0.74505805969E-08  0.93827000000E+00  0.93827000000E+00 0. -1.
     999902    2    1    2    0    0 -0.88206680930E-02  0.15479327902E-01 -0.14423385261E-01  0.10210073514E+01  0.10207500006E+01 0.  0.
     999903    2    3    3    0    0 -0.74890192556E-01 -0.69420741302E-01 -0.81120619164E-01  0.13195070254E+00  0.20066210000E-01 0.  0.
         14    1    1    2    0    0  0.88206680930E-02 -0.15479327902E-01  0.14423385261E-01  0.22922648631E-01  0.00000000000E+00 0. -1.
     999901    1    3    3    0    0  0.66069524463E-01  0.84900069203E-01  0.66697233904E-01  0.88905664883E+00  0.88000000000E+00 0.  1.
        -11    1    4    4    0    0 -0.42213263765E-02 -0.88142264735E-02 -0.25128543012E-02  0.10103748930E-01  0.51100000000E-03 0.  1.
         11    1    4    4    0    0 -0.70668866179E-01 -0.60606514828E-01 -0.78607764863E-01  0.12184695361E+00  0.51100000000E-03 0. -1.
</event>
<event>
 7    1  0.2730967E+005  0.1043930E+01  0.7957747E-01            NaN
         13   -1    0    0    0    0  0.00000000000E+00  0.00000000000E+00  0.74505805969E-08  0.10566000000E+00  0.10566000000E+00 0.  1.
     999900   -1    0    0    0    0 -0.00000000000E+00 -0.00000000000E+00 -0.74505805969E-08  0.93827000000E+00  0.93827000000E+00 0.  1.
     999903    2    1    2    0    0  0.52725867473E-01 -0.20130236951E-03 -0.86746511686E-01  0.10351615453E+00  0.20262757329E-01 0.  0.
         14    1    1    2    0    0 -0.52140992590E-02 -0.47064146785E-01 -0.20060579307E-01  0.51426137186E-01  0.00000000000E+00 0. -1.
     999901    1    1    2    0    0 -0.47511768214E-01  0.47265449155E-01  0.10680709099E+00  0.88898770829E+00  0.88000000000E+00 0. -1.
        -11    1    3    3    0    0  0.35980689148E-01  0.88028008363E-02 -0.51134075445E-01  0.63143123827E-01  0.51100000000E-03 0.  1.
         11    1    3    3    0    0  0.16745178325E-01 -0.90041032058E-02 -0.35612436241E-01  0.40373030698E-01  0.51100000000E-03 0. -1.
</event>
<event>
 8    1  0.1199892E+005  0.1043930E+01  0.7957747E-01            NaN
         13   -1    0    0    0    0  0.00000000000E+00  0.00000000000E+00  0.74505805969E-08  0.10566000000E+00  0.10566000000E+00 0.  1.
     999900   -1    0    0    0    0 -0.00000000000E+00 -0.00000000000E+00 -0.74505805969E-08  0.93827000000E+00  0.93827000000E+00 0. -1.
     999902    2    1    2    0    0  0.74360592798E-03  0.21113038296E-01 -0.11699486455E-01  0.10197806456E+01  0.10194946659E+01 0.  0.
     999903    2    3    3    0    0  0.58703883699E-01 -0.95668217708E-01  0.57062577091E-01  0.12752200766E+00  0.20178475962E-01 0.  0.
         14    1    1    2    0    0 -0.74360592798E-03 -0.21113038296E-01  0.11699486455E-01  0.24149354425E-01  0.00000000000E+00 0.  1.
     999901    1    3    3    0    0 -0.57960277771E-01  0.11678125600E+00 -0.68762063546E-01  0.89225863792E+00  0.88000000000E+00 0.  1.
        -11    1    4    4    0    0  0.94932557832E-02 -0.31187032473E-01  0.20768632940E-01  0.38656825206E-01  0.51100000000E-03 0.  1.
         11    1    4    4    0    0  0.49210627916E-01 -0.64481185235E-01  0.36293944151E-01  0.88865182452E-01  0.51100000000E-03 0. -1.
</event>
<event>
 8    1  0.1199892E+005  0.1043930E+01  0.7957747E-01            NaN
         13   -1    0    0    0    0  0.00000000000E+00  0.00000000000E+00  0.74505805969E-08  0.10566000000E+00  0.10566000000E+00 0.  1.
     999900   -1    0    0    0    0 -0.00000000000E+00 -0.00000000000E+00 -0.74505805969E-08  0.93827000000E+00  0.93827000000E+00 0. -1.
     999902    2    1    2    0    0  0.14960851922E-01  0.20201910087E-01  0.14462322285E-01  0.10149282237E+01  0.10145137733E+01 0.  0.
     999903    2    3    3    0    0 -0.11845911095E+00 -0.81404021489E-02 -0.27483715600E-01  0.12343305085E+00  0.19532954333E-01 0.  0.
         14    1    1    2    0    0 -0.14960851922E-01 -0.20201910087E-01 -0.14462322285E-01  0.29001776278E-01  0.00000000000E+00 0. -1.
     999901    1    3    3    0    0  0.13341996287E+00  0.28342312236E-01  0.41946037884E-01  0.89149517287E+00  0.88000000000E+00 0.  1.
        -11    1    4    4    0    0 -0.49239483906E-01  0.32332157687E-02 -0.42277128879E-02  0.49528932321E-01  0.51100000000E-03 0. -1.
         11    1    4    4    0    0 -0.69219627045E-01 -0.11373617918E-01 -0.23256002712E-01  0.73904118531E-01  0.51100000000E-03 0.  1.
</event>
<event>
 8    1  0.1199892E+005  0.1043930E+01  0.7957747E-01            NaN
         13   -1    0    0    0    0  0.00000000000E+00  0.00000000000E+00  0.74505805969E-08  0.10566000000E+00  0.10566000000E+00 0.  1.
     999900   -1    0    0    0    0 -0.00000000000E+00 -0.00000000000E+00 -0.74505805969E-08  0.93827000000E+00  0.93827000000E+00 0. -1.
     999902    2    1    2    0    0 -0.79024712506E-02  0.78708067360E-02  0.20561196400E-01  0.10205385176E+01  0.10202704075E+01 0.  0.
     999903    2    3    3    0    0  0.42900914289E-02  0.11879359744E+00  0.56015354033E-01  0.13278319019E+00  0.19061270531E-01 0.  0.
         14    1    1    2    0    0  0.79024712506E-02 -0.78708067360E-02 -0.20561196400E-01  0.23391482380E-01  0.00000000000E+00 0.  1.
     999901    1    3    3    0    0 -0.12192562680E-01 -0.11092279070E+00 -0.35454157633E-01  0.88775532743E+00  0.88000000000E+00 0. -1.
        -11    1    4    4    0    0  0.92159402314E-02  0.34458331992E-01  0.12877484865E-01  0.37926256544E-01  0.51100000000E-03 0.  1.
         11    1    4    4    0    0 -0.49258488025E-02  0.84335265443E-01  0.43137869168E-01  0.94856933649E-01  0.51100000000E-03 0. -1.
</event>
<event>
 8    1  0.1199892E+005  0.1043930E+01  0.7957747E-01            NaN
         13   -1    0    0    0    0  0.00000000000E+00  0.00000000000E+00  0.74505805969E-08  0.10566000000E+00  0.10566000000E+00 0. -1.
     999900   -1    0    0    0    0 -0.00000000000E+00 -0.00000000000E+00 -0.74505805969E-08  0.93827000000E+00  0.93827000000E+00 0. -1.
     999902    2    1    2    0    0 -0.20361428421E-01  0.56122849897E-02  0.10747986864E-01  0.10202317990E+01  0.10199565280E+01 0.  0.
     999903    2    3    3    0    0  0.60994036446E-01  0.10334222755E+00  0.47965859715E-01  0.13031325023E+00  0.16760996703E-01 0.  0.
         14    1    1    2    0    0  0.20361428421E-01 -0.56122849897E-02 -0.10747986864E-01  0.23698201024E-01  0.00000000000E+00 0.  1.
     999901    1    3    3    0    0 -0.81355464868E-01 -0.97729942563E-01 -0.37217872851E-01  0.88991854874E+00  0.88000000000E+00 0.  1.
        -11    1    4    4    0    0  0.34355283085E-01  0.53409178679E-01  0.33928785628E-01  0.72001732328E-01  0.51100000000E-03 0.  1.
         11    1    4    4    0    0  0.26638753361E-01  0.49933048873E-01  0.14037074087E-01  0.58311517905E-01  0.51100000000E-03 0. -1.
</event>
<event>
 8    1  0.1199892E+005  0.1043930E+01  0.7957747E-01            NaN
         13   -1    0    0    0    0  0.00000000000E+00  0.00000000000E+00  0.74505805969E-08  0.10566000000E+00  0.10566000000E+00 0.  1.
     999900   -1    0    0    0    0 -0.00000000000E+00 -0.00000000000E+00 -0.74505805969E-08  0.93827000000E+00  0.93827000000E+00 0.  1.
     999902    2    1    2    0    0 -0.14509822303E-01 -0.14988773850E-01 -0.24527683452E-01  0.10117305351E+01  0.10112180131E+01 0.  0.
     999903    2    3    3    0    0 -0.34293792747E-01 -0.34417589144E-01  0.10914316976E+00  0.12120440895E+00  0.20436305407E-01 0.  0.
         14    1    1    2    0    0  0.14509822303E-01  0.14988773850E-01  0.24527683452E-01  0.32199464907E-01  0.00000000000E+00 0.  1.
     999901    1    3    3    0    0  0.19783970444E-01  0.19428815294E-01 -0.13367085321E+00  0.89052612615E+00  0.88000000000E+00 0.  1.
        -11    1    4    4    0    0 -0.53280171498E-02 -0.12694163072E-01  0.15147876143E-01  0.20475566305E-01  0.51100000000E-03 0. -1.
         11    1    4    4    0    0 -0.28965775597E-01 -0.21723426071E-01  0.93995293620E-01  0.10072884264E+00  0.51100000000E-03 0.  1.
</event>
<event>
 8    1  0.1199892E+005  0.1043930E+01  0.7957747E-01            NaN
         13   -1    0    0    0    0  0.00000000000E+00  0.00000000000E+00  0.74505805969E-08  0.10566000000E+00  0.10566000000E+00 0.  1.
     999900   -1    0    0    0    0 -0.00000000000E+00 -0.00000000000E+00 -0.74505805969E-08  0.93827000000E+00  0.93827000000E+00 0.  1.
     999902    2    1    2    0    0 -0.11300176197E-01  0.93239600675E-03 -0.21225979673E-01  0.10198653879E+01  0.10195814356E+01 0.  0.
     999903    2    3    3    0    0 -0.22424643115E-01 -0.45705639942E-01 -0.12067147524E+00  0.13296727266E+00  0.22952571066E-01 0.  0.
         14    1    1    2    0    0  0.11300176197E-01 -0.93239600675E-03  0.21225979673E-01  0.24064612141E-01  0.00000000000E+00 0. -1.
     999901    1    3    3    0    0  0.11124466919E-01  0.46638035949E-01  0.99445495571E-01  0.88689811520E+00  0.88000000000E+00 0. -1.
        -11    1    4    4    0    0 -0.13070255637E-01 -0.40044904807E-01 -0.10951434021E+00  0.11733745274E+00  0.51100000000E-03 0. -1.
         11    1    4    4    0    0 -0.93543874780E-02 -0.56607351353E-02 -0.11157135034E-01  0.15629819914E-01  0.51100000000E-03 0.  1.
</event>
<event>
 8    1  0.1199892E+005  0.1043930E+01  0.7957747E-01            NaN
         13   -1    0    0    0    0  0.00000000000E+00  0.00000000000E+00  0.74505805969E-08  0.10566000000E+00  0.10566000000E+00 0.  1.
     999900   -1    0    0    0    0 -0.00000000000E+00 -0.00000000000E+00 -0.74505805969E-08  0.93827000000E+00  0.93827000000E+00 0. -1.
     999902    2    1    2    0    0  0.16338039468E-01  0.42008528847E-02  0.17003783249E-01  0.10199778113E+01  0.10196965373E+01 0.  0.
     999903    2    3    3    0    0 -0.11506085990E+00 -0.32934164944E-01  0.43992168775E-01  0.12903838954E+00  0.19797332148E-01 0.  0.
         14    1    1    2    0    0 -0.16338039468E-01 -0.42008528847E-02 -0.17003783249E-01  0.23952188697E-01  0.00000000000E+00 0. -1.
     999901    1    3    3    0    0  0.13139889936E+00  0.37135017829E-01 -0.26988385526E-01  0.89093942177E+00  0.88000000000E+00 0.  1.
        -11    1    4    4    0    0 -0.72338436279E-01 -0.18825305886E-01  0.17311867123E-01  0.76728113291E-01  0.51100000000E-03 0.  1.
         11    1    4    4    0    0 -0.42722423617E-01 -0.14108859058E-01  0.26680301652E-01  0.52310276245E-01  0.51100000000E-03 0. -1.
</event>
<event>
 8    1  0.1199892E+005  0.1043930E+01  0.7957747E-01            NaN
         13   -1    0    0    0    0  0.00000000000E+00  0.00000000000E+00  0.74505805969E-08  0.10566000000E+00  0.10566000000E+00 0.  1.
     999900   -1    0    0    0    0 -0.00000000000E+00 -0.00000000000E+00 -0.74505805969E-08  0.93827000000E+00  0.93827000000E+00 0.  1.
     999902    2    1    2    0    0  0.21808928007E-01 -0.82620467299E-02 -0.31255562121E-02  0.10204000221E+01  0.10201286906E+01 0.  0.
     999903    2    3    3    0    0  0.92193102762E-01  0.40701849221E-01 -0.82696178669E-01  0.13265970023E+00  0.24570904995E-01 0.  0.
         14    1    1    2    0    0 -0.21808928007E-01  0.82620467299E-02  0.31255562121E-02  0.23529977871E-01  0.00000000000E+00 0. -1.
     999901    1    3    3    0    0 -0.70384174756E-01 -0.48963895951E-01  0.79570622457E-01  0.88774032190E+00  0.88000000000E+00 0. -1.
        -11    1    4    4    0    0  0.83035267625E-01  0.35889691272E-01 -0.82296305341E-01  0.12229418875E+00  0.51100000000E-03 0. -1.
         11    1    4    4    0    0  0.91578351375E-02  0.48121579495E-02 -0.39987332799E-03  0.10365511479E-01  0.51100000000E-03 0.  1.
</event>
<event>
 8    1  0.1199892E+005  0.1043930E+01  0.7957747E-01            NaN
         13   -1    0    0    0    0  0.00000000000E+00  0.00000000000E+00  0.74505805969E-08  0.10566000000E+00  0.10566000000E+00 0. -1.
     999900   -1    0    0    0    0 -0.00000000000E+00 -0.00000000000E+00 -0.74505805969E-08  0.93827000000E+00  0.93827000000E+00 0. -1.
     999902    2    1    2    0    0 -0.94491094824E-02 -0.22160140835E-01  0.44319075780E-02  0.10194351165E+01  0.10191407937E+01 0.  0.
     999903    2    3    3    0    0 -0.59247843005E-01  0.69031161085E-02 -0.11377870531E+00  0.12966079920E+00  0.17560442927E-01 0.  0.
         14    1    1    2    0    0  0.94491094824E-02  0.22160140835E-01 -0.44319075780E-02  0.24494883478E-01  0.00000000000E+00 0. -1.
     999901    1    3    3    0    0  0.49798733522E-01 -0.29063256943E-01  0.11821061288E+00  0.88977431732E+00  0.88000000000E+00 0.  1.
        -11    1    4    4    0    0 -0.17593965178E-01  0.56884861905E-02 -0.21206743598E-01  0.28140603776E-01  0.51100000000E-03 0. -1.
         11    1    4    4    0    0 -0.41653877826E-01  0.12146299180E-02 -0.92571961708E-01  0.10152019543E+00  0.51100000000E-03 0.  1.
</event>
<event>
 8    1  0.1199892E+005  0.1043930E+01  0.7957747E-01            NaN
         13   -1    0    0    0    0  0.00000000000E+00  0.00000000000E+00  0.74505805969E-08  0.10566000000E+00  0.10566000000E+00 0. -1.
     999900   -1    0    0    0    0 -0.00000000000E+00 -0.00000000000E+00 -0.74505805969E-08  0.93827000000E+00  0.93827000000E+00 0.  1.
     999902    2    1    2    0    0 -0.20411727097E-01  0.10331486206E-01 -0.61828565993E-02  0.10202317738E+01  0.10199565022E+01 0.  0.
     999903    2    3    3    0    0 -0.74118957834E-01  0.10865990369E+00 -0.75853065382E-02  0.13312698223E+00  0.19096123752E-01 0.  0.
         14    1    1    2    0    0  0.20411727097E-01 -0.10331486206E-01  0.61828565993E-02  0.23698226222E-01  0.00000000000E+00 0.  1.
     999901    1    3    3    0    0  0.53707230737E-01 -0.98328417485E-01  0.14024499390E-02  0.88710479155E+00  0.88000000000E+00 0. -1.
        -11    1    4    4    0    0 -0.32856720067E-01  0.32100246442E-01 -0.24093463424E-02  0.46000608104E-01  0.51100000000E-03 0.  1.
         11    1    4    4    0    0 -0.41262237767E-01  0.76559657249E-01 -0.51759601958E-02  0.87126374128E-01  0.51100000000E-03 0. -1.
</event>
<event>
 8    1  0.1199892E+005  0.1043930E+01  0.7957747E-01            NaN
         13   -1    0    0    0    0  0.00000000000E+00  0.00000000000E+00  0.74505805969E-08  0.10566000000E+00  0.10566000000E+00 0.  1.
     999900   -1    0    0    0    0 -0.00000000000E+00 -0.00000000000E+00 -0.74505805969E-08  0.93827000000E+00  0.93827000000E+00 0. -1.
     999902    2    1    2    0    0  0.20340080285E-01  0.11905219366E-01 -0.25287722922E-02  0.10202266710E+01  0.10199512795E+01 0.  0.
     999903    2    3    3    0    0  0.21313854967E-01  0.12795344535E+00  0.17118720345E-01  0.13238988258E+00  0.20190736278E-01 0.  0.
         14    1    1    2    0    0 -0.20340080285E-01 -0.11905219366E-01  0.25287722922E-02  0.23703328953E-01  0.00000000000E+00 0.  1.
     999901    1    3    3    0    0 -0.97377468160E-03 -0.11604822599E+00 -0.19647492637E-01  0.88783678847E+00  0.88000000000E+00 0.  1.
        -11    1    4    4    0    0  0.19084164631E-01  0.77687570233E-01  0.26899976823E-02  0.80044119815E-01  0.51100000000E-03 0. -1.
         11    1    4    4    0    0  0.22296903354E-02  0.50265875120E-01  0.14428722663E-01  0.52345762763E-01  0.51100000000E-03 0.  1.
</event>
<event>
 8    1  0.1199892E+005  0.1043930E+01  0.7957747E-01            NaN
         13   -1    0    0    0    0  0.00000000000E+00  0.00000000000E+00  0.74505805969E-08  0.10566000000E+00  0.10566000000E+00 0.  1.
     999900   -1    0    0    0    0 -0.00000000000E+00 -0.00000000000E+00 -0.74505805969E-08  0.93827000000E+00  0.93827000000E+00 0.  1.
     999902    2    1    2    0    0 -0.19815975645E-02 -0.80758935911E-02 -0.24543584887E-01  0.10180160203E+01  0.10176861418E+01 0.  0.
     999903    2    3    3    0    0  0.10679181374E+00  0.30903024377E-01  0.57298415242E-01  0.12669726470E+00  0.20238579386E-01 0.  0.
         14    1    1    2    0    0  0.19815975645E-02  0.80758935911E-02  0.24543584887E-01  0.25913979727E-01  0.00000000000E+00 0.  1.
     999901    1    3    3    0    0 -0.10877341130E+00 -0.38978917968E-01 -0.81842000129E-01  0.89131875557E+00  0.88000000000E+00 0.  1.
        -11    1    4    4    0    0  0.60059789005E-01  0.69161405821E-02  0.29798844679E-01  0.67403586856E-01  0.51100000000E-03 0. -1.
         11    1    4    4    0    0  0.46732024734E-01  0.23986883795E-01  0.27499570563E-01  0.59293677843E-01  0.51100000000E-03 0.  1.
</event>
<event>
 8    1  0.1199892E+005  0.1043930E+01  0.7957747E-01            NaN
         13   -1    0    0    0    0  0.00000000000E+00  0.00000000000E+00  0.74505805969E-08  0.10566000000E+00  0.10566000000E+00 0. -1.
     999900   -1    0    0    0    0 -0.00000000000E+00 -0.00000000000E+00 -0.74505805969E-08  0.93827000000E+00  0.93827000000E+00 0.  1.
     999902    2    1    2    0    0  0.56162418429E-02  0.14489349875E-01  0.18023827996E-01  0.10201320629E+01  0.10198544426E+01 0.  0.
     999903    2    3    3    0    0 -0.40405134840E-01 -0.89774225120E-01 -0.78533702593E-01  0.12754469081E+00  0.20201962636E-01 0.  0.
         14    1    1    2    0    0 -0.56162418429E-02 -0.14489349875E-01 -0.18023827996E-01  0.23797937051E-01  0.00000000000E+00 0.  1.
     999901    1    3    3    0    0  0.46021376683E-01  0.10426357500E+00  0.96557530589E-01  0.89258737214E+00  0.88000000000E+00 0. -1.
        -11    1    4    4    0    0 -0.24940169418E-01 -0.64106593779E-01 -0.43274636832E-01  0.81268830006E-01  0.51100000000E-03 0. -1.
         11    1    4    4    0    0 -0.15464965422E-01 -0.25667631341E-01 -0.35259065761E-01  0.46275860808E-01  0.51100000000E-03 0.  1.
</event>
<event>
 8    1  0.1199892E+005  0.1043930E+01  0.7957747E-01            NaN
         13   -1    0    0    0    0  0.00000000000E+00  0.00000000000E+00  0.74505805969E-08  0.10566000000E+00  0.10566000000E+00 0.  1.
     999900   -1    0    0    0    0 -0.00000000000E+00 -0.00000000000E+00 -0.74505805969E-08  0.93827000000E+00  0.93827000000E+00 0.  1.
     999902    2    1    2    0    0 -0.91419019520E-02  0.18214313994E-01  0.11944816296E-01  0.10203076749E+01  0.10200341844E+01 0.  0.
     999903    2    3    3    0    0  0.27707813275E-01 -0.10815621443E+00  0.61742698209E-01  0.12912461797E+00  0.19887597817E-01 0.  0.
         14    1    1    2    0    0  0.91419019520E-02 -0.18214313994E-01 -0.11944816296E-01  0.23622325074E-01  0.00000000000E+00 0.  1.
     999901    1    3    3    0    0 -0.36849715227E-01  0.12637052842E+00 -0.49797881913E-01  0.89118305696E+00  0.88000000000E+00 0.  1.
        -11    1    4    4    0    0  0.13523056145E-01 -0.59734489676E-01  0.22681271166E-01  0.65312965689E-01  0.51100000000E-03 0. -1.
         11    1    4    4    0    0  0.14184757129E-01 -0.48421724754E-01  0.39061427043E-01  0.63811652279E-01  0.51100000000E-03 0.  1.
</event>
<event>
 8    1  0.1199892E+005  0.1043930E+01  0.7957747E-01            NaN
         13   -1    0    0    0    0  0.00000000000E+00  0.00000000000E+00  0.74505805969E-08  0.10566000000E+00  0.10566000000E+00 0. -1.
     999900   -1    0    0    0    0 -0.00000000000E+00 -0.00000000000E+00 -0.74505805969E-08  0.93827000000E+00  0.93827000000E+00 0.  1.
     999902    2    1    2    0    0 -0.93781773854E-03 -0.18634690325E-01 -0.14684202598E-01  0.10201864326E+01  0.10199100942E+01 0.  0.
     999903    2    3    3    0    0 -0.11483668388E+00 -0.52374269959E-01  0.29190467322E-01  0.13112158820E+00  0.20254860933E-01 0.  0.
         14    1    1    2    0    0  0.93781773854E-03  0.18634690325E-01  0.14684202598E-01  0.23743567372E-01  0.00000000000E+00 0. -1.
     999901    1    3    3    0    0  0.11389886614E+00  0.33739579634E-01 -0.43874669920E-01  0.88906484443E+00  0.88000000000E+00 0.  1.
        -11    1    4    4    0    0 -0.12870606645E-02  0.12602217529E-02 -0.75720000343E-03  0.20196922701E-02  0.51100000000E-03 0. -1.
         11    1    4    4    0    0 -0.11354962321E+00 -0.53634491712E-01  0.29947667325E-01  0.12910189593E+00  0.51100000000E-03 0.  1.
</event>
<event>
 8    1  0.1199892E+005  0.1043930E+01  0.7957747E-01            NaN
         13   -1    0    0    0    0  0.00000000000E+00  0.00000000000E+00  0.74505805969E-08  0.10566000000E+00  0.10566000000E+00 0. -1.
     999900   -1    0    0    0    0 -0.00000000000E+00 -0.00000000000E+00 -0.74505805969E-08  0.93827000000E+00  0.93827000000E+00 0.  1.
     999902    2    1    2    0    0 -0.16533462067E-01  0.89103713061E-02  0.90323982858E-02  0.10230893113E+01  0.10228770232E+01 0.  0.
     999903    2    3    3    0    0 -0.21245945754E-01  0.79543150672E-01 -0.10342857570E+00  0.13311253205E+00  0.15587587581E-01 0.  0.
         14    1    1    2    0    0  0.16533462067E-01 -0.89103713061E-02 -0.90323982858E-02  0.20840688653E-01  0.00000000000E+00 0.  1.
     999901    1    3    3    0    0  0.47124836867E-02 -0.70632779366E-01  0.11246097399E+00  0.88997677930E+00  0.88000000000E+00 0. -1.
        -11    1    4    4    0    0 -0.84914256183E-02  0.10943197133E-01 -0.14244833237E-01  0.19875468987E-01  0.51100000000E-03 0. -1.
         11    1    4    4    0    0 -0.12754520135E-01  0.68599953540E-01 -0.89183742464E-01  0.11323706306E+00  0.51100000000E-03 0.  1.
</event>
<event>
 8    1  0.1199892E+005  0.1043930E+01  0.7957747E-01            NaN
         13   -1    0    0    0    0  0.00000000000E+00  0.00000000000E+00  0.74505805969E-08  0.10566000000E+00  0.10566000000E+00 0. -1.
     999900   -1    0    0    0    0 -0.00000000000E+00 -0.00000000000E+00 -0.74505805969E-08  0.93827000000E+00  0.93827000000E+00 0. -1.
     999902    2    1    2    0    0 -0.16849239634E-01  0.53398380982E-02  0.19701006232E-01  0.10174622764E+01  0.10171179595E+01 0.  0.
     999903    2    3    3    0    0 -0.32099413566E-01  0.31588789699E-01 -0.11753033693E+00  0.12630908146E+00  0.10600942203E-01 0.  0.
         14    1    1    2    0    0  0.16849239634E-01 -0.53398380982E-02 -0.19701006232E-01  0.26467723621E-01  0.00000000000E+00 0.  1.
     999901    1    3    3    0    0  0.15250173932E-01 -0.26248951601E-01  0.13723134316E+00  0.89115319492E+00  0.88000000000E+00 0.  1.
        -11    1    4    4    0    0  0.33306117498E-03  0.86766251616E-03 -0.71847049815E-02  0.72625666716E-02  0.51100000000E-03 0.  1.
         11    1    4    4    0    0 -0.32432474741E-01  0.30721127183E-01 -0.11034563195E+00  0.11904651479E+00  0.51100000000E-03 0. -1.
</event>
<event>
 8    1  0.1199892E+005  0.1043930E+01  0.7957747E-01            NaN
         13   -1    0    0    0    0  0.00000000000E+00  0.00000000000E+00  0.74505805969E-08  0.10566000000E+00  0.10566000000E+00 0. -1.
     999900   -1    0    0    0    0 -0.00000000000E+00 -0.00000000000E+00 -0.74505805969E-08  0.93827000000E+00  0.93827000000E+00 0. -1.
     999902    2    1    2    0    0  0.14585767118E-01  0.14880272193E-01 -0.10392837701E-01  0.10206452802E+01  0.10203796400E+01 0.  0.
     999903    2    3    3    0    0 -0.33662011787E-01  0.10700963841E+00 -0.68738607261E-01  0.13260254632E+00  0.16560356612E-01 0.  0.
         14    1    1    2    0    0 -0.14585767118E-01 -0.14880272193E-01  0.10392837701E-01  0.23284719849E-01  0.00000000000E+00 0. -1.
     999901    1    3    3    0    0  0.48247778905E-01 -0.92129366219E-01  0.58345769560E-01  0.88804273383E+00  0.88000000000E+00 0.  1.
        -11    1    4    4    0    0 -0.76415472041E-02  0.46226681846E-01 -0.22947586387E-01  0.52174248439E-01  0.51100000000E-03 0. -1.
         11    1    4    4    0    0 -0.26020464583E-01  0.60782956566E-01 -0.45791020874E-01  0.80428297879E-01  0.51100000000E-03 0.  1.
</event>
<event>
 8    1  0.1199892E+005  0.1043930E+01  0.7957747E-01            NaN
         13   -1    0    0    0    0  0.00000000000E+00  0.00000000000E+00  0.74505805969E-08  0.10566000000E+00  0.10566000000E+00 0. -1.
     999900   -1    0    0    0    0 -0.00000000000E+00 -0.00000000000E+00 -0.74505805969E-08  0.93827000000E+00  0.93827000000E+00 0.  1.
     999902    2    1    2    0    0 -0.20280636277E-01 -0.12418710574E-01 -0.35576916678E-03  0.10201464941E+01  0.10198692143E+01 0.  0.
     999903    2    3    3    0    0  0.44545118817E-01 -0.30067126133E-01  0.11647932458E+00  0.12988569850E+00  0.20360794099E-01 0.  0.
         14    1    1    2    0    0  0.20280636277E-01  0.12418710574E-01  0.35576916678E-03  0.23783505878E-01  0.00000000000E+00 0. -1.
     999901    1    3    3    0    0 -0.64825755095E-01  0.17648415559E-01 -0.11683509374E+00  0.89026079562E+00  0.88000000000E+00 0.  1.
        -11    1    4    4    0    0  0.23738460763E-01 -0.19530667199E-01  0.43494949308E-01  0.53263807758E-01  0.51100000000E-03 0. -1.
         11    1    4    4    0    0  0.20806658054E-01 -0.10536458935E-01  0.72984375268E-01  0.76621890740E-01  0.51100000000E-03 0.  1.
</event>
<event>
 8    1  0.1199892E+005  0.1043930E+01  0.7957747E-01            NaN
         13   -1    0    0    0    0  0.00000000000E+00  0.00000000000E+00  0.74505805969E-08  0.10566000000E+00  0.10566000000E+00 0. -1.
     999900   -1    0    0    0    0 -0.00000000000E+00 -0.00000000000E+00 -0.74505805969E-08  0.93827000000E+00  0.93827000000E+00 0.  1.
     999902    2    1    2    0    0 -0.24928878175E-02 -0.19153092691E-01  0.13501308933E-01  0.10203643302E+01  0.10200921652E+01 0.  0.
     999903    2    3    3    0    0 -0.84787490757E-01 -0.91803392566E-01  0.41422088728E-01  0.13310448232E+00  0.19601844414E-01 0.  0.
         14    1    1    2    0    0  0.24928878175E-02  0.19153092691E-01 -0.13501308933E-01  0.23565669780E-01  0.00000000000E+00 0.  1.
     999901    1    3    3    0    0  0.82294602940E-01  0.72650299875E-01 -0.27920779795E-01  0.88725984790E+00  0.88000000000E+00 0. -1.
        -11    1    4    4    0    0 -0.22101688439E-01 -0.36125371019E-01  0.96208086141E-02  0.43432109579E-01  0.51100000000E-03 0.  1.
         11    1    4    4    0    0 -0.62685802318E-01 -0.55678021547E-01  0.31801280114E-01  0.89672372744E-01  0.51100000000E-03 0. -1.
</event>
<event>
 8    1  0.1199892E+005  0.1043930E+01  0.7957747E-01            NaN
         13   -1    0    0    0    0  0.00000000000E+00  0.00000000000E+00  0.74505805969E-08  0.10566000000E+00  0.10566000000E+00 0. -1.
     999900   -1    0    0    0    0 -0.00000000000E+00 -0.00000000000E+00 -0.74505805969E-08  0.93827000000E+00  0.93827000000E+00 0. -1.
     999902    2    1    2    0    0  0.18398845641E-01  0.11695956384E-01 -0.91713591348E-02  0.10202777962E+01  0.10200036052E+01 0.  0.
     999903    2    3    3    0    0 -0.43874016008E-02  0.12974364190E+00  0.12226190934E-01  0.13184528650E+00  0.19520192665E-01 0.  0.
         14    1    1    2    0    0 -0.18398845641E-01 -0.11695956384E-01  0.91713591348E-02  0.23652203809E-01  0.00000000000E+00 0. -1.
     999901    1    3    3    0    0  0.22786247242E-01 -0.11804768552E+00 -0.21397550069E-01  0.88843250969E+00  0.88000000000E+00 0.  1.
        -11    1    4    4    0    0 -0.35923861104E-02  0.19821910677E-01 -0.45179668944E-02  0.20651550225E-01  0.51100000000E-03 0. -1.
         11    1    4    4    0    0 -0.79501549044E-03  0.10992173123E+00  0.16744157828E-01  0.11119373628E+00  0.51100000000E-03 0.  1.
</event>
<event>
 8    1  0.1199892E+005  0.1043930E+01  0.7957747E-01            NaN
         13   -1    0    0    0    0  0.00000000000E+00  0.00000000000E+00  0.74505805969E-08  0.10566000000E+00  0.10566000000E+00 0.  1.
     999900   -1    0    0    0    0 -0.00000000000E+00 -0.00000000000E+00 -0.74505805969E-08  0.93827000000E+00  0.93827000000E+00 0.  1.
     999902    2    1    2    0    0 -0.15744121915E-01  0.16695523466E-01 -0.53458791126E-02  0.10203673961E+01  0.10200953028E+01 0.  0.
     999903    2    3    3    0    0 -0.48392492204E-01 -0.36064608498E-01 -0.11492964659E+00  0.13140274569E+00  0.20380594243E-01 0.  0.
         14    1    1    2    0    0  0.15744121915E-01 -0.16695523466E-01  0.53458791126E-02  0.23562603892E-01  0.00000000000E+00 0. -1.
     999901    1    3    3    0    0  0.32648370289E-01  0.52760131963E-01  0.10958376747E+00  0.88896465042E+00  0.88000000000E+00 0. -1.
        -11    1    4    4    0    0 -0.23644371213E-01 -0.54148267760E-02 -0.41496161976E-01  0.48068380655E-01  0.51100000000E-03 0. -1.
         11    1    4    4    0    0 -0.24748120991E-01 -0.30649781722E-01 -0.73433484609E-01  0.83334365031E-01  0.51100000000E-03 0.  1.
</event>
<event>
 8    1  0.1199892E+005  0.1043930E+01  0.7957747E-01            NaN
         13   -1    0    0    0    0  0.00000000000E+00  0.00000000000E+00  0.74505805969E-08  0.10566000000E+00  0.10566000000E+00 0. -1.
     999900   -1    0    0    0    0 -0.00000000000E+00 -0.00000000000E+00 -0.74505805969E-08  0.93827000000E+00  0.93827000000E+00 0.  1.
     999902    2    1    2    0    0  0.40585166794E-03 -0.21535950866E-01 -0.10400824998E-01  0.10200105716E+01  0.10197300756E+01 0.  0.
     999903    2    3    3    0    0 -0.44116054041E-01 -0.11379736031E+00 -0.49568011892E-01  0.13320256739E+00  0.19745144190E-01 0.  0.
         14    1    1    2    0    0 -0.40585166794E-03  0.21535950866E-01  0.10400824998E-01  0.23919428419E-01  0.00000000000E+00 0. -1.
     999901    1    3    3    0    0  0.44521905708E-01  0.92261409447E-01  0.39167186895E-01  0.88680800419E+00  0.88000000000E+00 0. -1.
        -11    1    4    4    0    0 -0.15399658662E-01 -0.24129626663E-01 -0.18356830607E-01  0.34009156425E-01  0.51100000000E-03 0. -1.
         11    1    4    4    0    0 -0.28716395378E-01 -0.89667733650E-01 -0.31211181285E-01  0.99193410969E-01  0.51100000000E-03 0.  1.
</event>
<event>
 8    1  0.1199892E+005  0.1043930E+01  0.7957747E-01            NaN
         13   -1    0    0    0    0  0.00000000000E+00  0.00000000000E+00  0.74505805969E-08  0.10566000000E+00  0.10566000000E+00 0.  1.
     999900   -1    0    0    0    0 -0.00000000000E+00 -0.00000000000E+00 -0.74505805969E-08  0.93827000000E+00  0.93827000000E+00 0. -1.
     999902    2    1    2    0    0  0.31271695266E-02  0.20284131555E-01 -0.11150137105E-01  0.10205729724E+01  0.10203056607E+01 0.  0.
     999903    2    3    3    0    0 -0.71859749720E-01  0.10318249292E+00 -0.38544565113E-01  0.13307895489E+00  0.20343899824E-01 0.  0.
         14    1    1    2    0    0 -0.31271695266E-02 -0.20284131555E-01  0.11150137105E-01  0.23357027629E-01  0.00000000000E+00 0.  1.
     999901    1    3    3    0    0  0.74986919246E-01 -0.82898361366E-01  0.27394428007E-01  0.88749401748E+00  0.88000000000E+00 0.  1.
        -11    1    4    4    0    0 -0.11650654783E-01  0.31398677818E-01 -0.13359551855E-01  0.36060414202E-01  0.51100000000E-03 0. -1.
         11    1    4    4    0    0 -0.60209094937E-01  0.71783815103E-01 -0.25185013257E-01  0.97018540690E-01  0.51100000000E-03 0.  1.
</event>
<event>
 8    1  0.1199892E+005  0.1043930E+01  0.7957747E-01            NaN
         13   -1    0    0    0    0  0.00000000000E+00  0.00000000000E+00  0.74505805969E-08  0.10566000000E+00  0.10566000000E+00 0.  1.
     999900   -1    0    0    0    0 -0.00000000000E+00 -0.00000000000E+00 -0.74505805969E-08  0.93827000000E+00  0.93827000000E+00 0.  1.
     999902    2    1    2    0    0  0.15323062289E-01 -0.15031097260E-01 -0.97877851334E-02  0.10203390937E+01  0.10200663387E+01 0.  0.
     999903    2    3    3    0    0 -0.48088285859E-02 -0.13073848984E+00 -0.63995856980E-02  0.13253000744E+00  0.20188378289E-01 0.  0.
         14    1    1    2    0    0 -0.15323062289E-01  0.15031097260E-01  0.97877851334E-02  0.23590906311E-01  0.00000000000E+00 0.  1.
     999901    1    3    3    0    0  0.20131890875E-01  0.11570739258E+00 -0.33881994355E-02  0.88780908625E+00  0.88000000000E+00 0. -1.
        -11    1    4    4    0    0 -0.12020064210E-01 -0.99844183756E-01 -0.28937734459E-02  0.10060804152E+00  0.51100000000E-03 0. -1.
         11    1    4    4    0    0  0.72112356246E-02 -0.30894306082E-01 -0.35058122521E-02  0.31921965918E-01  0.51100000000E-03 0.  1.
</event>
<event>
 8    1  0.1199892E+005  0.1043930E+01  0.7957747E-01            NaN
         13   -1    0    0    0    0  0.00000000000E+00  0.00000000000E+00  0.74505805969E-08  0.10566000000E+00  0.10566000000E+00 0.  1.
     999900   -1    0    0    0    0 -0.00000000000E+00 -0.00000000000E+00 -0.74505805969E-08  0.93827000000E+00  0.93827000000E+00 0.  1.
     999902    2    1    2    0    0  0.71170555961E-02 -0.20851690010E-01  0.11365590657E-01  0.10191384267E+01  0.10188368420E+01 0.  0.
     999903    2    3    3    0    0  0.67174729041E-01  0.35356682559E-01  0.10398545912E+00  0.13046258853E+00  0.21094361152E-01 0.  0.
         14    1    1    2    0    0 -0.71170555961E-02  0.20851690010E-01 -0.11365590657E-01  0.24791573318E-01  0.00000000000E+00 0. -1.
     999901    1    3    3    0    0 -0.60057673445E-01 -0.56208372568E-01 -0.92619868468E-01  0.88867583816E+00  0.88000000000E+00 0.  1.
        -11    1    4    4    0    0  0.59342629334E-01  0.30634255371E-01  0.76806857977E-01  0.10178192281E+00  0.51100000000E-03 0. -1.
         11    1    4    4    0    0  0.78320997065E-02  0.47224271876E-02  0.27178601148E-01  0.28680665712E-01  0.51100000000E-03 0.  1.
</event>
<event>
 8    1  0.1199892E+005  0.1043930E+01  0.7957747E-01            NaN
         13   -1    0    0    0    0  0.00000000000E+00  0.00000000000E+00  0.74505805969E-08  0.10566000000E+00  0.10566000000E+00 0.  1.
     999900   -1    0    0    0    0 -0.00000000000E+00 -0.00000000000E+00 -0.74505805969E-08  0.93827000000E+00  0.93827000000E+00 0.  1.
     999902    2    1    2    0    0 -0.54419469600E-03 -0.23309857468E-01  0.25583223843E-02  0.10204738576E+01  0.10202042459E+01 0.  0.
     999903    2    3    3    0    0 -0.11047449985E-01 -0.82428415441E-01  0.10184510067E+00  0.13285728125E+00  0.19030050595E-01 0.  0.
         14    1    1    2    0    0  0.54419469600E-03  0.23309857468E-01 -0.25583223843E-02  0.23456142404E-01  0.00000000000E+00 0.  1.
     999901    1    3    3    0    0  0.10503255289E-01  0.59118557973E-01 -0.99286778289E-01  0.88761657635E+00  0.88000000000E+00 0.  1.
        -11    1    4    4    0    0 -0.13704934656E-01 -0.33421931507E-01  0.39905954465E-01  0.53829332732E-01  0.51100000000E-03 0. -1.
         11    1    4    4    0    0  0.26574846709E-02 -0.49006483934E-01  0.61939146208E-01  0.79027948514E-01  0.51100000000E-03 0.  1.
</event>
<event>
 8    1  0.1199892E+005  0.1043930E+01  0.7957747E-01            NaN
         13   -1    0    0    0    0  0.00000000000E+00  0.00000000000E+00  0.74505805969E-08  0.10566000000E+00  0.10566000000E+00 0. -1.
     999900   -1    0    0    0    0 -0.00000000000E+00 -0.00000000000E+00 -0.74505805969E-08  0.93827000000E+00  0.93827000000E+00 0.  1.
     999902    2    1    2    0    0 -0.11465812589E-01  0.43274768978E-02  0.20876581476E-01  0.10197220763E+01  0.10194346911E+01 0.  0.
     999903    2    3    3    0    0 -0.26033355627E-01  0.10774308346E+00  0.71653137281E-01  0.13209306620E+00  0.53007939309E-02 0.  0.
         14    1    1    2    0    0  0.11465812589E-01 -0.43274768978E-02 -0.20876581476E-01  0.24207923677E-01  0.00000000000E+00 0.  1.
     999901    1    3    3    0    0  0.14567543038E-01 -0.10341560657E+00 -0.50776555805E-01  0.88762901012E+00  0.88000000000E+00 0.  1.
        -11    1    4    4    0    0 -0.49499736490E-02  0.17598467450E-01  0.97504184175E-02  0.20725348635E-01  0.51100000000E-03 0. -1.
         11    1    4    4    0    0 -0.21083381978E-01  0.90144616015E-01  0.61902718864E-01  0.11136771757E+00  0.51100000000E-03 0.  1.
</event>
<event>
 7    1  0.1199892E+005  0.1043930E+01  0.7957747E-01            NaN
         13   -1    0    0    0    0  0.00000000000E+00  0.00000000000E+00  0.74505805969E-08  0.10566000000E+00  0.10566000000E+00 0.  1.
     999900   -1    0    0    0    0 -0.00000000000E+00 -0.00000000000E+00 -0.74505805969E-08  0.93827000000E+00  0.93827000000E+00 0.  1.
     999903    2    1    2    0    0  0.53904209026E-01  0.95817379931E-01 -0.41237455072E-01  0.11908277612E+00  0.19837989309E-01 0.  0.
         14    1    1    2    0    0 -0.32565658162E-01 -0.16196621370E-01 -0.14693815516E-01  0.39227042327E-01  0.00000000000E+00 0. -1.
     999901    1    1    2    0    0 -0.21338550864E-01 -0.79620758560E-01  0.55931270588E-01  0.88562018155E+00  0.88000000000E+00 0. -1.
        -11    1    3    3    0    0  0.23878665090E-01  0.34337297843E-01 -0.25110831246E-01  0.48785813886E-01  0.51100000000E-03 0.  1.
         11    1    3    3    0    0  0.30025543936E-01  0.61480082087E-01 -0.16126623826E-01  0.70296962233E-01  0.51100000000E-03 0. -1.
</event>
<event>
 8    1  0.1199892E+005  0.1043930E+01  0.7957747E-01            NaN
         13   -1    0    0    0    0  0.00000000000E+00  0.00000000000E+00  0.74505805969E-08  0.10566000000E+00  0.10566000000E+00 0. -1.
     999900   -1    0    0    0    0 -0.00000000000E+00 -0.00000000000E+00 -0.74505805969E-08  0.93827000000E+00  0.93827000000E+00 0. -1.
     999902    2    1    2    0    0 -0.17612600772E-01  0.14562134939E-01  0.68227554701E-02  0.10200802731E+01  0.10198014288E+01 0.  0.
     999903    2    3    3    0    0 -0.60552776830E-01  0.34482027977E-02 -0.11400768380E+00  0.13071680791E+00  0.20263341768E-01 0.  0.
         14    1    1    2    0    0  0.17612600772E-01 -0.14562134939E-01 -0.68227554701E-02  0.23849726877E-01  0.00000000000E+00 0. -1.
     999901    1    3    3    0    0  0.42940176058E-01  0.11113932141E-01  0.12083043927E+00  0.88936346522E+00  0.88000000000E+00 0.  1.
        -11    1    4    4    0    0 -0.17910046617E-01  0.41872433794E-02 -0.18375779772E-01  0.26004483848E-01  0.51100000000E-03 0.  1.
         11    1    4    4    0    0 -0.42642730213E-01 -0.73904058167E-03 -0.95631904027E-01  0.10471232406E+00  0.51100000000E-03 0. -1.
</event>
<event>
 8    1  0.1199892E+005  0.1043930E+01  0.7957747E-01            NaN
         13   -1    0    0    0    0  0.00000000000E+00  0.00000000000E+00  0.74505805969E-08  0.10566000000E+00  0.10566000000E+00 0. -1.
     999900   -1    0    0    0    0 -0.00000000000E+00 -0.00000000000E+00 -0.74505805969E-08  0.93827000000E+00  0.93827000000E+00 0. -1.
     999902    2    1    2    0    0 -0.19665009833E-01  0.10929291835E-01  0.79786047544E-02  0.10200590937E+01  0.10197797481E+01 0.  0.
     999903    2    3    3    0    0 -0.90249263245E-01 -0.92015630496E-01  0.14280846256E-01  0.13122867566E+00  0.20130001817E-01 0.  0.
         14    1    1    2    0    0  0.19665009833E-01 -0.10929291835E-01 -0.79786047544E-02  0.23870906258E-01  0.00000000000E+00 0.  1.
     999901    1    3    3    0    0  0.70584253412E-01  0.10294492233E+00 -0.63022415015E-02  0.88883041808E+00  0.88000000000E+00 0. -1.
        -11    1    4    4    0    0 -0.79508326965E-01 -0.77859942161E-01  0.18863192801E-01  0.11287083686E+00  0.51100000000E-03 0.  1.
         11    1    4    4    0    0 -0.10740936281E-01 -0.14155688335E-01 -0.45823465452E-02  0.18357838797E-01  0.51100000000E-03 0. -1.
</event>
<event>
 8    1  0.1244355E+005  0.1043930E+01  0.7957747E-01            NaN
         13   -1    0    0    0    0  0.00000000000E+00  0.00000000000E+00  0.74505805969E-08  0.10566000000E+00  0.10566000000E+00 0. -1.
     999900   -1    0    0    0    0 -0.00000000000E+00 -0.00000000000E+00 -0.74505805969E-08  0.93827000000E+00  0.93827000000E+00 0.  1.
     999902    2    1    2    0    0 -0.39557388270E-02  0.23496011226E-01 -0.61076694117E-02  0.10193329669E+01  0.10190361541E+01 0.  0.
     999903    2    3    3    0    0 -0.94402141469E-01  0.85272084696E-01 -0.29975342686E-01  0.13222164306E+00  0.20023710489E-01 0.  0.
         14    1    1    2    0    0  0.39557388270E-02 -0.23496011226E-01  0.61076694117E-02  0.24597033131E-01  0.00000000000E+00 0. -1.
     999901    1    3    3    0    0  0.90446402642E-01 -0.61776073470E-01  0.23867673274E-01  0.88711132381E+00  0.88000000000E+00 0.  1.
        -11    1    4    4    0    0 -0.52712155738E-01  0.36568008457E-01 -0.91140248157E-02  0.64800595479E-01  0.51100000000E-03 0. -1.
         11    1    4    4    0    0 -0.41689985731E-01  0.48704076239E-01 -0.20861317870E-01  0.67421047580E-01  0.51100000000E-03 0.  1.
</event>
<event>
 8    1  0.1199892E+005  0.1043930E+01  0.7957747E-01            NaN
         13   -1    0    0    0    0  0.00000000000E+00  0.00000000000E+00  0.74505805969E-08  0.10566000000E+00  0.10566000000E+00 0.  1.
     999900   -1    0    0    0    0 -0.00000000000E+00 -0.00000000000E+00 -0.74505805969E-08  0.93827000000E+00  0.93827000000E+00 0. -1.
     999902    2    1    2    0    0  0.18583396686E-01 -0.34483495779E-02  0.14479147437E-01  0.10201207695E+01  0.10198428824E+01 0.  0.
     999903    2    3    3    0    0  0.53176430679E-02 -0.78571604047E-01  0.10428164881E+00  0.13226719325E+00  0.20449299307E-01 0.  0.
         14    1    1    2    0    0 -0.18583396686E-01  0.34483495779E-02 -0.14479147437E-01  0.23809230515E-01  0.00000000000E+00 0.  1.
     999901    1    3    3    0    0  0.13265753618E-01  0.75123254469E-01 -0.89802501369E-01  0.88785357623E+00  0.88000000000E+00 0. -1.
        -11    1    4    4    0    0  0.91199708164E-02 -0.23154721886E-01  0.41913790268E-01  0.48747737886E-01  0.51100000000E-03 0. -1.
         11    1    4    4    0    0 -0.38023277485E-02 -0.55416882160E-01  0.62367858539E-01  0.83519455364E-01  0.51100000000E-03 0.  1.
</event>
<event>
 8    1  0.1199892E+005  0.1043930E+01  0.7957747E-01            NaN
         13   -1    0    0    0    0  0.00000000000E+00  0.00000000000E+00  0.74505805969E-08  0.10566000000E+00  0.10566000000E+00 0.  1.
     999900   -1    0    0    0    0 -0.00000000000E+00 -0.00000000000E+00 -0.74505805969E-08  0.93827000000E+00  0.93827000000E+00 0.  1.
     999902    2    1    2    0    0  0.11670099463E-01 -0.14996731926E-01  0.16156437152E-01  0.10189875933E+01  0.10186822820E+01 0.  0.
     999903    2    3    3    0    0 -0.13547499921E-01  0.73397276807E-01 -0.10019714696E+00  0.12658208872E+00  0.20319004118E-01 0.  0.
         14    1    1    2    0    0 -0.11670099463E-01  0.14996731926E-01 -0.16156437152E-01  0.24942406688E-01  0.00000000000E+00 0. -1.
     999901    1    3    3    0    0  0.25217599383E-01 -0.88394008733E-01  0.11635358411E+00  0.89240550460E+00  0.88000000000E+00 0. -1.
        -11    1    4    4    0    0 -0.67886630884E-02  0.39122319181E-01 -0.36523067899E-01  0.53952177105E-01  0.51100000000E-03 0.  1.
         11    1    4    4    0    0 -0.67588368325E-02  0.34274957626E-01 -0.63674079059E-01  0.72629911611E-01  0.51100000000E-03 0. -1.
</event>
<event>
 8    1  0.1199892E+005  0.1043930E+01  0.7957747E-01            NaN
         13   -1    0    0    0    0  0.00000000000E+00  0.00000000000E+00  0.74505805969E-08  0.10566000000E+00  0.10566000000E+00 0.  1.
     999900   -1    0    0    0    0 -0.00000000000E+00 -0.00000000000E+00 -0.74505805969E-08  0.93827000000E+00  0.93827000000E+00 0.  1.
     999902    2    1    2    0    0 -0.64159378945E-02  0.21107356418E-01 -0.80282375321E-02  0.10204536853E+01  0.10201836043E+01 0.  0.
     999903    2    3    3    0    0  0.91298859557E-01 -0.79479587900E-01  0.37213806167E-01  0.12820217506E+00  0.19961053863E-01 0.  0.
         14    1    1    2    0    0  0.64159378945E-02 -0.21107356418E-01  0.80282375321E-02  0.23476314700E-01  0.00000000000E+00 0.  1.
     999901    1    3    3    0    0 -0.97714797451E-01  0.10058694432E+00 -0.45242043699E-01  0.89225151024E+00  0.88000000000E+00 0.  1.
        -11    1    4    4    0    0  0.82385314527E-01 -0.62310962869E-01  0.30235343324E-01  0.10763100506E+00  0.51100000000E-03 0.  1.
         11    1    4    4    0    0  0.89135450295E-02 -0.17168625032E-01  0.69784628434E-02  0.20571169999E-01  0.51100000000E-03 0. -1.
</event>
<event>
 8    1  0.1199892E+005  0.1043930E+01  0.7957747E-01            NaN
         13   -1    0    0    0    0  0.00000000000E+00  0.00000000000E+00  0.74505805969E-08  0.10566000000E+00  0.10566000000E+00 0. -1.
     999900   -1    0    0    0    0 -0.00000000000E+00 -0.00000000000E+00 -0.74505805969E-08  0.93827000000E+00  0.93827000000E+00 0. -1.
     999902    2    1    2    0    0 -0.12389943777E-01  0.18517785287E-01 -0.24718711238E-02  0.10215128364E+01  0.10212668337E+01 0.  0.
     999903    2    3    3    0    0  0.15699797117E-01 -0.12657841258E+00 -0.38448683935E-02  0.12918788137E+00  0.20153101953E-01 0.  0.
         14    1    1    2    0    0  0.12389943777E-01 -0.18517785287E-01  0.24718711238E-02  0.22417163638E-01  0.00000000000E+00 0. -1.
     999901    1    3    3    0    0 -0.28089740894E-01  0.14509619787E+00  0.13729972697E-02  0.89232495499E+00  0.88000000000E+00 0.  1.
        -11    1    4    4    0    0  0.77029694335E-03 -0.69100531572E-01  0.43213714755E-02  0.69241694039E-01  0.51100000000E-03 0. -1.
         11    1    4    4    0    0  0.14929500173E-01 -0.57477881010E-01 -0.81662398691E-02  0.59946187331E-01  0.51100000000E-03 0.  1.
</event>
<event>
 8    1  0.1199892E+005  0.1043930E+01  0.7957747E-01            NaN
         13   -1    0    0    0    0  0.00000000000E+00  0.00000000000E+00  0.74505805969E-08  0.10566000000E+00  0.10566000000E+00 0.  1.
     999900   -1    0    0    0    0 -0.00000000000E+00 -0.00000000000E+00 -0.74505805969E-08  0.93827000000E+00  0.93827000000E+00 0. -1.
     999902    2    1    2    0    0  0.49546426601E-02 -0.62936929044E-02  0.22160849685E-01  0.10203659954E+01  0.10200938693E+01 0.  0.
     999903    2    3    3    0    0  0.11265148854E+00 -0.17064775530E-01 -0.59159712077E-01  0.13001344691E+00  0.20544108888E-01 0.  0.
         14    1    1    2    0    0 -0.49546426601E-02  0.62936929044E-02 -0.22160849685E-01  0.23564004605E-01  0.00000000000E+00 0. -1.
     999901    1    3    3    0    0 -0.10769684588E+00  0.10771082625E-01  0.81320561762E-01  0.89035254849E+00  0.88000000000E+00 0.  1.
        -11    1    4    4    0    0  0.45083302357E-01 -0.17825449909E-02 -0.33253872084E-01  0.56051429488E-01  0.51100000000E-03 0.  1.
         11    1    4    4    0    0  0.67568186181E-01 -0.15282230539E-01 -0.25905839993E-01  0.73962017420E-01  0.51100000000E-03 0. -1.
</event>
<event>
 8    1  0.1199892E+005  0.1043930E+01  0.7957747E-01            NaN
         13   -1    0    0    0    0  0.00000000000E+00  0.00000000000E+00  0.74505805969E-08  0.10566000000E+00  0.10566000000E+00 0.  1.
     999900   -1    0    0    0    0 -0.00000000000E+00 -0.00000000000E+00 -0.74505805969E-08  0.93827000000E+00  0.93827000000E+00 0. -1.
     999902    2    1    2    0    0  0.15676802005E-01 -0.60248445548E-02 -0.14207690543E-01  0.10219318332E+01  0.10216950388E+01 0.  0.
     999903    2    3    3    0    0 -0.50362522812E-01 -0.77042867603E-01  0.90425195400E-01  0.13044274584E+00  0.19146979574E-01 0.  0.
         14    1    1    2    0    0 -0.15676802005E-01  0.60248445548E-02  0.14207690543E-01  0.21998166823E-01  0.00000000000E+00 0.  1.
     999901    1    3    3    0    0  0.66039324817E-01  0.71018023048E-01 -0.10463288594E+00  0.89148908734E+00  0.88000000000E+00 0. -1.
        -11    1    4    4    0    0 -0.30604120094E-01 -0.38923291671E-01  0.36527175165E-01  0.61531540268E-01  0.51100000000E-03 0.  1.
         11    1    4    4    0    0 -0.19758402718E-01 -0.38119575931E-01  0.53898020234E-01  0.68911205572E-01  0.51100000000E-03 0. -1.
</event>
<event>
 8    1  0.1199892E+005  0.1043930E+01  0.7957747E-01            NaN
         13   -1    0    0    0    0  0.00000000000E+00  0.00000000000E+00  0.74505805969E-08  0.10566000000E+00  0.10566000000E+00 0. -1.
     999900   -1    0    0    0    0 -0.00000000000E+00 -0.00000000000E+00 -0.74505805969E-08  0.93827000000E+00  0.93827000000E+00 0.  1.
     999902    2    1    2    0    0  0.32908223747E-02  0.14508373285E-01 -0.17872890009E-01  0.10206756971E+01  0.10204107585E+01 0.  0.
     999903    2    3    3    0    0 -0.75259991778E-01  0.71598704288E-01 -0.80812454953E-01  0.13309982700E+00  0.19861275246E-01 0.  0.
         14    1    1    2    0    0 -0.32908223747E-02 -0.14508373285E-01  0.17872890009E-01  0.23254302926E-01  0.00000000000E+00 0. -1.
     999901    1    3    3    0    0  0.78550814153E-01 -0.57090331003E-01  0.62939564944E-01  0.88757587007E+00  0.88000000000E+00 0. -1.
        -11    1    4    4    0    0 -0.47579768331E-01  0.32959450173E-01 -0.49671561238E-01  0.76273749266E-01  0.51100000000E-03 0.  1.
         11    1    4    4    0    0 -0.27680223447E-01  0.38639254115E-01 -0.31140893715E-01  0.56826077737E-01  0.51100000000E-03 0. -1.
</event>
<event>
 8    1  0.1199892E+005  0.1043930E+01  0.7957747E-01            NaN
         13   -1    0    0    0    0  0.00000000000E+00  0.00000000000E+00  0.74505805969E-08  0.10566000000E+00  0.10566000000E+00 0. -1.
     999900   -1    0    0    0    0 -0.00000000000E+00 -0.00000000000E+00 -0.74505805969E-08  0.93827000000E+00  0.93827000000E+00 0.  1.
     999902    2    1    2    0    0 -0.19430861578E-01 -0.49877561760E-02  0.12200309342E-01  0.10204505698E+01  0.10201804163E+01 0.  0.
     999903    2    3    3    0    0 -0.38648415858E-01  0.99840947730E-02  0.12524825295E+00  0.13288462395E+00  0.19437495220E-01 0.  0.
         14    1    1    2    0    0  0.19430861578E-01  0.49877561760E-02 -0.12200309342E-01  0.23479430176E-01  0.00000000000E+00 0.  1.
     999901    1    3    3    0    0  0.19217554280E-01 -0.14971850949E-01 -0.11304794361E+00  0.88756594587E+00  0.88000000000E+00 0.  1.
        -11    1    4    4    0    0 -0.18540761350E-01  0.12999168804E-01  0.82367836956E-01  0.85425171389E-01  0.51100000000E-03 0. -1.
         11    1    4    4    0    0 -0.20107654508E-01 -0.30150740315E-02  0.42880415991E-01  0.47459452565E-01  0.51100000000E-03 0.  1.
</event>
<event>
 8    1  0.1199892E+005  0.1043930E+01  0.7957747E-01            NaN
         13   -1    0    0    0    0  0.00000000000E+00  0.00000000000E+00  0.74505805969E-08  0.10566000000E+00  0.10566000000E+00 0. -1.
     999900   -1    0    0    0    0 -0.00000000000E+00 -0.00000000000E+00 -0.74505805969E-08  0.93827000000E+00  0.93827000000E+00 0.  1.
     999902    2    1    2    0    0  0.18804084189E-01  0.56116932438E-02 -0.13923455668E-01  0.10198686762E+01  0.10195848025E+01 0.  0.
     999903    2    3    3    0    0  0.12281704412E-01 -0.12488442115E+00  0.24664357686E-01  0.12938521393E+00  0.19627636998E-01 0.  0.
         14    1    1    2    0    0 -0.18804084189E-01 -0.56116932438E-02  0.13923455668E-01  0.24061323758E-01  0.00000000000E+00 0.  1.
     999901    1    3    3    0    0  0.65223797765E-02  0.13049611440E+00 -0.38587813353E-01  0.89048346231E+00  0.88000000000E+00 0. -1.
        -11    1    4    4    0    0  0.15663704246E-01 -0.86659420579E-01  0.11501978769E-01  0.88813081482E-01  0.51100000000E-03 0.  1.
         11    1    4    4    0    0 -0.33819998336E-02 -0.38225000574E-01  0.13162378916E-01  0.40572132449E-01  0.51100000000E-03 0. -1.
</event>
<event>
 8    1  0.1199892E+005  0.1043930E+01  0.7957747E-01            NaN
         13   -1    0    0    0    0  0.00000000000E+00  0.00000000000E+00  0.74505805969E-08  0.10566000000E+00  0.10566000000E+00 0. -1.
     999900   -1    0    0    0    0 -0.00000000000E+00 -0.00000000000E+00 -0.74505805969E-08  0.93827000000E+00  0.93827000000E+00 0. -1.
     999902    2    1    2    0    0 -0.14133063169E-01  0.10043484717E-01  0.16352825269E-01  0.10200966210E+01  0.10198181633E+01 0.  0.
     999903    2    3    3    0    0  0.79033437789E-01 -0.48114161767E-01 -0.84951230620E-01  0.12750218876E+00  0.21882406255E-01 0.  0.
         14    1    1    2    0    0  0.14133063169E-01 -0.10043484717E-01 -0.16352825269E-01  0.23833378989E-01  0.00000000000E+00 0.  1.
     999901    1    3    3    0    0 -0.93166500958E-01  0.58157646484E-01  0.10130405589E+00  0.89259443225E+00  0.88000000000E+00 0.  1.
        -11    1    4    4    0    0  0.16796804891E-01 -0.19405435776E-01 -0.31171029522E-01  0.40380661147E-01  0.51100000000E-03 0. -1.
         11    1    4    4    0    0  0.62236632898E-01 -0.28708725990E-01 -0.53780201098E-01  0.87121527613E-01  0.51100000000E-03 0.  1.
</event>
<event>
 8    1  0.1199892E+005  0.1043930E+01  0.7957747E-01            NaN
         13   -1    0    0    0    0  0.00000000000E+00  0.00000000000E+00  0.74505805969E-08  0.10566000000E+00  0.10566000000E+00 0. -1.
     999900   -1    0    0    0    0 -0.00000000000E+00 -0.00000000000E+00 -0.74505805969E-08  0.93827000000E+00  0.93827000000E+00 0. -1.
     999902    2    1    2    0    0  0.14721455145E-01  0.12929291350E-01  0.16509985128E-01  0.10183083797E+01  0.10179859964E+01 0.  0.
     999903    2    3    3    0    0 -0.31516135318E-01  0.78089341304E-01  0.97860624335E-01  0.13095181477E+00  0.21919488701E-01 0.  0.
         14    1    1    2    0    0 -0.14721455145E-01 -0.12929291350E-01 -0.16509985128E-01  0.25621620271E-01  0.00000000000E+00 0.  1.
     999901    1    3    3    0    0  0.46237590463E-01 -0.65160049954E-01 -0.81350639207E-01  0.88735656496E+00  0.88000000000E+00 0. -1.
        -11    1    4    4    0    0 -0.81240866610E-02  0.48697062163E-01  0.58249088067E-01  0.76358509866E-01  0.51100000000E-03 0. -1.
         11    1    4    4    0    0 -0.23392048657E-01  0.29392279141E-01  0.39611536268E-01  0.54593304901E-01  0.51100000000E-03 0.  1.
</event>
<event>
 8    1  0.1199892E+005  0.1043930E+01  0.7957747E-01            NaN
         13   -1    0    0    0    0  0.00000000000E+00  0.00000000000E+00  0.74505805969E-08  0.10566000000E+00  0.10566000000E+00 0.  1.
     999900   -1    0    0    0    0 -0.00000000000E+00 -0.00000000000E+00 -0.74505805969E-08  0.93827000000E+00  0.93827000000E+00 0.  1.
     999902    2    1    2    0    0  0.26183400598E-02  0.17183488226E-01  0.17101521918E-01  0.10195457833E+01  0.10192541460E+01 0.  0.
     999903    2    3    3    0    0 -0.33030995884E-01 -0.15127929662E-01  0.12491062328E+00  0.13166194787E+00  0.20305264429E-01 0.  0.
         14    1    1    2    0    0 -0.26183400598E-02 -0.17183488226E-01 -0.17101521918E-01  0.24384216703E-01  0.00000000000E+00 0. -1.
     999901    1    3    3    0    0  0.35649335944E-01  0.32311417888E-01 -0.10780910136E+00  0.88788383543E+00  0.88000000000E+00 0.  1.
        -11    1    4    4    0    0 -0.13473303264E-01 -0.17177050900E-01  0.70508452935E-01  0.73812492403E-01  0.51100000000E-03 0.  1.
         11    1    4    4    0    0 -0.19557692620E-01  0.20491212381E-02  0.54402170344E-01  0.57849455465E-01  0.51100000000E-03 0. -1.
</event>
<event>
 8    1  0.1199892E+005  0.1043930E+01  0.7957747E-01            NaN
         13   -1    0    0    0    0  0.00000000000E+00  0.00000000000E+00  0.74505805969E-08  0.10566000000E+00  0.10566000000E+00 0.  1.
     999900   -1    0    0    0    0 -0.00000000000E+00 -0.00000000000E+00 -0.74505805969E-08  0.93827000000E+00  0.93827000000E+00 0.  1.
     999902    2    1    2    0    0  0.28706056188E-01  0.65771002961E-02 -0.50462122422E-02  0.10140509075E+01  0.10136106170E+01 0.  0.
     999903    2    3    3    0    0 -0.11860433117E+00 -0.13099322645E-01  0.68133847383E-02  0.12151062165E+00  0.21905007105E-01 0.  0.
         14    1    1    2    0    0 -0.28706056188E-01 -0.65771002961E-02  0.50462122422E-02  0.29879092492E-01  0.00000000000E+00 0. -1.
     999901    1    3    3    0    0  0.14731038736E+00  0.19676422941E-01 -0.11859596980E-01  0.89254028586E+00  0.88000000000E+00 0. -1.
        -11    1    4    4    0    0 -0.96217275192E-01 -0.18606971625E-01  0.23926601279E-02  0.98030451299E-01  0.51100000000E-03 0. -1.
         11    1    4    4    0    0 -0.22387055975E-01  0.55076489797E-02  0.44207246104E-02  0.23480170348E-01  0.51100000000E-03 0.  1.
</event>
<event>
 8    1  0.1199892E+005  0.1043930E+01  0.7957747E-01            NaN
         13   -1    0    0    0    0  0.00000000000E+00  0.00000000000E+00  0.74505805969E-08  0.10566000000E+00  0.10566000000E+00 0. -1.
     999900   -1    0    0    0    0 -0.00000000000E+00 -0.00000000000E+00 -0.74505805969E-08  0.93827000000E+00  0.93827000000E+00 0. -1.
     999902    2    1    2    0    0 -0.13726579028E-01 -0.16781115282E-01  0.10105820927E-01  0.10200102923E+01  0.10197297896E+01 0.  0.
     999903    2    3    3    0    0 -0.41534863819E-01 -0.72446782739E-01  0.10173451891E+00  0.13306734847E+00  0.19578703993E-01 0.  0.
         14    1    1    2    0    0  0.13726579028E-01  0.16781115282E-01 -0.10105820927E-01  0.23919707743E-01  0.00000000000E+00 0.  1.
     999901    1    3    3    0    0  0.27808284791E-01  0.55665667457E-01 -0.91628697982E-01  0.88694294379E+00  0.88000000000E+00 0. -1.
        -11    1    4    4    0    0 -0.14483239929E-01 -0.25962976553E-01  0.22432827627E-01  0.37246922916E-01  0.51100000000E-03 0.  1.
         11    1    4    4    0    0 -0.27051623890E-01 -0.46483806185E-01  0.79301691282E-01  0.95820425556E-01  0.51100000000E-03 0. -1.
</event>
<event>
 8    1  0.1199892E+005  0.1043930E+01  0.7957747E-01            NaN
         13   -1    0    0    0    0  0.00000000000E+00  0.00000000000E+00  0.74505805969E-08  0.10566000000E+00  0.10566000000E+00 0.  1.
     999900   -1    0    0    0    0 -0.00000000000E+00 -0.00000000000E+00 -0.74505805969E-08  0.93827000000E+00  0.93827000000E+00 0.  1.
     999902    2    1    2    0    0 -0.86569119865E-02  0.23492878631E-01 -0.91108923698E-03  0.10188763066E+01  0.10185682307E+01 0.  0.
     999903    2    3    3    0    0 -0.36770898628E-01  0.12549728998E+00  0.75159127322E-02  0.13249810819E+00  0.19939682810E-01 0.  0.
         14    1    1    2    0    0  0.86569119865E-02 -0.23492878631E-01  0.91108923698E-03  0.25053693442E-01  0.00000000000E+00 0.  1.
     999901    1    3    3    0    0  0.28113986642E-01 -0.10200441135E+00 -0.84270019692E-02  0.88637819837E+00  0.88000000000E+00 0.  1.
        -11    1    4    4    0    0 -0.19082691359E-02  0.37827988825E-01  0.39144908732E-02  0.38081262971E-01  0.51100000000E-03 0. -1.
         11    1    4    4    0    0 -0.34862629492E-01  0.87669301158E-01  0.36014218590E-02  0.94416845219E-01  0.51100000000E-03 0.  1.
</event>
<event>
 8    1  0.1199892E+005  0.1043930E+01  0.7957747E-01            NaN
         13   -1    0    0    0    0  0.00000000000E+00  0.00000000000E+00  0.74505805969E-08  0.10566000000E+00  0.10566000000E+00 0.  1.
     999900   -1    0    0    0    0 -0.00000000000E+00 -0.00000000000E+00 -0.74505805969E-08  0.93827000000E+00  0.93827000000E+00 0. -1.
     999902    2    1    2    0    0 -0.13544440332E-01  0.88786945539E-02 -0.17674042793E-01  0.10199580399E+01  0.10196762959E+01 0.  0.
     999903    2    3    3    0    0 -0.10474748553E-01  0.12890230353E+00  0.95686116522E-02  0.13138769835E+00  0.21110299297E-01 0.  0.
         14    1    1    2    0    0  0.13544440332E-01 -0.88786945539E-02  0.17674042793E-01  0.23971960069E-01  0.00000000000E+00 0.  1.
     999901    1    3    3    0    0 -0.30696917787E-02 -0.12002360897E+00 -0.27242654445E-01  0.88857034158E+00  0.88000000000E+00 0. -1.
        -11    1    4    4    0    0 -0.10907639189E-01  0.12067830641E+00  0.14075068587E-01  0.12198606030E+00  0.51100000000E-03 0. -1.
         11    1    4    4    0    0  0.43289063531E-03  0.82239971141E-02 -0.45064569348E-02  0.94016380456E-02  0.51100000000E-03 0.  1.
</event>
<event>
 8    1  0.1199892E+005  0.1043930E+01  0.7957747E-01            NaN
         13   -1    0    0    0    0  0.00000000000E+00  0.00000000000E+00  0.74505805969E-08  0.10566000000E+00  0.10566000000E+00 0. -1.
     999900   -1    0    0    0    0 -0.00000000000E+00 -0.00000000000E+00 -0.74505805969E-08  0.93827000000E+00  0.93827000000E+00 0. -1.
     999902    2    1    2    0    0  0.20054170169E-01 -0.13586436814E-01  0.14699245574E-02  0.10196622913E+01  0.10193734677E+01 0.  0.
     999903    2    3    3    0    0  0.22814043858E-01  0.26057805745E-01  0.12391655325E+00  0.13029596648E+00  0.20548403240E-01 0.  0.
         14    1    1    2    0    0 -0.20054170169E-01  0.13586436814E-01 -0.14699245574E-02  0.24267708682E-01  0.00000000000E+00 0. -1.
     999901    1    3    3    0    0 -0.27598736893E-02 -0.39644242559E-01 -0.12244662869E+00  0.88936632483E+00  0.88000000000E+00 0. -1.
        -11    1    4    4    0    0 -0.36209797600E-02  0.52962628546E-02  0.15376175346E-01  0.16668826711E-01  0.51100000000E-03 0. -1.
         11    1    4    4    0    0  0.26435023618E-01  0.20761542890E-01  0.10854037790E+00  0.11362713977E+00  0.51100000000E-03 0.  1.
</event>
<event>
 8    1  0.1199892E+005  0.1043930E+01  0.7957747E-01            NaN
         13   -1    0    0    0    0  0.00000000000E+00  0.00000000000E+00  0.74505805969E-08  0.10566000000E+00  0.10566000000E+00 0. -1.
     999900   -1    0    0    0    0 -0.00000000000E+00 -0.00000000000E+00 -0.74505805969E-08  0.93827000000E+00  0.93827000000E+00 0. -1.
     999902    2    1    2    0    0 -0.22225964737E-01 -0.76913752836E-03 -0.80782546497E-02  0.10202689924E+01  0.10199945949E+01 0.  0.
     999903    2    3    3    0    0 -0.89505848906E-01  0.57660848991E-01  0.75149030714E-01  0.13186175069E+00  0.20101591587E-01 0.  0.
         14    1    1    2    0    0  0.22225964737E-01  0.76913752836E-03  0.80782546497E-02  0.23661007570E-01  0.00000000000E+00 0. -1.
     999901    1    3    3    0    0  0.67279884169E-01 -0.58429986519E-01 -0.83227285363E-01  0.88840724174E+00  0.88000000000E+00 0. -1.
        -11    1    4    4    0    0 -0.16222263831E-01  0.20601078701E-01  0.18580728887E-01  0.32141420230E-01  0.51100000000E-03 0.  1.
         11    1    4    4    0    0 -0.73283585075E-01  0.37059770290E-01  0.56568301827E-01  0.99720330464E-01  0.51100000000E-03 0. -1.
</event>
<event>
 8    1  0.1199892E+005  0.1043930E+01  0.7957747E-01            NaN
         13   -1    0    0    0    0  0.00000000000E+00  0.00000000000E+00  0.74505805969E-08  0.10566000000E+00  0.10566000000E+00 0.  1.
     999900   -1    0    0    0    0 -0.00000000000E+00 -0.00000000000E+00 -0.74505805969E-08  0.93827000000E+00  0.93827000000E+00 0. -1.
     999902    2    1    2    0    0  0.12792235864E-01  0.17965652752E-01 -0.93367019586E-02  0.10199804701E+01  0.10196992593E+01 0.  0.
     999903    2    3    3    0    0  0.12391102713E+00 -0.11680629990E-01  0.36500423845E-01  0.13131443053E+00  0.20513872426E-01 0.  0.
         14    1    1    2    0    0 -0.12792235864E-01 -0.17965652752E-01  0.93367019586E-02  0.23949529863E-01  0.00000000000E+00 0. -1.
     999901    1    3    3    0    0 -0.11111879127E+00  0.29646282742E-01 -0.45837125804E-01  0.88866603961E+00  0.88000000000E+00 0. -1.
        -11    1    4    4    0    0  0.73248704573E-01 -0.15737885370E-01  0.16658603131E-01  0.76751703152E-01  0.51100000000E-03 0.  1.
         11    1    4    4    0    0  0.50662322559E-01  0.40572553804E-02  0.19841820715E-01  0.54562727375E-01  0.51100000000E-03 0. -1.
</event>
<event>
 8    1  0.1199892E+005  0.1043930E+01  0.7957747E-01            NaN
         13   -1    0    0    0    0  0.00000000000E+00  0.00000000000E+00  0.74505805969E-08  0.10566000000E+00  0.10566000000E+00 0. -1.
     999900   -1    0    0    0    0 -0.00000000000E+00 -0.00000000000E+00 -0.74505805969E-08  0.93827000000E+00  0.93827000000E+00 0. -1.
     999902    2    1    2    0    0  0.15405832162E-01 -0.13317919185E-01 -0.10973884604E-01  0.10207970629E+01  0.10205349141E+01 0.  0.
     999903    2    3    3    0    0 -0.29116730074E-01  0.56763100172E-01  0.10992726417E+00  0.12865879132E+00  0.19981182783E-01 0.  0.
         14    1    1    2    0    0 -0.15405832162E-01  0.13317919185E-01  0.10973884604E-01  0.23132937110E-01  0.00000000000E+00 0. -1.
     999901    1    3    3    0    0  0.44522562236E-01 -0.70081019358E-01 -0.12090114877E+00  0.89213827157E+00  0.88000000000E+00 0. -1.
        -11    1    4    4    0    0 -0.10273768546E-01  0.36442962412E-01  0.50828126952E-01  0.63382958592E-01  0.51100000000E-03 0.  1.
         11    1    4    4    0    0 -0.18842961528E-01  0.20320137761E-01  0.59099137217E-01  0.65275832730E-01  0.51100000000E-03 0. -1.
</event>
<event>
 8    1  0.1199892E+005  0.1043930E+01  0.7957747E-01            NaN
         13   -1    0    0    0    0  0.00000000000E+00  0.00000000000E+00  0.74505805969E-08  0.10566000000E+00  0.10566000000E+00 0. -1.
     999900   -1    0    0    0    0 -0.00000000000E+00 -0.00000000000E+00 -0.74505805969E-08  0.93827000000E+00  0.93827000000E+00 0. -1.
     999902    2    1    2    0    0  0.21300928344E-01  0.27735003835E-02  0.96949909534E-02  0.10203627621E+01  0.10200905605E+01 0.  0.
     999903    2    3    3    0    0  0.68919229744E-01 -0.39908195114E-01  0.10448571318E+00  0.13296515630E+00  0.20492541678E-01 0.  0.
         14    1    1    2    0    0 -0.21300928344E-01 -0.27735003835E-02 -0.96949909534E-02  0.23567237901E-01  0.00000000000E+00 0.  1.
     999901    1    3    3    0    0 -0.47618301400E-01  0.42681695498E-01 -0.94790722230E-01  0.88739760580E+00  0.88000000000E+00 0.  1.
        -11    1    4    4    0    0  0.58668576861E-02 -0.11775835450E-01  0.17889832415E-01  0.22212553759E-01  0.51100000000E-03 0.  1.
         11    1    4    4    0    0  0.63052372058E-01 -0.28132359665E-01  0.86595880768E-01  0.11075260254E+00  0.51100000000E-03 0. -1.
</event>
<event>
 7    1  0.1199892E+005  0.1043930E+01  0.7957747E-01            NaN
         13   -1    0    0    0    0  0.00000000000E+00  0.00000000000E+00  0.74505805969E-08  0.10566000000E+00  0.10566000000E+00 0.  1.
     999900   -1    0    0    0    0 -0.00000000000E+00 -0.00000000000E+00 -0.74505805969E-08  0.93827000000E+00  0.93827000000E+00 0. -1.
     999903    2    1    2    0    0  0.92188809111E-01  0.32284806768E-01 -0.43321402705E-01  0.10872606804E+00  0.20088022946E-01 0.  0.
         14    1    1    2    0    0  0.36082848543E-01  0.27588905232E-02 -0.22782890398E-01  0.42762641765E-01  0.00000000000E+00 0. -1.
     999901    1    1    2    0    0 -0.12827165765E+00 -0.35043697291E-01  0.66104293103E-01  0.89244129019E+00  0.88000000000E+00 0.  1.
        -11    1    3    3    0    0  0.28128143017E-01  0.17367228893E-01 -0.21441940539E-01  0.39405976756E-01  0.51100000000E-03 0.  1.
         11    1    3    3    0    0  0.64060666093E-01  0.14917577874E-01 -0.21879462167E-01  0.69320091284E-01  0.51100000000E-03 0. -1.
</event>
<event>
 8    1  0.1199892E+005  0.1043930E+01  0.7957747E-01            NaN
         13   -1    0    0    0    0  0.00000000000E+00  0.00000000000E+00  0.74505805969E-08  0.10566000000E+00  0.10566000000E+00 0. -1.
     999900   -1    0    0    0    0 -0.00000000000E+00 -0.00000000000E+00 -0.74505805969E-08  0.93827000000E+00  0.93827000000E+00 0. -1.
     999902    2    1    2    0    0 -0.19668448324E-01  0.12354205862E-01  0.11404675955E-01  0.10180545117E+01  0.10177256250E+01 0.  0.
     999903    2    3    3    0    0  0.10901300718E+00  0.25009105267E-01 -0.54458728347E-01  0.12617052175E+00  0.21070272547E-01 0.  0.
         14    1    1    2    0    0  0.19668448324E-01 -0.12354205862E-01 -0.11404675955E-01  0.25875488316E-01  0.00000000000E+00 0.  1.
     999901    1    3    3    0    0 -0.12868145551E+00 -0.12654899405E-01  0.65863404302E-01  0.89188398993E+00  0.88000000000E+00 0.  1.
        -11    1    4    4    0    0  0.76499121681E-01  0.20906086438E-01 -0.28190637385E-01  0.84167411896E-01  0.51100000000E-03 0. -1.
         11    1    4    4    0    0  0.32513885500E-01  0.41030188293E-02 -0.26268090962E-01  0.42003109856E-01  0.51100000000E-03 0.  1.
</event>
<event>
 8    1  0.1199892E+005  0.1043930E+01  0.7957747E-01            NaN
         13   -1    0    0    0    0  0.00000000000E+00  0.00000000000E+00  0.74505805969E-08  0.10566000000E+00  0.10566000000E+00 0. -1.
     999900   -1    0    0    0    0 -0.00000000000E+00 -0.00000000000E+00 -0.74505805969E-08  0.93827000000E+00  0.93827000000E+00 0. -1.
     999902    2    1    2    0    0 -0.15029241512E-01  0.37780505058E-02 -0.19034237602E-01  0.10193850623E+01  0.10190895207E+01 0.  0.
     999903    2    3    3    0    0 -0.51365459443E-01  0.10079288168E+00  0.60375072426E-01  0.12975702950E+00  0.19852503969E-01 0.  0.
         14    1    1    2    0    0  0.15029241512E-01 -0.37780505058E-02  0.19034237602E-01  0.24544937709E-01  0.00000000000E+00 0. -1.
     999901    1    3    3    0    0  0.36336217931E-01 -0.97014831176E-01 -0.79409310027E-01  0.88962803279E+00  0.88000000000E+00 0. -1.
        -11    1    4    4    0    0 -0.80473528318E-02  0.30092829662E-01  0.99204903688E-02  0.32695803015E-01  0.51100000000E-03 0. -1.
         11    1    4    4    0    0 -0.43318106611E-01  0.70700052020E-01  0.50454582057E-01  0.97061226489E-01  0.51100000000E-03 0.  1.
</event>
<event>
 8    1  0.1199892E+005  0.1043930E+01  0.7957747E-01            NaN
         13   -1    0    0    0    0  0.00000000000E+00  0.00000000000E+00  0.74505805969E-08  0.10566000000E+00  0.10566000000E+00 0.  1.
     999900   -1    0    0    0    0 -0.00000000000E+00 -0.00000000000E+00 -0.74505805969E-08  0.93827000000E+00  0.93827000000E+00 0.  1.
     999902    2    1    2    0    0 -0.16849427351E-01 -0.16459846222E-01 -0.57986725314E-02  0.10196719221E+01  0.10193833305E+01 0.  0.
     999903    2    3    3    0    0  0.98546605888E-01 -0.14274300288E-01  0.78381428463E-01  0.12815225856E+00  0.19083077977E-01 0.  0.
         14    1    1    2    0    0  0.16849427351E-01  0.16459846222E-01  0.57986725314E-02  0.24258077888E-01  0.00000000000E+00 0.  1.
     999901    1    3    3    0    0 -0.11539603324E+00 -0.21855459334E-02 -0.84180100994E-01  0.89151966355E+00  0.88000000000E+00 0. -1.
        -11    1    4    4    0    0  0.17639749866E-01  0.39926597381E-02  0.18292218971E-01  0.25728748571E-01  0.51100000000E-03 0. -1.
         11    1    4    4    0    0  0.80906856021E-01 -0.18266960027E-01  0.60089209492E-01  0.10242350999E+00  0.51100000000E-03 0.  1.
</event>
<event>
 8    1  0.1199892E+005  0.1043930E+01  0.7957747E-01            NaN
         13   -1    0    0    0    0  0.00000000000E+00  0.00000000000E+00  0.74505805969E-08  0.10566000000E+00  0.10566000000E+00 0. -1.
     999900   -1    0    0    0    0 -0.00000000000E+00 -0.00000000000E+00 -0.74505805969E-08  0.93827000000E+00  0.93827000000E+00 0. -1.
     999902    2    1    2    0    0  0.21431049201E-01 -0.44286938030E-02 -0.30119192463E-02  0.10218398471E+01  0.10216010465E+01 0.  0.
     999903    2    3    3    0    0  0.14917144421E-01  0.66408790504E-02  0.12911921938E+00  0.13188276710E+00  0.21322968191E-01 0.  0.
         14    1    1    2    0    0 -0.21431049201E-01  0.44286938030E-02  0.30119192463E-02  0.22090152924E-01  0.00000000000E+00 0. -1.
     999901    1    3    3    0    0  0.65139047803E-02 -0.11069572853E-01 -0.13213113863E+00  0.88995707997E+00  0.88000000000E+00 0. -1.
        -11    1    4    4    0    0  0.19197593757E-01  0.28293030895E-02  0.75494460630E-01  0.77950158876E-01  0.51100000000E-03 0. -1.
         11    1    4    4    0    0 -0.42804493365E-02  0.38115759609E-02  0.53624758753E-01  0.53932608227E-01  0.51100000000E-03 0.  1.
</event>
<event>
 8    1  0.1199892E+005  0.1043930E+01  0.7957747E-01            NaN
         13   -1    0    0    0    0  0.00000000000E+00  0.00000000000E+00  0.74505805969E-08  0.10566000000E+00  0.10566000000E+00 0. -1.
     999900   -1    0    0    0    0 -0.00000000000E+00 -0.00000000000E+00 -0.74505805969E-08  0.93827000000E+00  0.93827000000E+00 0. -1.
     999902    2    1    2    0    0 -0.33748946851E-02  0.70188769231E-02 -0.14548684278E-01  0.10274279164E+01  0.10272953834E+01 0.  0.
     999903    2    3    3    0    0  0.76944541163E-01  0.49558187057E-01  0.97978547384E-01  0.13561897808E+00  0.20401841811E-01 0.  0.
         14    1    1    2    0    0  0.33748946851E-02 -0.70188769231E-02  0.14548684278E-01  0.16502083554E-01  0.00000000000E+00 0. -1.
     999901    1    3    3    0    0 -0.80319435848E-01 -0.42539310134E-01 -0.11252723166E+00  0.89180893836E+00  0.88000000000E+00 0. -1.
        -11    1    4    4    0    0  0.47284261161E-01  0.32011561810E-01  0.74710541777E-01  0.94034395924E-01  0.51100000000E-03 0.  1.
         11    1    4    4    0    0  0.29660280002E-01  0.17546625247E-01  0.23268005607E-01  0.41584582158E-01  0.51100000000E-03 0. -1.
</event>
<event>
 8    1  0.1199892E+005  0.1043930E+01  0.7957747E-01            NaN
         13   -1    0    0    0    0  0.00000000000E+00  0.00000000000E+00  0.74505805969E-08  0.10566000000E+00  0.10566000000E+00 0. -1.
     999900   -1    0    0    0    0 -0.00000000000E+00 -0.00000000000E+00 -0.74505805969E-08  0.93827000000E+00  0.93827000000E+00 0. -1.
     999902    2    1    2    0    0 -0.15444095931E-01  0.28348130718E-01  0.93138848666E-02  0.10103311151E+01  0.10097722897E+01 0.  0.
     999903    2    3    3    0    0 -0.94009914992E-01 -0.62137638264E-01  0.41158521501E-01  0.12163862432E+00  0.20074382382E-01 0.  0.
         14    1    1    2    0    0  0.15444095931E-01 -0.28348130718E-01 -0.93138848666E-02  0.33598884887E-01  0.00000000000E+00 0.  1.
     999901    1    3    3    0    0  0.78565819061E-01  0.90485768983E-01 -0.31844636634E-01  0.88869249080E+00  0.88000000000E+00 0. -1.
        -11    1    4    4    0    0 -0.72422878502E-01 -0.37715323005E-01  0.26072387647E-01  0.85717847841E-01  0.51100000000E-03 0.  1.
         11    1    4    4    0    0 -0.21587036489E-01 -0.24422315260E-01  0.15086133854E-01  0.35920776477E-01  0.51100000000E-03 0. -1.
</event>
<event>
 8    1  0.1199892E+005  0.1043930E+01  0.7957747E-01            NaN
         13   -1    0    0    0    0  0.00000000000E+00  0.00000000000E+00  0.74505805969E-08  0.10566000000E+00  0.10566000000E+00 0. -1.
     999900   -1    0    0    0    0 -0.00000000000E+00 -0.00000000000E+00 -0.74505805969E-08  0.93827000000E+00  0.93827000000E+00 0. -1.
     999902    2    1    2    0    0  0.48131080369E-02 -0.17218672639E-01  0.15889370767E-01  0.10200109532E+01  0.10197304663E+01 0.  0.
     999903    2    3    3    0    0 -0.46999322671E-01 -0.35652287691E-01 -0.11299584810E+00  0.12892413039E+00  0.19322209028E-01 0.  0.
         14    1    1    2    0    0 -0.48131080369E-02  0.17218672639E-01 -0.15889370767E-01  0.23919046799E-01  0.00000000000E+00 0.  1.
     999901    1    3    3    0    0  0.51812430708E-01  0.18433615052E-01  0.12888521886E+00  0.89108682281E+00  0.88000000000E+00 0.  1.
        -11    1    4    4    0    0 -0.25411830382E-01 -0.20021765798E-01 -0.81342666946E-01  0.87541549084E-01  0.51100000000E-03 0.  1.
         11    1    4    4    0    0 -0.21587492289E-01 -0.15630521893E-01 -0.31653181149E-01  0.41382581310E-01  0.51100000000E-03 0. -1.
</event>
<event>
 8    1  0.1199892E+005  0.1043930E+01  0.7957747E-01            NaN
         13   -1    0    0    0    0  0.00000000000E+00  0.00000000000E+00  0.74505805969E-08  0.10566000000E+00  0.10566000000E+00 0.  1.
     999900   -1    0    0    0    0 -0.00000000000E+00 -0.00000000000E+00 -0.74505805969E-08  0.93827000000E+00  0.93827000000E+00 0. -1.
     999902    2    1    2    0    0  0.16849174554E-01  0.26452982564E-02  0.15823451004E-01  0.10206647064E+01  0.10203995144E+01 0.  0.
     999903    2    3    3    0    0 -0.26841856791E-01 -0.11829786751E+00 -0.40612772810E-01  0.12952992256E+00  0.20340422534E-01 0.  0.
         14    1    1    2    0    0 -0.16849174554E-01 -0.26452982564E-02 -0.15823451004E-01  0.23265293630E-01  0.00000000000E+00 0. -1.
     999901    1    3    3    0    0  0.43691031345E-01  0.12094316577E+00  0.56436223814E-01  0.89113478381E+00  0.88000000000E+00 0. -1.
        -11    1    4    4    0    0 -0.90032149451E-02 -0.74285983792E-01 -0.31400032450E-01  0.81152254597E-01  0.51100000000E-03 0.  1.
         11    1    4    4    0    0 -0.17838641846E-01 -0.44011883717E-01 -0.92127403599E-02  0.48377667959E-01  0.51100000000E-03 0. -1.
</event>
<event>
 8    1  0.1199892E+005  0.1043930E+01  0.7957747E-01            NaN
         13   -1    0    0    0    0  0.00000000000E+00  0.00000000000E+00  0.74505805969E-08  0.10566000000E+00  0.10566000000E+00 0. -1.
     999900   -1    0    0    0    0 -0.00000000000E+00 -0.00000000000E+00 -0.74505805969E-08  0.93827000000E+00  0.93827000000E+00 0. -1.
     999902    2    1    2    0    0  0.29893597144E-02  0.22547208834E-01  0.71841853830E-02  0.10200778425E+01  0.10197989406E+01 0.  0.
     999903    2    3    3    0    0  0.69108686833E-01 -0.10456092589E+00  0.18105880793E-01  0.12842346621E+00  0.21348675225E-01 0.  0.
         14    1    1    2    0    0 -0.29893597144E-02 -0.22547208834E-01 -0.71841853830E-02  0.23852157498E-01  0.00000000000E+00 0. -1.
     999901    1    3    3    0    0 -0.66119327119E-01  0.12710813473E+00 -0.10921695410E-01  0.89165437629E+00  0.88000000000E+00 0. -1.
        -11    1    4    4    0    0  0.31927980970E-01 -0.31175786884E-01  0.25690616444E-02  0.44701083380E-01  0.51100000000E-03 0.  1.
         11    1    4    4    0    0  0.37180705863E-01 -0.73385139011E-01  0.15536819148E-01  0.83722382828E-01  0.51100000000E-03 0. -1.
</event>
<event>
 8    1  0.1199892E+005  0.1043930E+01  0.7957747E-01            NaN
         13   -1    0    0    0    0  0.00000000000E+00  0.00000000000E+00  0.74505805969E-08  0.10566000000E+00  0.10566000000E+00 0. -1.
     999900   -1    0    0    0    0 -0.00000000000E+00 -0.00000000000E+00 -0.74505805969E-08  0.93827000000E+00  0.93827000000E+00 0. -1.
     999902    2    1    2    0    0 -0.18516800170E-01 -0.12429025421E-01 -0.10442837868E-01  0.10193046995E+01  0.10190071958E+01 0.  0.
     999903    2    3    3    0    0  0.22584007972E-01  0.39268570839E-01  0.11771693411E+00  0.12757220316E+00  0.19113669752E-01 0.  0.
         14    1    1    2    0    0  0.18516800170E-01  0.12429025421E-01  0.10442837868E-01  0.24625300490E-01  0.00000000000E+00 0.  1.
     999901    1    3    3    0    0 -0.41100808142E-01 -0.51697596260E-01 -0.12815977198E+00  0.89173249635E+00  0.88000000000E+00 0. -1.
        -11    1    4    4    0    0  0.17466605262E-01  0.20808258258E-01  0.46845033039E-01  0.54155185832E-01  0.51100000000E-03 0.  1.
         11    1    4    4    0    0  0.51174027099E-02  0.18460312581E-01  0.70871901072E-01  0.73417017331E-01  0.51100000000E-03 0. -1.
</event>
<event>
 7    1  0.1199892E+005  0.1043930E+01  0.7957747E-01            NaN
         13   -1    0    0    0    0  0.00000000000E+00  0.00000000000E+00  0.74505805969E-08  0.10566000000E+00  0.10566000000E+00 0. -1.
     999900   -1    0    0    0    0 -0.00000000000E+00 -0.00000000000E+00 -0.74505805969E-08  0.93827000000E+00  0.93827000000E+00 0. -1.
     999903    2    1    2    0    0  0.15660298206E-01  0.90013952646E-01  0.73676145612E-01  0.11913243078E+00  0.20410904445E-01 0.  0.
         14    1    1    2    0    0  0.73561271192E-02 -0.34070380965E-01  0.15653372246E-01  0.38209050342E-01  0.00000000000E+00 0.  1.
     999901    1    1    2    0    0 -0.23016425325E-01 -0.55943571680E-01 -0.89329517859E-01  0.88658851888E+00  0.88000000000E+00 0. -1.
        -11    1    3    3    0    0  0.17140792106E-01  0.52668120944E-01  0.36001920109E-01  0.66061615862E-01  0.51100000000E-03 0.  1.
         11    1    3    3    0    0 -0.14804939007E-02  0.37345831702E-01  0.37674225503E-01  0.53070814917E-01  0.51100000000E-03 0. -1.
</event>
<event>
 8    1  0.1199892E+005  0.1043930E+01  0.7957747E-01            NaN
         13   -1    0    0    0    0  0.00000000000E+00  0.00000000000E+00  0.74505805969E-08  0.10566000000E+00  0.10566000000E+00 0. -1.
     999900   -1    0    0    0    0 -0.00000000000E+00 -0.00000000000E+00 -0.74505805969E-08  0.93827000000E+00  0.93827000000E+00 0.  1.
     999902    2    1    2    0    0 -0.80453180668E-02  0.15791832434E-01 -0.14318949617E-01  0.10211453246E+01  0.10208910973E+01 0.  0.
     999903    2    3    3    0    0  0.55717237636E-01 -0.93608405458E-01  0.64744034602E-01  0.12857318129E+00  0.21733126517E-01 0.  0.
         14    1    1    2    0    0  0.80453180668E-02 -0.15791832434E-01  0.14318949617E-01  0.22784675388E-01  0.00000000000E+00 0. -1.
     999901    1    3    3    0    0 -0.63762555703E-01  0.10940023789E+00 -0.79062984220E-01  0.89257214332E+00  0.88000000000E+00 0.  1.
        -11    1    4    4    0    0  0.43116952406E-01 -0.51761891874E-01  0.38533658444E-01  0.77611010748E-01  0.51100000000E-03 0. -1.
         11    1    4    4    0    0  0.12600285230E-01 -0.41846513584E-01  0.26210376158E-01  0.50962170542E-01  0.51100000000E-03 0.  1.
</event>
<event>
 8    1  0.1199892E+005  0.1043930E+01  0.7957747E-01            NaN
         13   -1    0    0    0    0  0.00000000000E+00  0.00000000000E+00  0.74505805969E-08  0.10566000000E+00  0.10566000000E+00 0.  1.
     999900   -1    0    0    0    0 -0.00000000000E+00 -0.00000000000E+00 -0.74505805969E-08  0.93827000000E+00  0.93827000000E+00 0.  1.
     999902    2    1    2    0    0  0.14863330209E-01  0.35541490699E-03 -0.15965375507E-01  0.10221139940E+01  0.10218811470E+01 0.  0.
     999903    2    3    3    0    0  0.59928949500E-01 -0.34413500852E-01  0.10984034009E+00  0.13134642291E+00  0.20278423799E-01 0.  0.
         14    1    1    2    0    0 -0.14863330209E-01 -0.35541490699E-03  0.15965375507E-01  0.21816006045E-01  0.00000000000E+00 0.  1.
     999901    1    3    3    0    0 -0.45065619290E-01  0.34768915759E-01 -0.12580571560E+00  0.89076757104E+00  0.88000000000E+00 0.  1.
        -11    1    4    4    0    0  0.20236895709E-01 -0.13774684954E-01  0.57461361303E-01  0.62460732123E-01  0.51100000000E-03 0.  1.
         11    1    4    4    0    0  0.39692053790E-01 -0.20638815898E-01  0.52378978787E-01  0.68885690789E-01  0.51100000000E-03 0. -1.
</event>
<event>
 8    1  0.1199892E+005  0.1043930E+01  0.7957747E-01            NaN
         13   -1    0    0    0    0  0.00000000000E+00  0.00000000000E+00  0.74505805969E-08  0.10566000000E+00  0.10566000000E+00 0. -1.
     999900   -1    0    0    0    0 -0.00000000000E+00 -0.00000000000E+00 -0.74505805969E-08  0.93827000000E+00  0.93827000000E+00 0.  1.
     999902    2    1    2    0    0  0.12138440144E-01 -0.81432224814E-03  0.20484427037E-01  0.10201052943E+01  0.10198270417E+01 0.  0.
     999903    2    3    3    0    0 -0.40017718993E-01 -0.90442457143E-01  0.84671817066E-01  0.13169464122E+00  0.19821857455E-01 0.  0.
         14    1    1    2    0    0 -0.12138440144E-01  0.81432224814E-03 -0.20484427037E-01  0.23824705683E-01  0.00000000000E+00 0.  1.
     999901    1    3    3    0    0  0.52156159136E-01  0.89628134895E-01 -0.64187390029E-01  0.88841065310E+00  0.88000000000E+00 0.  1.
        -11    1    4    4    0    0 -0.33703651582E-01 -0.53154040571E-01  0.55756472972E-01  0.84085275514E-01  0.51100000000E-03 0.  1.
         11    1    4    4    0    0 -0.63140674109E-02 -0.37288416572E-01  0.28915344094E-01  0.47609365705E-01  0.51100000000E-03 0. -1.
</event>
<event>
 8    1  0.1199892E+005  0.1043930E+01  0.7957747E-01            NaN
         13   -1    0    0    0    0  0.00000000000E+00  0.00000000000E+00  0.74505805969E-08  0.10566000000E+00  0.10566000000E+00 0. -1.
     999900   -1    0    0    0    0 -0.00000000000E+00 -0.00000000000E+00 -0.74505805969E-08  0.93827000000E+00  0.93827000000E+00 0.  1.
     999902    2    1    2    0    0  0.21924370902E-01 -0.33948383627E-03  0.91233709828E-02  0.10201807013E+01  0.10199042280E+01 0.  0.
     999903    2    3    3    0    0  0.27597100629E-01 -0.81948934632E-01  0.97575195911E-01  0.13197126227E+00  0.20451585698E-01 0.  0.
         14    1    1    2    0    0 -0.21924370902E-01  0.33948383627E-03 -0.91233709828E-02  0.23749298659E-01  0.00000000000E+00 0.  1.
     999901    1    3    3    0    0 -0.56727297274E-02  0.81609450796E-01 -0.88451824928E-01  0.88820943907E+00  0.88000000000E+00 0. -1.
        -11    1    4    4    0    0  0.26689085807E-01 -0.59932607047E-01  0.81830847383E-01  0.10488457176E+00  0.51100000000E-03 0.  1.
         11    1    4    4    0    0  0.90801482202E-03 -0.22016327585E-01  0.15744348528E-01  0.27086690511E-01  0.51100000000E-03 0. -1.
</event>
<event>
 8    1  0.1199892E+005  0.1043930E+01  0.7957747E-01            NaN
         13   -1    0    0    0    0  0.00000000000E+00  0.00000000000E+00  0.74505805969E-08  0.10566000000E+00  0.10566000000E+00 0. -1.
     999900   -1    0    0    0    0 -0.00000000000E+00 -0.00000000000E+00 -0.74505805969E-08  0.93827000000E+00  0.93827000000E+00 0.  1.
     999902    2    1    2    0    0  0.69537281953E-02 -0.45689631667E-02 -0.23195306722E-01  0.10192875161E+01  0.10189895919E+01 0.  0.
     999903    2    3    3    0    0  0.50054423923E-01 -0.48839354695E-01  0.10520380012E+00  0.12782586901E+00  0.19516283139E-01 0.  0.
         14    1    1    2    0    0 -0.69537281953E-02  0.45689631667E-02  0.23195306722E-01  0.24642483929E-01  0.00000000000E+00 0. -1.
     999901    1    3    3    0    0 -0.43100695727E-01  0.44270391528E-01 -0.12839910684E+00  0.89146164706E+00  0.88000000000E+00 0.  1.
        -11    1    4    4    0    0  0.17204615099E-01 -0.27303835879E-01  0.36836362964E-01  0.48976290099E-01  0.51100000000E-03 0.  1.
         11    1    4    4    0    0  0.32849808823E-01 -0.21535518816E-01  0.68367437158E-01  0.78849578914E-01  0.51100000000E-03 0. -1.
</event>
<event>
 8    1  0.1199892E+005  0.1043930E+01  0.7957747E-01            NaN
         13   -1    0    0    0    0  0.00000000000E+00  0.00000000000E+00  0.74505805969E-08  0.10566000000E+00  0.10566000000E+00 0.  1.
     999900   -1    0    0    0    0 -0.00000000000E+00 -0.00000000000E+00 -0.74505805969E-08  0.93827000000E+00  0.93827000000E+00 0.  1.
     999902    2    1    2    0    0  0.10582095085E-01 -0.13734359960E-01 -0.15784003377E-01  0.10204832914E+01  0.10202138991E+01 0.  0.
     999903    2    3    3    0    0  0.27515168773E-01 -0.12538434077E+00 -0.29840495384E-01  0.13315582529E+00  0.19018444253E-01 0.  0.
         14    1    1    2    0    0 -0.10582095085E-01  0.13734359960E-01  0.15784003377E-01  0.23446708564E-01  0.00000000000E+00 0.  1.
     999901    1    3    3    0    0 -0.16933073688E-01  0.11164998081E+00  0.14056492007E-01  0.88732746614E+00  0.88000000000E+00 0. -1.
        -11    1    4    4    0    0  0.66047883227E-02 -0.67766428203E-01 -0.10597240298E-01  0.68909176770E-01  0.51100000000E-03 0. -1.
         11    1    4    4    0    0  0.20910380451E-01 -0.57617912569E-01 -0.19243255087E-01  0.64246648525E-01  0.51100000000E-03 0.  1.
</event>
<event>
 8    1  0.1199892E+005  0.1043930E+01  0.7957747E-01            NaN
         13   -1    0    0    0    0  0.00000000000E+00  0.00000000000E+00  0.74505805969E-08  0.10566000000E+00  0.10566000000E+00 0. -1.
     999900   -1    0    0    0    0 -0.00000000000E+00 -0.00000000000E+00 -0.74505805969E-08  0.93827000000E+00  0.93827000000E+00 0. -1.
     999902    2    1    2    0    0 -0.10873990780E-02 -0.10838395198E-01  0.20579946589E-01  0.10206450811E+01  0.10203794363E+01 0.  0.
     999903    2    3    3    0    0  0.31935151208E-01  0.21201926911E-01  0.12592368463E+00  0.13316867339E+00  0.20192712399E-01 0.  0.
         14    1    1    2    0    0  0.10873990780E-02  0.10838395198E-01 -0.20579946589E-01  0.23284918914E-01  0.00000000000E+00 0.  1.
     999901    1    3    3    0    0 -0.33022550286E-01 -0.32040322110E-01 -0.10534373804E+00  0.88747640769E+00  0.88000000000E+00 0. -1.
        -11    1    4    4    0    0  0.58555757382E-02  0.98418726856E-02  0.64042722397E-01  0.65060599737E-01  0.51100000000E-03 0. -1.
         11    1    4    4    0    0  0.26079575470E-01  0.11360054226E-01  0.61880962236E-01  0.68108073655E-01  0.51100000000E-03 0.  1.
</event>
<event>
 8    1  0.1199892E+005  0.1043930E+01  0.7957747E-01            NaN
         13   -1    0    0    0    0  0.00000000000E+00  0.00000000000E+00  0.74505805969E-08  0.10566000000E+00  0.10566000000E+00 0.  1.
     999900   -1    0    0    0    0 -0.00000000000E+00 -0.00000000000E+00 -0.74505805969E-08  0.93827000000E+00  0.93827000000E+00 0.  1.
     999902    2    1    2    0    0  0.16261208059E-01  0.14296108940E-01 -0.33238952359E-02  0.10220244323E+01  0.10217896487E+01 0.  0.
     999903    2    3    3    0    0 -0.12629067317E+00 -0.21672157820E-01  0.78041389752E-02  0.12975844714E+00  0.18903266020E-01 0.  0.
         14    1    1    2    0    0 -0.16261208059E-01 -0.14296108940E-01  0.33238952359E-02  0.21905567737E-01  0.00000000000E+00 0.  1.
     999901    1    3    3    0    0  0.14255188123E+00  0.35968266760E-01 -0.11128034211E-01  0.89226598512E+00  0.88000000000E+00 0. -1.
        -11    1    4    4    0    0 -0.45331781362E-01  0.12048185243E-02  0.43155780941E-02  0.45555541095E-01  0.51100000000E-03 0. -1.
         11    1    4    4    0    0 -0.80958891806E-01 -0.22876976344E-01  0.34885608811E-02  0.84202906049E-01  0.51100000000E-03 0.  1.
</event>
<event>
 8    1  0.1199892E+005  0.1043930E+01  0.7957747E-01            NaN
         13   -1    0    0    0    0  0.00000000000E+00  0.00000000000E+00  0.74505805969E-08  0.10566000000E+00  0.10566000000E+00 0. -1.
     999900   -1    0    0    0    0 -0.00000000000E+00 -0.00000000000E+00 -0.74505805969E-08  0.93827000000E+00  0.93827000000E+00 0. -1.
     999902    2    1    2    0    0  0.14588041230E-01 -0.17188234172E-01 -0.58523143814E-02  0.10206384581E+01  0.10203726605E+01 0.  0.
     999903    2    3    3    0    0  0.98956866733E-01 -0.87089642780E-01 -0.15712055710E-01  0.13378924873E+00  0.16602018810E-01 0.  0.
         14    1    1    2    0    0 -0.14588041230E-01  0.17188234172E-01  0.58523143814E-02  0.23291541909E-01  0.00000000000E+00 0. -1.
     999901    1    3    3    0    0 -0.84368825502E-01  0.69901408608E-01  0.98597413284E-02  0.88684920936E+00  0.88000000000E+00 0. -1.
        -11    1    4    4    0    0  0.32186594207E-01 -0.31888484678E-01  0.20260564143E-02  0.45356568734E-01  0.51100000000E-03 0. -1.
         11    1    4    4    0    0  0.66770272526E-01 -0.55201158101E-01 -0.17738112124E-01  0.88432679998E-01  0.51100000000E-03 0.  1.
</event>
<event>
 8    1  0.1199892E+005  0.1043930E+01  0.7957747E-01            NaN
         13   -1    0    0    0    0  0.00000000000E+00  0.00000000000E+00  0.74505805969E-08  0.10566000000E+00  0.10566000000E+00 0.  1.
     999900   -1    0    0    0    0 -0.00000000000E+00 -0.00000000000E+00 -0.74505805969E-08  0.93827000000E+00  0.93827000000E+00 0. -1.
     999902    2    1    2    0    0 -0.18702400553E-01  0.18464681218E-01  0.32978010700E-03  0.10176462979E+01  0.10173068144E+01 0.  0.
     999903    2    3    3    0    0 -0.10070509951E+00 -0.76083781014E-01  0.14798043045E-01  0.12867319094E+00  0.20187847529E-01 0.  0.
         14    1    1    2    0    0  0.18702400553E-01 -0.18464681218E-01 -0.32978010700E-03  0.26283702058E-01  0.00000000000E+00 0.  1.
     999901    1    3    3    0    0  0.82002698953E-01  0.94548462233E-01 -0.14468262938E-01  0.88897310701E+00  0.88000000000E+00 0.  1.
        -11    1    4    4    0    0 -0.21314683302E-01 -0.17552064564E-01 -0.50126784336E-02  0.28067396759E-01  0.51100000000E-03 0. -1.
         11    1    4    4    0    0 -0.79390416204E-01 -0.58531716450E-01  0.19810721479E-01  0.10060579418E+00  0.51100000000E-03 0.  1.
</event>
<event>
 8    1  0.1199892E+005  0.1043930E+01  0.7957747E-01            NaN
         13   -1    0    0    0    0  0.00000000000E+00  0.00000000000E+00  0.74505805969E-08  0.10566000000E+00  0.10566000000E+00 0. -1.
     999900   -1    0    0    0    0 -0.00000000000E+00 -0.00000000000E+00 -0.74505805969E-08  0.93827000000E+00  0.93827000000E+00 0.  1.
     999902    2    1    2    0    0  0.21312643506E-01  0.99037376128E-02  0.25853694521E-02  0.10202868841E+01  0.10200129063E+01 0.  0.
     999903    2    3    3    0    0  0.27321892180E-02 -0.11326841853E+00  0.59733627145E-01  0.12967892512E+00  0.20280974206E-01 0.  0.
         14    1    1    2    0    0 -0.21312643506E-01 -0.99037376128E-02 -0.25853694521E-02  0.23643115851E-01  0.00000000000E+00 0.  1.
     999901    1    3    3    0    0  0.18580454288E-01  0.12317215614E+00 -0.57148257693E-01  0.89060795903E+00  0.88000000000E+00 0.  1.
        -11    1    4    4    0    0 -0.24770956150E-02 -0.17824547312E-01  0.22622673827E-02  0.18144681433E-01  0.51100000000E-03 0.  1.
         11    1    4    4    0    0  0.52092848330E-02 -0.95443871215E-01  0.57471359762E-01  0.11153424369E+00  0.51100000000E-03 0. -1.
</event>
<event>
 8    1  0.1199892E+005  0.1043930E+01  0.7957747E-01            NaN
         13   -1    0    0    0    0  0.00000000000E+00  0.00000000000E+00  0.74505805969E-08  0.10566000000E+00  0.10566000000E+00 0.  1.
     999900   -1    0    0    0    0 -0.00000000000E+00 -0.00000000000E+00 -0.74505805969E-08  0.93827000000E+00  0.93827000000E+00 0.  1.
     999902    2    1    2    0    0  0.40810195438E-02 -0.23723688654E-01 -0.73524403916E-02  0.10187600476E+01  0.10184490700E+01 0.  0.
     999903    2    3    3    0    0 -0.42860154962E-01 -0.95448273114E-01 -0.77487576448E-01  0.13181764407E+00  0.20596141881E-01 0.  0.
         14    1    1    2    0    0 -0.40810195438E-02  0.23723688654E-01  0.73524403916E-02  0.25169952395E-01  0.00000000000E+00 0. -1.
     999901    1    3    3    0    0  0.46941174506E-01  0.71724584461E-01  0.70135136056E-01  0.88694240354E+00  0.88000000000E+00 0. -1.
        -11    1    4    4    0    0 -0.80643902078E-02 -0.41428141818E-01 -0.27105627870E-01  0.50162750195E-01  0.51100000000E-03 0. -1.
         11    1    4    4    0    0 -0.34795764754E-01 -0.54020131296E-01 -0.50381948578E-01  0.81654893874E-01  0.51100000000E-03 0.  1.
</event>
<event>
 8    1  0.1199892E+005  0.1043930E+01  0.7957747E-01            NaN
         13   -1    0    0    0    0  0.00000000000E+00  0.00000000000E+00  0.74505805969E-08  0.10566000000E+00  0.10566000000E+00 0. -1.
     999900   -1    0    0    0    0 -0.00000000000E+00 -0.00000000000E+00 -0.74505805969E-08  0.93827000000E+00  0.93827000000E+00 0.  1.
     999902    2    1    2    0    0  0.21759945885E-01  0.95673050458E-02  0.20482770395E-02  0.10200715841E+01  0.10197925341E+01 0.  0.
     999903    2    3    3    0    0 -0.10905270013E+00  0.29218290802E-01  0.58064951954E-01  0.12842368415E+00  0.19362439989E-01 0.  0.
         14    1    1    2    0    0 -0.21759945885E-01 -0.95673050458E-02 -0.20482770395E-02  0.23858415907E-01  0.00000000000E+00 0. -1.
     999901    1    3    3    0    0  0.13081264602E+00 -0.19650985757E-01 -0.56016674914E-01  0.89164789994E+00  0.88000000000E+00 0.  1.
        -11    1    4    4    0    0 -0.78947429874E-01  0.11981561582E-01  0.40510435193E-01  0.89541113363E-01  0.51100000000E-03 0. -1.
         11    1    4    4    0    0 -0.30105270259E-01  0.17236729220E-01  0.17554516761E-01  0.38882570790E-01  0.51100000000E-03 0.  1.
</event>
<event>
 8    1  0.1199892E+005  0.1043930E+01  0.7957747E-01            NaN
         13   -1    0    0    0    0  0.00000000000E+00  0.00000000000E+00  0.74505805969E-08  0.10566000000E+00  0.10566000000E+00 0. -1.
     999900   -1    0    0    0    0 -0.00000000000E+00 -0.00000000000E+00 -0.74505805969E-08  0.93827000000E+00  0.93827000000E+00 0.  1.
     999902    2    1    2    0    0  0.10201644146E-02  0.23342421849E-01 -0.41043009083E-02  0.10202075490E+01  0.10199317077E+01 0.  0.
     999903    2    3    3    0    0 -0.25098785245E-01 -0.12146494304E+00 -0.23091187359E-01  0.12778843545E+00  0.20322398761E-01 0.  0.
         14    1    1    2    0    0 -0.10201644146E-02 -0.23342421849E-01  0.41043009083E-02  0.23722450952E-01  0.00000000000E+00 0. -1.
     999901    1    3    3    0    0  0.26118949659E-01  0.14480736489E+00  0.18986886451E-01  0.89241911360E+00  0.88000000000E+00 0. -1.
        -11    1    4    4    0    0 -0.14401806682E-01 -0.28389281191E-01 -0.30858559713E-02  0.31986668322E-01  0.51100000000E-03 0. -1.
         11    1    4    4    0    0 -0.10696978562E-01 -0.93075661853E-01 -0.20005331388E-01  0.95801767127E-01  0.51100000000E-03 0.  1.
</event>
<event>
 8    1  0.1199892E+005  0.1043930E+01  0.7957747E-01            NaN
         13   -1    0    0    0    0  0.00000000000E+00  0.00000000000E+00  0.74505805969E-08  0.10566000000E+00  0.10566000000E+00 0.  1.
     999900   -1    0    0    0    0 -0.00000000000E+00 -0.00000000000E+00 -0.74505805969E-08  0.93827000000E+00  0.93827000000E+00 0.  1.
     999902    2    1    2    0    0  0.57155536427E-02 -0.16663376500E-01  0.14840969897E-01  0.10208954595E+01  0.10206355614E+01 0.  0.
     999903    2    3    3    0    0  0.31180075683E-01  0.12391376890E+00  0.51090053899E-02  0.12932096072E+00  0.19261092975E-01 0.  0.
         14    1    1    2    0    0 -0.57155536427E-02  0.16663376500E-01 -0.14840969897E-01  0.23034540528E-01  0.00000000000E+00 0. -1.
     999901    1    3    3    0    0 -0.25464522040E-01 -0.14057714540E+00  0.97319645072E-02  0.89157449875E+00  0.88000000000E+00 0. -1.
        -11    1    4    4    0    0  0.25051714382E-01  0.64799076578E-01 -0.17197814350E-02  0.69496240819E-01  0.51100000000E-03 0. -1.
         11    1    4    4    0    0  0.61283613013E-02  0.59114692323E-01  0.68287868249E-02  0.59824719901E-01  0.51100000000E-03 0.  1.
</event>
<event>
 8    1  0.1199892E+005  0.1043930E+01  0.7957747E-01            NaN
         13   -1    0    0    0    0  0.00000000000E+00  0.00000000000E+00  0.74505805969E-08  0.10566000000E+00  0.10566000000E+00 0.  1.
     999900   -1    0    0    0    0 -0.00000000000E+00 -0.00000000000E+00 -0.74505805969E-08  0.93827000000E+00  0.93827000000E+00 0.  1.
     999902    2    1    2    0    0 -0.51848286578E-03 -0.20123894961E-01 -0.11975459290E-01  0.10205066869E+01  0.10202378381E+01 0.  0.
     999903    2    3    3    0    0  0.44875682751E-01 -0.80127038383E-01  0.91711598061E-01  0.13123056926E+00  0.19397832508E-01 0.  0.
         14    1    1    2    0    0  0.51848286578E-03  0.20123894961E-01  0.11975459290E-01  0.23423313132E-01  0.00000000000E+00 0.  1.
     999901    1    3    3    0    0 -0.45394165617E-01  0.60003143422E-01 -0.10368705735E+00  0.88927611761E+00  0.88000000000E+00 0.  1.
        -11    1    4    4    0    0  0.17298509999E-01 -0.32595457212E-01  0.23989891734E-01  0.44016795721E-01  0.51100000000E-03 0.  1.
         11    1    4    4    0    0  0.27577172752E-01 -0.47531581171E-01  0.67721706326E-01  0.87213773536E-01  0.51100000000E-03 0. -1.
</event>
<event>
 8    1  0.1199892E+005  0.1043930E+01  0.7957747E-01            NaN
         13   -1    0    0    0    0  0.00000000000E+00  0.00000000000E+00  0.74505805969E-08  0.10566000000E+00  0.10566000000E+00 0. -1.
     999900   -1    0    0    0    0 -0.00000000000E+00 -0.00000000000E+00 -0.74505805969E-08  0.93827000000E+00  0.93827000000E+00 0.  1.
     999902    2    1    2    0    0 -0.30225960175E-01  0.52994532010E-02  0.19021006425E-01  0.10078261005E+01  0.10071792081E+01 0.  0.
     999903    2    3    3    0    0  0.19679601094E-01  0.10053246408E+00  0.60419793352E-01  0.12031624087E+00  0.18203937891E-01 0.  0.
         14    1    1    2    0    0  0.30225960175E-01 -0.52994532010E-02 -0.19021006425E-01  0.36103899487E-01  0.00000000000E+00 0. -1.
     999901    1    3    3    0    0 -0.49905561269E-01 -0.95233010880E-01 -0.41398786927E-01  0.88750985964E+00  0.88000000000E+00 0.  1.
        -11    1    4    4    0    0  0.84787146435E-02  0.72404363075E-01  0.35424498285E-01  0.81052061010E-01  0.51100000000E-03 0. -1.
         11    1    4    4    0    0  0.11200886450E-01  0.28128101006E-01  0.24995295067E-01  0.39264179859E-01  0.51100000000E-03 0.  1.
</event>
<event>
 8    1  0.1199892E+005  0.1043930E+01  0.7957747E-01            NaN
         13   -1    0    0    0    0  0.00000000000E+00  0.00000000000E+00  0.74505805969E-08  0.10566000000E+00  0.10566000000E+00 0. -1.
     999900   -1    0    0    0    0 -0.00000000000E+00 -0.00000000000E+00 -0.74505805969E-08  0.93827000000E+00  0.93827000000E+00 0. -1.
     999902    2    1    2    0    0  0.21412040639E-01  0.10852276188E-01 -0.35916163027E-02  0.10196576476E+01  0.10193687121E+01 0.  0.
     999903    2    3    3    0    0 -0.12298564019E+00  0.24825307364E-01 -0.13141319134E-01  0.12772876443E+00  0.20004484863E-01 0.  0.
         14    1    1    2    0    0 -0.21412040639E-01 -0.10852276188E-01  0.35916163027E-02  0.24272352387E-01  0.00000000000E+00 0. -1.
     999901    1    3    3    0    0  0.14439768083E+00 -0.13973031176E-01  0.95497028312E-02  0.89192888318E+00  0.88000000000E+00 0.  1.
        -11    1    4    4    0    0 -0.37526477536E-01  0.12952339667E-01  0.35034930218E-02  0.39856432398E-01  0.51100000000E-03 0. -1.
         11    1    4    4    0    0 -0.85459162658E-01  0.11872967697E-01 -0.16644812156E-01  0.87872332033E-01  0.51100000000E-03 0.  1.
</event>
<event>
 8    1  0.1199892E+005  0.1043930E+01  0.7957747E-01            NaN
         13   -1    0    0    0    0  0.00000000000E+00  0.00000000000E+00  0.74505805969E-08  0.10566000000E+00  0.10566000000E+00 0. -1.
     999900   -1    0    0    0    0 -0.00000000000E+00 -0.00000000000E+00 -0.74505805969E-08  0.93827000000E+00  0.93827000000E+00 0. -1.
     999902    2    1    2    0    0 -0.15861613278E-01  0.56534110645E-02 -0.10037394714E-01  0.10243264002E+01  0.10241387958E+01 0.  0.
     999903    2    3    3    0    0 -0.92074020769E-02 -0.98771182759E-01  0.86188438605E-01  0.13291842103E+00  0.19958379310E-01 0.  0.
         14    1    1    2    0    0  0.15861613278E-01 -0.56534110645E-02  0.10037394714E-01  0.19603599800E-01  0.00000000000E+00 0. -1.
     999901    1    3    3    0    0 -0.66542112015E-02  0.10442459382E+00 -0.96225833319E-01  0.89140797917E+00  0.88000000000E+00 0.  1.
        -11    1    4    4    0    0 -0.15277487133E-02 -0.62585628515E-01  0.42492304176E-01  0.75664733845E-01  0.51100000000E-03 0. -1.
         11    1    4    4    0    0 -0.76796533636E-02 -0.36185554244E-01  0.43696134430E-01  0.57253687190E-01  0.51100000000E-03 0.  1.
</event>
<event>
 8    1  0.1199892E+005  0.1043930E+01  0.7957747E-01            NaN
         13   -1    0    0    0    0  0.00000000000E+00  0.00000000000E+00  0.74505805969E-08  0.10566000000E+00  0.10566000000E+00 0.  1.
     999900   -1    0    0    0    0 -0.00000000000E+00 -0.00000000000E+00 -0.74505805969E-08  0.93827000000E+00  0.93827000000E+00 0.  1.
     999902    2    1    2    0    0  0.34027362930E-02  0.23160277260E-01  0.14914350476E-02  0.10204736270E+01  0.10202040099E+01 0.  0.
     999903    2    3    3    0    0 -0.10921994355E+00  0.22798706027E-01 -0.65306353702E-01  0.13078494922E+00  0.19773872683E-01 0.  0.
         14    1    1    2    0    0 -0.34027362930E-02 -0.23160277260E-01 -0.14914350476E-02  0.23456373026E-01  0.00000000000E+00 0.  1.
     999901    1    3    3    0    0  0.11262267985E+00  0.36157123263E-03  0.66797788750E-01  0.88968867776E+00  0.88000000000E+00 0.  1.
        -11    1    4    4    0    0 -0.40344204513E-01  0.17958662020E-01 -0.22787652277E-01  0.49696142673E-01  0.51100000000E-03 0.  1.
         11    1    4    4    0    0 -0.68875739042E-01  0.48400440072E-02 -0.42518701426E-01  0.81088806542E-01  0.51100000000E-03 0. -1.
</event>
<event>
 8    1  0.1199892E+005  0.1043930E+01  0.7957747E-01            NaN
         13   -1    0    0    0    0  0.00000000000E+00  0.00000000000E+00  0.74505805969E-08  0.10566000000E+00  0.10566000000E+00 0.  1.
     999900   -1    0    0    0    0 -0.00000000000E+00 -0.00000000000E+00 -0.74505805969E-08  0.93827000000E+00  0.93827000000E+00 0.  1.
     999902    2    1    2    0    0 -0.64303544104E-02 -0.10111188719E-01  0.20365607109E-01  0.10203007057E+01  0.10200270519E+01 0.  0.
     999903    2    3    3    0    0 -0.90628414850E-02  0.12710777471E+00 -0.31896183859E-02  0.12935131178E+00  0.21978778577E-01 0.  0.
         14    1    1    2    0    0  0.64303544104E-02  0.10111188719E-01 -0.20365607109E-01  0.23629294278E-01  0.00000000000E+00 0. -1.
     999901    1    3    3    0    0  0.26324870746E-02 -0.13721896343E+00  0.23555225495E-01  0.89094939394E+00  0.88000000000E+00 0. -1.
        -11    1    4    4    0    0 -0.71463416660E-02  0.12712357258E+00 -0.30295330855E-02  0.12736134459E+00  0.51100000000E-03 0.  1.
         11    1    4    4    0    0 -0.19164998190E-02 -0.15797869443E-04 -0.16008530033E-03  0.19899671938E-02  0.51100000000E-03 0. -1.
</event>
<event>
 8    1  0.1199892E+005  0.1043930E+01  0.7957747E-01            NaN
         13   -1    0    0    0    0  0.00000000000E+00  0.00000000000E+00  0.74505805969E-08  0.10566000000E+00  0.10566000000E+00 0. -1.
     999900   -1    0    0    0    0 -0.00000000000E+00 -0.00000000000E+00 -0.74505805969E-08  0.93827000000E+00  0.93827000000E+00 0. -1.
     999902    2    1    2    0    0 -0.13980943981E-01  0.18800536768E-01  0.21121352879E-02  0.10204057977E+01  0.10201346009E+01 0.  0.
     999903    2    3    3    0    0 -0.91132562513E-01 -0.72497577572E-01  0.55851885225E-01  0.13070040904E+00  0.20052958292E-01 0.  0.
         14    1    1    2    0    0  0.13980943981E-01 -0.18800536768E-01 -0.21121352879E-02  0.23524202279E-01  0.00000000000E+00 0.  1.
     999901    1    3    3    0    0  0.77151618532E-01  0.91298114340E-01 -0.53739749937E-01  0.88970538868E+00  0.88000000000E+00 0. -1.
        -11    1    4    4    0    0 -0.61985471946E-01 -0.60527918052E-01  0.40034885201E-01  0.95440456569E-01  0.51100000000E-03 0. -1.
         11    1    4    4    0    0 -0.29147090567E-01 -0.11969659520E-01  0.15817000024E-01  0.35259952472E-01  0.51100000000E-03 0.  1.
</event>
<event>
 8    1  0.1199892E+005  0.1043930E+01  0.7957747E-01            NaN
         13   -1    0    0    0    0  0.00000000000E+00  0.00000000000E+00  0.74505805969E-08  0.10566000000E+00  0.10566000000E+00 0.  1.
     999900   -1    0    0    0    0 -0.00000000000E+00 -0.00000000000E+00 -0.74505805969E-08  0.93827000000E+00  0.93827000000E+00 0.  1.
     999902    2    1    2    0    0 -0.21055562406E-01  0.26764199538E-02  0.85799676038E-02  0.10210364250E+01  0.10207797340E+01 0.  0.
     999903    2    3    3    0    0 -0.11749535994E+00 -0.79091442975E-02 -0.58930900178E-01  0.13313417476E+00  0.19599574557E-01 0.  0.
         14    1    1    2    0    0  0.21055562406E-01 -0.26764199538E-02 -0.85799676038E-02  0.22893574996E-01  0.00000000000E+00 0.  1.
     999901    1    3    3    0    0  0.96439797532E-01  0.10585564251E-01  0.67510867782E-01  0.88790225024E+00  0.88000000000E+00 0. -1.
        -11    1    4    4    0    0 -0.78734115090E-01  0.37919481961E-02 -0.40953863654E-01  0.88830849479E-01  0.51100000000E-03 0.  1.
         11    1    4    4    0    0 -0.38761244849E-01 -0.11701092494E-01 -0.17977036524E-01  0.44303325281E-01  0.51100000000E-03 0. -1.
</event>
<event>
 8    1  0.1199892E+005  0.1043930E+01  0.7957747E-01            NaN
         13   -1    0    0    0    0  0.00000000000E+00  0.00000000000E+00  0.74505805969E-08  0.10566000000E+00  0.10566000000E+00 0. -1.
     999900   -1    0    0    0    0 -0.00000000000E+00 -0.00000000000E+00 -0.74505805969E-08  0.93827000000E+00  0.93827000000E+00 0.  1.
     999902    2    1    2    0    0 -0.12749517705E-01  0.16033145241E-02 -0.19490987281E-01  0.10205843493E+01  0.10203173010E+01 0.  0.
     999903    2    3    3    0    0 -0.45958511486E-01 -0.12099946175E+00 -0.11108622412E-01  0.13142489117E+00  0.19900904634E-01 0.  0.
         14    1    1    2    0    0  0.12749517705E-01 -0.16033145241E-02  0.19490987281E-01  0.23345650652E-01  0.00000000000E+00 0. -1.
     999901    1    3    3    0    0  0.33208993782E-01  0.12260277628E+00 -0.83823648697E-02  0.88915945817E+00  0.88000000000E+00 0.  1.
        -11    1    4    4    0    0 -0.29729910382E-01 -0.98614758330E-01 -0.12386504461E-01  0.10374210691E+00  0.51100000000E-03 0.  1.
         11    1    4    4    0    0 -0.16228601105E-01 -0.22384703425E-01  0.12778820494E-02  0.27682784267E-01  0.51100000000E-03 0. -1.
</event>
<event>
 8    1  0.1199892E+005  0.1043930E+01  0.7957747E-01            NaN
         13   -1    0    0    0    0  0.00000000000E+00  0.00000000000E+00  0.74505805969E-08  0.10566000000E+00  0.10566000000E+00 0. -1.
     999900   -1    0    0    0    0 -0.00000000000E+00 -0.00000000000E+00 -0.74505805969E-08  0.93827000000E+00  0.93827000000E+00 0.  1.
     999902    2    1    2    0    0  0.26584785152E-01  0.13862373717E-02  0.21146915733E-01  0.10099319927E+01  0.10093595818E+01 0.  0.
     999903    2    3    3    0    0  0.94719502037E-01  0.72645182288E-01 -0.23577936083E-01  0.12329763218E+00  0.19931895434E-01 0.  0.
         14    1    1    2    0    0 -0.26584785152E-01 -0.13862373717E-02 -0.21146915733E-01  0.33998007304E-01  0.00000000000E+00 0. -1.
     999901    1    3    3    0    0 -0.68134716886E-01 -0.71258944917E-01  0.44724851816E-01  0.88663436051E+00  0.88000000000E+00 0. -1.
        -11    1    4    4    0    0  0.23240851163E-01  0.27613013285E-01 -0.22568387077E-02  0.36165869372E-01  0.51100000000E-03 0. -1.
         11    1    4    4    0    0  0.71478650874E-01  0.45032169003E-01 -0.21321097375E-01  0.87131762809E-01  0.51100000000E-03 0.  1.
</event>
<event>
 8    1  0.1199892E+005  0.1043930E+01  0.7957747E-01            NaN
         13   -1    0    0    0    0  0.00000000000E+00  0.00000000000E+00  0.74505805969E-08  0.10566000000E+00  0.10566000000E+00 0. -1.
     999900   -1    0    0    0    0 -0.00000000000E+00 -0.00000000000E+00 -0.74505805969E-08  0.93827000000E+00  0.93827000000E+00 0. -1.
     999902    2    1    2    0    0 -0.12848467887E-01  0.93737912727E-02 -0.17632695154E-01  0.10201841998E+01  0.10199078088E+01 0.  0.
     999903    2    3    3    0    0 -0.82960428480E-01 -0.91850152039E-01  0.34620874672E-01  0.13007611124E+00  0.20057582832E-01 0.  0.
         14    1    1    2    0    0  0.12848467887E-01 -0.93737912727E-02  0.17632695154E-01  0.23745800224E-01  0.00000000000E+00 0. -1.
     999901    1    3    3    0    0  0.70111960594E-01  0.10122394331E+00 -0.52253569826E-01  0.89010808854E+00  0.88000000000E+00 0. -1.
        -11    1    4    4    0    0 -0.19962332728E-01 -0.36112183675E-01  0.11660301269E-01  0.42881327923E-01  0.51100000000E-03 0. -1.
         11    1    4    4    0    0 -0.62998095753E-01 -0.55737968364E-01  0.22960573403E-01  0.87194783318E-01  0.51100000000E-03 0.  1.
</event>
<event>
 8    1  0.1199892E+005  0.1043930E+01  0.7957747E-01            NaN
         13   -1    0    0    0    0  0.00000000000E+00  0.00000000000E+00  0.74505805969E-08  0.10566000000E+00  0.10566000000E+00 0.  1.
     999900   -1    0    0    0    0 -0.00000000000E+00 -0.00000000000E+00 -0.74505805969E-08  0.93827000000E+00  0.93827000000E+00 0. -1.
     999902    2    1    2    0    0  0.17494024872E-01  0.15157793359E-01 -0.15992112102E-02  0.10207274768E+01  0.10204637303E+01 0.  0.
     999903    2    3    3    0    0  0.27201881644E-01 -0.92644465395E-01  0.84236772821E-01  0.12995063291E+00  0.21642406648E-01 0.  0.
         14    1    1    2    0    0 -0.17494024872E-01 -0.15157793359E-01  0.15992112102E-02  0.23202523187E-01  0.00000000000E+00 0. -1.
     999901    1    3    3    0    0 -0.97078567721E-02  0.10780225875E+00 -0.85835984032E-01  0.89077684390E+00  0.88000000000E+00 0. -1.
        -11    1    4    4    0    0  0.10155340734E-01 -0.14933693782E-01  0.24594652696E-01  0.30517277363E-01  0.51100000000E-03 0.  1.
         11    1    4    4    0    0  0.17046540909E-01 -0.77710771613E-01  0.59642120126E-01  0.99433355549E-01  0.51100000000E-03 0. -1.
</event>
<event>
 8    1  0.1199892E+005  0.1043930E+01  0.7957747E-01            NaN
         13   -1    0    0    0    0  0.00000000000E+00  0.00000000000E+00  0.74505805969E-08  0.10566000000E+00  0.10566000000E+00 0.  1.
     999900   -1    0    0    0    0 -0.00000000000E+00 -0.00000000000E+00 -0.74505805969E-08  0.93827000000E+00  0.93827000000E+00 0.  1.
     999902    2    1    2    0    0  0.22898382076E-01  0.81366902302E-02  0.39626805503E-03  0.10196257070E+01  0.10193360014E+01 0.  0.
     999903    2    3    3    0    0  0.95297576968E-01  0.47746536542E-01 -0.76179165291E-01  0.13245358146E+00  0.19476295608E-01 0.  0.
         14    1    1    2    0    0 -0.22898382076E-01 -0.81366902302E-02 -0.39626805503E-03  0.24304292994E-01  0.00000000000E+00 0. -1.
     999901    1    3    3    0    0 -0.72399194892E-01 -0.39609846312E-01  0.76575433346E-01  0.88717212554E+00  0.88000000000E+00 0. -1.
        -11    1    4    4    0    0  0.67355822911E-01  0.23842428036E-01 -0.47236525709E-01  0.85655231812E-01  0.51100000000E-03 0.  1.
         11    1    4    4    0    0  0.27941754057E-01  0.23904108506E-01 -0.28942639582E-01  0.46798349652E-01  0.51100000000E-03 0. -1.
</event>
<event>
 8    1  0.1199892E+005  0.1043930E+01  0.7957747E-01            NaN
         13   -1    0    0    0    0  0.00000000000E+00  0.00000000000E+00  0.74505805969E-08  0.10566000000E+00  0.10566000000E+00 0.  1.
     999900   -1    0    0    0    0 -0.00000000000E+00 -0.00000000000E+00 -0.74505805969E-08  0.93827000000E+00  0.93827000000E+00 0. -1.
     999902    2    1    2    0    0  0.93806761793E-02 -0.79948972445E-02 -0.20767183393E-01  0.10197806444E+01  0.10194946647E+01 0.  0.
     999903    2    3    3    0    0  0.97529675636E-01  0.59225578369E-01 -0.62924276535E-01  0.13182453126E+00  0.19963358967E-01 0.  0.
         14    1    1    2    0    0 -0.93806761793E-02  0.79948972445E-02  0.20767183393E-01  0.24149355553E-01  0.00000000000E+00 0.  1.
     999901    1    3    3    0    0 -0.88148999457E-01 -0.67220475614E-01  0.42157093141E-01  0.88795611319E+00  0.88000000000E+00 0.  1.
        -11    1    4    4    0    0  0.69830525575E-01  0.40049689412E-01 -0.54111944175E-01  0.96998162598E-01  0.51100000000E-03 0. -1.
         11    1    4    4    0    0  0.27699150061E-01  0.19175888958E-01 -0.88123323592E-02  0.34826368660E-01  0.51100000000E-03 0.  1.
</event>
<event>
 8    1  0.1199892E+005  0.1043930E+01  0.7957747E-01            NaN
         13   -1    0    0    0    0  0.00000000000E+00  0.00000000000E+00  0.74505805969E-08  0.10566000000E+00  0.10566000000E+00 0.  1.
     999900   -1    0    0    0    0 -0.00000000000E+00 -0.00000000000E+00 -0.74505805969E-08  0.93827000000E+00  0.93827000000E+00 0.  1.
     999902    2    1    2    0    0 -0.13318898313E-01  0.21456707444E-01 -0.52356726344E-03  0.10186702005E+01  0.10183569708E+01 0.  0.
     999903    2    3    3    0    0  0.11238322790E+00  0.28283972749E-02  0.57770297739E-01  0.12763360579E+00  0.17746556863E-01 0.  0.
         14    1    1    2    0    0  0.13318898313E-01 -0.21456707444E-01  0.52356726344E-03  0.25259799470E-01  0.00000000000E+00 0.  1.
     999901    1    3    3    0    0 -0.12570212621E+00  0.18628310169E-01 -0.58293865003E-01  0.89103659474E+00  0.88000000000E+00 0.  1.
        -11    1    4    4    0    0  0.17809261640E-01  0.62294099152E-02  0.62506509474E-02  0.19882331511E-01  0.51100000000E-03 0.  1.
         11    1    4    4    0    0  0.94573966262E-01 -0.34010126404E-02  0.51519646792E-01  0.10775127428E+00  0.51100000000E-03 0. -1.
</event>
<event>
 8    1  0.1199892E+005  0.1043930E+01  0.7957747E-01            NaN
         13   -1    0    0    0    0  0.00000000000E+00  0.00000000000E+00  0.74505805969E-08  0.10566000000E+00  0.10566000000E+00 0. -1.
     999900   -1    0    0    0    0 -0.00000000000E+00 -0.00000000000E+00 -0.74505805969E-08  0.93827000000E+00  0.93827000000E+00 0.  1.
     999902    2    1    2    0    0  0.10089982911E-01  0.20641702900E-02  0.20766199326E-01  0.10207501901E+01  0.10204869656E+01 0.  0.
     999903    2    3    3    0    0  0.85145632212E-01 -0.61087784038E-01  0.79989100645E-01  0.13332195530E+00  0.19874393027E-01 0.  0.
         14    1    1    2    0    0 -0.10089982911E-01 -0.20641702900E-02 -0.20766199326E-01  0.23179809934E-01  0.00000000000E+00 0.  1.
     999901    1    3    3    0    0 -0.75055649302E-01  0.63151954328E-01 -0.59222901319E-01  0.88742823477E+00  0.88000000000E+00 0.  1.
        -11    1    4    4    0    0  0.80667631901E-01 -0.50701360303E-01  0.70090095091E-01  0.11828261632E+00  0.51100000000E-03 0. -1.
         11    1    4    4    0    0  0.44780003111E-02 -0.10386423735E-01  0.98990055538E-02  0.15039338973E-01  0.51100000000E-03 0.  1.
</event>
<event>
 8    1  0.1199892E+005  0.1043930E+01  0.7957747E-01            NaN
         13   -1    0    0    0    0  0.00000000000E+00  0.00000000000E+00  0.74505805969E-08  0.10566000000E+00  0.10566000000E+00 0. -1.
     999900   -1    0    0    0    0 -0.00000000000E+00 -0.00000000000E+00 -0.74505805969E-08  0.93827000000E+00  0.93827000000E+00 0.  1.
     999902    2    1    2    0    0  0.67213985556E-02  0.12260463646E-01  0.18962472821E-01  0.10203700437E+01  0.10200980122E+01 0.  0.
     999903    2    3    3    0    0 -0.11814945506E+00  0.10447996951E-01 -0.46509268382E-01  0.12914472758E+00  0.21137507998E-01 0.  0.
         14    1    1    2    0    0 -0.67213985556E-02 -0.12260463646E-01 -0.18962472821E-01  0.23559956342E-01  0.00000000000E+00 0.  1.
     999901    1    3    3    0    0  0.12487085362E+00  0.18124666946E-02  0.65471741203E-01  0.89122531608E+00  0.88000000000E+00 0. -1.
        -11    1    4    4    0    0 -0.65591045403E-01 -0.29240686478E-02 -0.31780234745E-01  0.72945046822E-01  0.51100000000E-03 0.  1.
         11    1    4    4    0    0 -0.52558409661E-01  0.13372065599E-01 -0.14729033638E-01  0.56199680759E-01  0.51100000000E-03 0. -1.
</event>
<event>
 8    1  0.1199892E+005  0.1043930E+01  0.7957747E-01            NaN
         13   -1    0    0    0    0  0.00000000000E+00  0.00000000000E+00  0.74505805969E-08  0.10566000000E+00  0.10566000000E+00 0. -1.
     999900   -1    0    0    0    0 -0.00000000000E+00 -0.00000000000E+00 -0.74505805969E-08  0.93827000000E+00  0.93827000000E+00 0.  1.
     999902    2    1    2    0    0 -0.18075443624E-01 -0.60954021038E-02  0.14258186796E-01  0.10201146377E+01  0.10198366059E+01 0.  0.
     999903    2    3    3    0    0 -0.12493153192E-01 -0.12679536670E+00  0.30536714630E-01  0.13170896807E+00  0.13476551410E-01 0.  0.
         14    1    1    2    0    0  0.18075443624E-01  0.60954021038E-02 -0.14258186796E-01  0.23815362264E-01  0.00000000000E+00 0.  1.
     999901    1    3    3    0    0 -0.55822904325E-02  0.12069996459E+00 -0.16278527834E-01  0.88840566966E+00  0.88000000000E+00 0.  1.
        -11    1    4    4    0    0 -0.43117285414E-02 -0.46176626747E-01  0.45176704322E-02  0.46599810384E-01  0.51100000000E-03 0.  1.
         11    1    4    4    0    0 -0.81814246506E-02 -0.80618739952E-01  0.26019044198E-01  0.85109157690E-01  0.51100000000E-03 0. -1.
</event>
<event>
 8    1  0.1199892E+005  0.1043930E+01  0.7957747E-01            NaN
         13   -1    0    0    0    0  0.00000000000E+00  0.00000000000E+00  0.74505805969E-08  0.10566000000E+00  0.10566000000E+00 0.  1.
     999900   -1    0    0    0    0 -0.00000000000E+00 -0.00000000000E+00 -0.74505805969E-08  0.93827000000E+00  0.93827000000E+00 0. -1.
     999902    2    1    2    0    0  0.25400783900E-02  0.57306847411E-02 -0.22303949889E-01  0.10207619417E+01  0.10204989871E+01 0.  0.
     999903    2    3    3    0    0  0.21666431967E-01  0.37016481913E-01  0.12024158157E+00  0.12853784032E+00  0.14976122633E-01 0.  0.
         14    1    1    2    0    0 -0.25400783900E-02 -0.57306847411E-02  0.22303949889E-01  0.23168058324E-01  0.00000000000E+00 0.  1.
     999901    1    3    3    0    0 -0.19126353577E-01 -0.31285797172E-01 -0.14254553145E+00  0.89222410136E+00  0.88000000000E+00 0. -1.
        -11    1    4    4    0    0  0.10661914922E-01  0.18531951058E-01  0.81087530055E-01  0.83860349935E-01  0.51100000000E-03 0. -1.
         11    1    4    4    0    0  0.11004517045E-01  0.18484530855E-01  0.39154051510E-01  0.44677490383E-01  0.51100000000E-03 0.  1.
</event>
<event>
 8    1  0.1199892E+005  0.1043930E+01  0.7957747E-01            NaN
         13   -1    0    0    0    0  0.00000000000E+00  0.00000000000E+00  0.74505805969E-08  0.10566000000E+00  0.10566000000E+00 0. -1.
     999900   -1    0    0    0    0 -0.00000000000E+00 -0.00000000000E+00 -0.74505805969E-08  0.93827000000E+00  0.93827000000E+00 0. -1.
     999902    2    1    2    0    0  0.92162112990E-02  0.19422791123E-01 -0.88088741243E-02  0.10206968420E+01  0.10204323906E+01 0.  0.
     999903    2    3    3    0    0 -0.51118706475E-01  0.11817232279E+00 -0.26003675338E-01  0.13295395499E+00  0.20560714740E-01 0.  0.
         14    1    1    2    0    0 -0.92162112990E-02 -0.19422791123E-01  0.88088741243E-02  0.23233157966E-01  0.00000000000E+00 0. -1.
     999901    1    3    3    0    0  0.60334917774E-01 -0.98749531669E-01  0.17194801214E-01  0.88774288704E+00  0.88000000000E+00 0.  1.
        -11    1    4    4    0    0 -0.44133192435E-01  0.92778830478E-01 -0.12948984481E-01  0.10355475547E+00  0.51100000000E-03 0.  1.
         11    1    4    4    0    0 -0.69855140401E-02  0.25393492315E-01 -0.13054690858E-01  0.29399199525E-01  0.51100000000E-03 0. -1.
</event>
<event>
 8    1  0.1199892E+005  0.1043930E+01  0.7957747E-01            NaN
         13   -1    0    0    0    0  0.00000000000E+00  0.00000000000E+00  0.74505805969E-08  0.10566000000E+00  0.10566000000E+00 0.  1.
     999900   -1    0    0    0    0 -0.00000000000E+00 -0.00000000000E+00 -0.74505805969E-08  0.93827000000E+00  0.93827000000E+00 0. -1.
     999902    2    1    2    0    0 -0.10934720333E-01  0.46468431044E-02 -0.22173569734E-01  0.10187739181E+01  0.10184632874E+01 0.  0.
     999903    2    3    3    0    0  0.86619747223E-01  0.93035192667E-01 -0.75087345815E-02  0.12886132026E+00  0.19756798351E-01 0.  0.
         14    1    1    2    0    0  0.10934720333E-01 -0.46468431044E-02  0.22173569734E-01  0.25156081856E-01  0.00000000000E+00 0.  1.
     999901    1    3    3    0    0 -0.97554467557E-01 -0.88388349562E-01 -0.14664835153E-01  0.88991259788E+00  0.88000000000E+00 0.  1.
        -11    1    4    4    0    0  0.72543062292E-01  0.65632649891E-01 -0.53342529660E-02  0.97973751557E-01  0.51100000000E-03 0. -1.
         11    1    4    4    0    0  0.14076684932E-01  0.27402542775E-01 -0.21744816156E-02  0.30887568705E-01  0.51100000000E-03 0.  1.
</event>
<event>
 8    1  0.1199892E+005  0.1043930E+01  0.7957747E-01            NaN
         13   -1    0    0    0    0  0.00000000000E+00  0.00000000000E+00  0.74505805969E-08  0.10566000000E+00  0.10566000000E+00 0. -1.
     999900   -1    0    0    0    0 -0.00000000000E+00 -0.00000000000E+00 -0.74505805969E-08  0.93827000000E+00  0.93827000000E+00 0.  1.
     999902    2    1    2    0    0 -0.20865808787E-01  0.64633333362E-02 -0.38178453923E-02  0.10217549555E+01  0.10215142958E+01 0.  0.
     999903    2    3    3    0    0 -0.55632458008E-01  0.99668782641E-01  0.65768465524E-01  0.13342042938E+00  0.21134883490E-01 0.  0.
         14    1    1    2    0    0  0.20865808787E-01 -0.64633333362E-02  0.38178453923E-02  0.22175044477E-01  0.00000000000E+00 0. -1.
     999901    1    3    3    0    0  0.34766649221E-01 -0.93205449305E-01 -0.69586310916E-01  0.88833452615E+00  0.88000000000E+00 0.  1.
        -11    1    4    4    0    0 -0.12640474626E-01  0.11559999733E-01  0.16116392504E-01  0.23524761868E-01  0.51100000000E-03 0.  1.
         11    1    4    4    0    0 -0.42991983382E-01  0.88108782909E-01  0.49652073020E-01  0.10989566751E+00  0.51100000000E-03 0. -1.
</event>
<event>
 8    1  0.1199892E+005  0.1043930E+01  0.7957747E-01            NaN
         13   -1    0    0    0    0  0.00000000000E+00  0.00000000000E+00  0.74505805969E-08  0.10566000000E+00  0.10566000000E+00 0.  1.
     999900   -1    0    0    0    0 -0.00000000000E+00 -0.00000000000E+00 -0.74505805969E-08  0.93827000000E+00  0.93827000000E+00 0. -1.
     999902    2    1    2    0    0 -0.17772521724E-01 -0.74225660591E-02  0.14590783399E-01  0.10197670537E+01  0.10194807481E+01 0.  0.
     999903    2    3    3    0    0 -0.11101674066E+00  0.52607787235E-01 -0.36458782249E-01  0.13133912421E+00  0.28782403661E-01 0.  0.
         14    1    1    2    0    0  0.17772521724E-01  0.74225660591E-02 -0.14590783399E-01  0.24162946334E-01  0.00000000000E+00 0. -1.
     999901    1    3    3    0    0  0.93244218938E-01 -0.60030353294E-01  0.51049565648E-01  0.88842792945E+00  0.88000000000E+00 0.  1.
        -11    1    4    4    0    0 -0.77370546230E-01  0.29782711156E-01 -0.36727383707E-01  0.90677302246E-01  0.51100000000E-03 0. -1.
         11    1    4    4    0    0 -0.33646194432E-01  0.22825076079E-01  0.26860145752E-03  0.40661821965E-01  0.51100000000E-03 0.  1.
</event>
<event>
 8    1  0.1199892E+005  0.1043930E+01  0.7957747E-01            NaN
         13   -1    0    0    0    0  0.00000000000E+00  0.00000000000E+00  0.74505805969E-08  0.10566000000E+00  0.10566000000E+00 0.  1.
     999900   -1    0    0    0    0 -0.00000000000E+00 -0.00000000000E+00 -0.74505805969E-08  0.93827000000E+00  0.93827000000E+00 0. -1.
     999902    2    1    2    0    0  0.79493076735E-02 -0.20247365942E-01 -0.40836356120E-02  0.10217980457E+01  0.10215583306E+01 0.  0.
     999903    2    3    3    0    0 -0.72502768080E-01  0.22289547651E-01  0.10426957688E+00  0.13049431289E+00  0.20078489011E-01 0.  0.
         14    1    1    2    0    0 -0.79493076735E-02  0.20247365942E-01  0.40836356120E-02  0.22131954272E-01  0.00000000000E+00 0. -1.
     999901    1    3    3    0    0  0.80452075754E-01 -0.42536913593E-01 -0.10835321249E+00  0.89130373284E+00  0.88000000000E+00 0. -1.
        -11    1    4    4    0    0 -0.50662766586E-01  0.64424257081E-02  0.61775057521E-01  0.80153849689E-01  0.51100000000E-03 0. -1.
         11    1    4    4    0    0 -0.21840001494E-01  0.15847121943E-01  0.42494519357E-01  0.50340463203E-01  0.51100000000E-03 0.  1.
</event>
<event>
 8    1  0.1199892E+005  0.1043930E+01  0.7957747E-01            NaN
         13   -1    0    0    0    0  0.00000000000E+00  0.00000000000E+00  0.74505805969E-08  0.10566000000E+00  0.10566000000E+00 0.  1.
     999900   -1    0    0    0    0 -0.00000000000E+00 -0.00000000000E+00 -0.74505805969E-08  0.93827000000E+00  0.93827000000E+00 0. -1.
     999902    2    1    2    0    0  0.27122543131E-01 -0.11804732421E-01 -0.24046188073E-01  0.10058090974E+01  0.10050864327E+01 0.  0.
     999903    2    3    3    0    0  0.31434352563E-01  0.31412964452E-01  0.10455652578E+00  0.11540187651E+00  0.20264085503E-01 0.  0.
         14    1    1    2    0    0 -0.27122543131E-01  0.11804732421E-01  0.24046188073E-01  0.38120902589E-01  0.00000000000E+00 0. -1.
     999901    1    3    3    0    0 -0.43118094319E-02 -0.43217696873E-01 -0.12860271386E+00  0.89040722090E+00  0.88000000000E+00 0. -1.
        -11    1    4    4    0    0  0.24204293936E-01  0.14647119312E-01  0.45458177854E-01  0.53545242588E-01  0.51100000000E-03 0.  1.
         11    1    4    4    0    0  0.72300586269E-02  0.16765845139E-01  0.59098347929E-01  0.61856633920E-01  0.51100000000E-03 0. -1.
</event>
<event>
 8    1  0.1199892E+005  0.1043930E+01  0.7957747E-01            NaN
         13   -1    0    0    0    0  0.00000000000E+00  0.00000000000E+00  0.74505805969E-08  0.10566000000E+00  0.10566000000E+00 0.  1.
     999900   -1    0    0    0    0 -0.00000000000E+00 -0.00000000000E+00 -0.74505805969E-08  0.93827000000E+00  0.93827000000E+00 0.  1.
     999902    2    1    2    0    0  0.27521894772E-01 -0.42228842787E-02 -0.33375519553E-02  0.10158866996E+01  0.10154995617E+01 0.  0.
     999903    2    3    3    0    0  0.11936896033E+00 -0.47722102430E-01 -0.55966000740E-02  0.13003503668E+00  0.18746761831E-01 0.  0.
         14    1    1    2    0    0 -0.27521894772E-01  0.42228842787E-02  0.33375519553E-02  0.28043300386E-01  0.00000000000E+00 0.  1.
     999901    1    3    3    0    0 -0.91847065563E-01  0.43499218151E-01  0.22590481187E-02  0.88585166294E+00  0.88000000000E+00 0. -1.
        -11    1    4    4    0    0  0.63828289240E-01 -0.19572724290E-01 -0.10452684715E-01  0.67577080302E-01  0.51100000000E-03 0.  1.
         11    1    4    4    0    0  0.55540671095E-01 -0.28149378140E-01  0.48560846410E-02  0.62457956373E-01  0.51100000000E-03 0. -1.
</event>
<event>
 8    1  0.1199892E+005  0.1043930E+01  0.7957747E-01            NaN
         13   -1    0    0    0    0  0.00000000000E+00  0.00000000000E+00  0.74505805969E-08  0.10566000000E+00  0.10566000000E+00 0. -1.
     999900   -1    0    0    0    0 -0.00000000000E+00 -0.00000000000E+00 -0.74505805969E-08  0.93827000000E+00  0.93827000000E+00 0. -1.
     999902    2    1    2    0    0 -0.60174230684E-02 -0.19408754528E-01 -0.13432386594E-01  0.10195714667E+01  0.10192804509E+01 0.  0.
     999903    2    3    3    0    0  0.39687079204E-01 -0.12455306225E+00  0.56768715983E-02  0.13192886371E+00  0.16866198026E-01 0.  0.
         14    1    1    2    0    0  0.60174230684E-02  0.19408754528E-01  0.13432386594E-01  0.24358533255E-01  0.00000000000E+00 0. -1.
     999901    1    3    3    0    0 -0.45704502272E-01  0.10514430773E+00 -0.19109258192E-01  0.88764260304E+00  0.88000000000E+00 0. -1.
        -11    1    4    4    0    0  0.54014459551E-02 -0.35898311575E-01  0.64300072491E-02  0.36870998177E-01  0.51100000000E-03 0. -1.
         11    1    4    4    0    0  0.34285633249E-01 -0.88654750679E-01 -0.75313565075E-03  0.95057865533E-01  0.51100000000E-03 0.  1.
</event>
<event>
 8    1  0.1199892E+005  0.1043930E+01  0.7957747E-01            NaN
         13   -1    0    0    0    0  0.00000000000E+00  0.00000000000E+00  0.74505805969E-08  0.10566000000E+00  0.10566000000E+00 0.  1.
     999900   -1    0    0    0    0 -0.00000000000E+00 -0.00000000000E+00 -0.74505805969E-08  0.93827000000E+00  0.93827000000E+00 0. -1.
     999902    2    1    2    0    0  0.32930871499E-02  0.13810943651E-01 -0.19311786140E-01  0.10199606097E+01  0.10196789268E+01 0.  0.
     999903    2    3    3    0    0  0.29272299695E-01 -0.82690420201E-01 -0.95258977984E-01  0.13105374807E+00  0.20155368340E-01 0.  0.
         14    1    1    2    0    0 -0.32930871499E-02 -0.13810943651E-01  0.19311786140E-01  0.23969390301E-01  0.00000000000E+00 0.  1.
     999901    1    3    3    0    0 -0.25979212545E-01  0.96501363853E-01  0.75947191845E-01  0.88890686163E+00  0.88000000000E+00 0.  1.
        -11    1    4    4    0    0  0.61400321532E-02 -0.28690120799E-02 -0.56484164345E-02  0.88372481223E-02  0.51100000000E-03 0.  1.
         11    1    4    4    0    0  0.23132267541E-01 -0.79821408121E-01 -0.89610561550E-01  0.12221649994E+00  0.51100000000E-03 0. -1.
</event>
<event>
 8    1  0.1199892E+005  0.1043930E+01  0.7957747E-01            NaN
         13   -1    0    0    0    0  0.00000000000E+00  0.00000000000E+00  0.74505805969E-08  0.10566000000E+00  0.10566000000E+00 0. -1.
     999900   -1    0    0    0    0 -0.00000000000E+00 -0.00000000000E+00 -0.74505805969E-08  0.93827000000E+00  0.93827000000E+00 0. -1.
     999902    2    1    2    0    0  0.13755653185E-01 -0.13168023517E-01 -0.15543103464E-01  0.10193494609E+01  0.10190530509E+01 0.  0.
     999903    2    3    3    0    0  0.41578013321E-01  0.11280193936E+00  0.39873109536E-01  0.12821901480E+00  0.19930935175E-01 0.  0.
         14    1    1    2    0    0 -0.13755653185E-01  0.13168023517E-01  0.15543103464E-01  0.24580539115E-01  0.00000000000E+00 0. -1.
     999901    1    3    3    0    0 -0.27822360136E-01 -0.12596996288E+00 -0.55416213000E-01  0.89113044608E+00  0.88000000000E+00 0.  1.
        -11    1    4    4    0    0  0.19056299901E-01  0.74156606911E-01  0.31057033840E-01  0.82626541659E-01  0.51100000000E-03 0. -1.
         11    1    4    4    0    0  0.22521713419E-01  0.38645332453E-01  0.88160756961E-02  0.45592473144E-01  0.51100000000E-03 0.  1.
</event>
<event>
 8    1  0.1199892E+005  0.1043930E+01  0.7957747E-01            NaN
         13   -1    0    0    0    0  0.00000000000E+00  0.00000000000E+00  0.74505805969E-08  0.10566000000E+00  0.10566000000E+00 0. -1.
     999900   -1    0    0    0    0 -0.00000000000E+00 -0.00000000000E+00 -0.74505805969E-08  0.93827000000E+00  0.93827000000E+00 0.  1.
     999902    2    1    2    0    0 -0.98207807012E-02 -0.21418425953E-01 -0.53180794904E-03  0.10203613869E+01  0.10200891531E+01 0.  0.
     999903    2    3    3    0    0 -0.68056862286E-01  0.76964478485E-01 -0.76596647807E-01  0.12971190649E+00  0.20071491669E-01 0.  0.
         14    1    1    2    0    0  0.98207807012E-02  0.21418425953E-01  0.53180794904E-03  0.23568613102E-01  0.00000000000E+00 0. -1.
     999901    1    3    3    0    0  0.58236081585E-01 -0.98382904438E-01  0.76064839858E-01  0.89064948041E+00  0.88000000000E+00 0.  1.
        -11    1    4    4    0    0 -0.32835936565E-01  0.25630006652E-01 -0.23138752885E-01  0.47652481332E-01  0.51100000000E-03 0. -1.
         11    1    4    4    0    0 -0.35220925722E-01  0.51334471834E-01 -0.53457894922E-01  0.82059425160E-01  0.51100000000E-03 0.  1.
</event>
<event>
 8    1  0.1199892E+005  0.1043930E+01  0.7957747E-01            NaN
         13   -1    0    0    0    0  0.00000000000E+00  0.00000000000E+00  0.74505805969E-08  0.10566000000E+00  0.10566000000E+00 0. -1.
     999900   -1    0    0    0    0 -0.00000000000E+00 -0.00000000000E+00 -0.74505805969E-08  0.93827000000E+00  0.93827000000E+00 0. -1.
     999902    2    1    2    0    0 -0.12689404529E-02 -0.22950063572E-01  0.29756637759E-02  0.10207530674E+01  0.10204899091E+01 0.  0.
     999903    2    3    3    0    0 -0.21427395474E-01  0.68650752908E-01  0.10615491188E+00  0.12977437515E+00  0.20011596081E-01 0.  0.
         14    1    1    2    0    0  0.12689404529E-02  0.22950063572E-01 -0.29756637759E-02  0.23176932557E-01  0.00000000000E+00 0. -1.
     999901    1    3    3    0    0  0.20158455021E-01 -0.91600816480E-01 -0.10317924810E+00  0.89097869230E+00  0.88000000000E+00 0. -1.
        -11    1    4    4    0    0 -0.20131048544E-01  0.45165564823E-01  0.58294099034E-01  0.76443773223E-01  0.51100000000E-03 0.  1.
         11    1    4    4    0    0 -0.12963469298E-02  0.23485188085E-01  0.47860812841E-01  0.53330601924E-01  0.51100000000E-03 0. -1.
</event>
<event>
 8    1  0.1199892E+005  0.1043930E+01  0.7957747E-01            NaN
         13   -1    0    0    0    0  0.00000000000E+00  0.00000000000E+00  0.74505805969E-08  0.10566000000E+00  0.10566000000E+00 0.  1.
     999900   -1    0    0    0    0 -0.00000000000E+00 -0.00000000000E+00 -0.74505805969E-08  0.93827000000E+00  0.93827000000E+00 0. -1.
     999902    2    1    2    0    0  0.75633929936E-02  0.22239784234E-01 -0.49384588175E-03  0.10204341110E+01  0.10201635742E+01 0.  0.
     999903    2    3    3    0    0 -0.18126618870E-01 -0.10065698148E+00 -0.74671958457E-01  0.12843299882E+00  0.21418019845E-01 0.  0.
         14    1    1    2    0    0 -0.75633929936E-02 -0.22239784234E-01  0.49384588175E-03  0.23495889005E-01  0.00000000000E+00 0. -1.
     999901    1    3    3    0    0  0.25690011864E-01  0.12289676572E+00  0.74178112575E-01  0.89200111217E+00  0.88000000000E+00 0.  1.
        -11    1    4    4    0    0  0.18696156709E-02 -0.39404845511E-01 -0.21752054139E-01  0.45051640289E-01  0.51100000000E-03 0. -1.
         11    1    4    4    0    0 -0.19996234541E-01 -0.61252135970E-01 -0.52919904318E-01  0.83381358533E-01  0.51100000000E-03 0.  1.
</event>
<event>
 8    1  0.1199892E+005  0.1043930E+01  0.7957747E-01            NaN
         13   -1    0    0    0    0  0.00000000000E+00  0.00000000000E+00  0.74505805969E-08  0.10566000000E+00  0.10566000000E+00 0.  1.
     999900   -1    0    0    0    0 -0.00000000000E+00 -0.00000000000E+00 -0.74505805969E-08  0.93827000000E+00  0.93827000000E+00 0. -1.
     999902    2    1    2    0    0  0.13051727762E-02 -0.15512985968E-01  0.16040253034E-01  0.10215772389E+01  0.10213326633E+01 0.  0.
     999903    2    3    3    0    0 -0.70648511202E-01  0.96783168905E-01 -0.44606568939E-01  0.12946413173E+00  0.20322930252E-01 0.  0.
         14    1    1    2    0    0 -0.13051727762E-02  0.15512985968E-01 -0.16040253034E-01  0.22352761060E-01  0.00000000000E+00 0. -1.
     999901    1    3    3    0    0  0.71953683979E-01 -0.11229615487E+00  0.60646821973E-01  0.89211310721E+00  0.88000000000E+00 0.  1.
        -11    1    4    4    0    0 -0.34577124442E-01  0.61856859787E-01 -0.31611871192E-01  0.77597810269E-01  0.51100000000E-03 0.  1.
         11    1    4    4    0    0 -0.36071386761E-01  0.34926309118E-01 -0.12994697748E-01  0.51866321462E-01  0.51100000000E-03 0. -1.
</event>
<event>
 8    1  0.1199892E+005  0.1043930E+01  0.7957747E-01            NaN
         13   -1    0    0    0    0  0.00000000000E+00  0.00000000000E+00  0.74505805969E-08  0.10566000000E+00  0.10566000000E+00 0.  1.
     999900   -1    0    0    0    0 -0.00000000000E+00 -0.00000000000E+00 -0.74505805969E-08  0.93827000000E+00  0.93827000000E+00 0. -1.
     999902    2    1    2    0    0  0.65874196899E-02 -0.17090142918E-01 -0.14579174795E-01  0.10205201854E+01  0.10202516500E+01 0.  0.
     999903    2    3    3    0    0 -0.46864479592E-01 -0.39059140095E-01 -0.11635045730E+00  0.13277183347E+00  0.19210283077E-01 0.  0.
         14    1    1    2    0    0 -0.65874196899E-02  0.17090142918E-01  0.14579174795E-01  0.23409814626E-01  0.00000000000E+00 0.  1.
     999901    1    3    3    0    0  0.53451899282E-01  0.21968997176E-01  0.10177128250E+00  0.88774835191E+00  0.88000000000E+00 0.  1.
        -11    1    4    4    0    0 -0.29362707886E-01 -0.33554779327E-01 -0.70915054295E-01  0.83769313455E-01  0.51100000000E-03 0.  1.
         11    1    4    4    0    0 -0.17501771706E-01 -0.55043607679E-02 -0.45435403003E-01  0.49002520010E-01  0.51100000000E-03 0. -1.
</event>
<event>
 8    1  0.1199892E+005  0.1043930E+01  0.7957747E-01            NaN
         13   -1    0    0    0    0  0.00000000000E+00  0.00000000000E+00  0.74505805969E-08  0.10566000000E+00  0.10566000000E+00 0.  1.
     999900   -1    0    0    0    0 -0.00000000000E+00 -0.00000000000E+00 -0.74505805969E-08  0.93827000000E+00  0.93827000000E+00 0.  1.
     999902    2    1    2    0    0  0.19362324508E-01 -0.93898474040E-02  0.44356547929E-02  0.10219585668E+01  0.10217223538E+01 0.  0.
     999903    2    3    3    0    0  0.12937922253E+00  0.28562692513E-01  0.83643367800E-02  0.13428771129E+00  0.20209320783E-01 0.  0.
         14    1    1    2    0    0 -0.19362324508E-01  0.93898474040E-02 -0.44356547929E-02  0.21971433227E-01  0.00000000000E+00 0. -1.
     999901    1    3    3    0    0 -0.11001689802E+00 -0.37952539917E-01 -0.39286819872E-02  0.88767085549E+00  0.88000000000E+00 0. -1.
        -11    1    4    4    0    0  0.37941488875E-01  0.15388886957E-01 -0.37293503974E-02  0.41116220585E-01  0.51100000000E-03 0.  1.
         11    1    4    4    0    0  0.91437733657E-01  0.13173805556E-01  0.12093687177E-01  0.93171490702E-01  0.51100000000E-03 0. -1.
</event>
<event>
 8    1  0.1199892E+005  0.1043930E+01  0.7957747E-01            NaN
         13   -1    0    0    0    0  0.00000000000E+00  0.00000000000E+00  0.74505805969E-08  0.10566000000E+00  0.10566000000E+00 0. -1.
     999900   -1    0    0    0    0 -0.00000000000E+00 -0.00000000000E+00 -0.74505805969E-08  0.93827000000E+00  0.93827000000E+00 0. -1.
     999902    2    1    2    0    0  0.94946055011E-02  0.18293988891E-01 -0.50165932879E-03  0.10233127930E+01  0.10231050792E+01 0.  0.
     999903    2    3    3    0    0 -0.12283618583E-01 -0.12594595906E+00 -0.26107867776E-01  0.13093667747E+00  0.21201906917E-01 0.  0.
         14    1    1    2    0    0 -0.94946055011E-02 -0.18293988891E-01  0.50165932879E-03  0.20617207019E-01  0.00000000000E+00 0. -1.
     999901    1    3    3    0    0  0.21778224084E-01  0.14423994795E+00  0.25606208447E-01  0.89237611551E+00  0.88000000000E+00 0. -1.
        -11    1    4    4    0    0 -0.18319543696E-01 -0.91784648661E-01 -0.18105057992E-01  0.95331430583E-01  0.51100000000E-03 0.  1.
         11    1    4    4    0    0  0.60359251135E-02 -0.34161310400E-01 -0.80028097839E-02  0.35605246883E-01  0.51100000000E-03 0. -1.
</event>
<event>
 8    1  0.1199892E+005  0.1043930E+01  0.7957747E-01            NaN
         13   -1    0    0    0    0  0.00000000000E+00  0.00000000000E+00  0.74505805969E-08  0.10566000000E+00  0.10566000000E+00 0.  1.
     999900   -1    0    0    0    0 -0.00000000000E+00 -0.00000000000E+00 -0.74505805969E-08  0.93827000000E+00  0.93827000000E+00 0. -1.
     999902    2    1    2    0    0  0.16745466428E-01 -0.11069288650E-01  0.12270800707E-01  0.10204031569E+01  0.10201318984E+01 0.  0.
     999903    2    3    3    0    0 -0.17221631504E-01  0.90913660803E-01  0.89807259600E-01  0.13047833524E+00  0.19934236308E-01 0.  0.
         14    1    1    2    0    0 -0.16745466428E-01  0.11069288650E-01 -0.12270800707E-01  0.23526843118E-01  0.00000000000E+00 0. -1.
     999901    1    3    3    0    0  0.33967097932E-01 -0.10198294945E+00 -0.77536458893E-01  0.88992482164E+00  0.88000000000E+00 0. -1.
        -11    1    4    4    0    0  0.15845379197E-02  0.15741251014E-01  0.24342357340E-01  0.29036343189E-01  0.51100000000E-03 0. -1.
         11    1    4    4    0    0 -0.18806169424E-01  0.75172409789E-01  0.65464902260E-01  0.10144199205E+00  0.51100000000E-03 0.  1.
</event>
<event>
 8    1  0.1199892E+005  0.1043930E+01  0.7957747E-01            NaN
         13   -1    0    0    0    0  0.00000000000E+00  0.00000000000E+00  0.74505805969E-08  0.10566000000E+00  0.10566000000E+00 0.  1.
     999900   -1    0    0    0    0 -0.00000000000E+00 -0.00000000000E+00 -0.74505805969E-08  0.93827000000E+00  0.93827000000E+00 0.  1.
     999902    2    1    2    0    0  0.14489655484E-01  0.40590920559E-02 -0.18186919687E-01  0.10203251193E+01  0.10200520373E+01 0.  0.
     999903    2    3    3    0    0  0.12852607197E+00 -0.19826705896E-01  0.41742289995E-02  0.13236405227E+00  0.24305733935E-01 0.  0.
         14    1    1    2    0    0 -0.14489655484E-01 -0.40590920559E-02  0.18186919687E-01  0.23604880683E-01  0.00000000000E+00 0.  1.
     999901    1    3    3    0    0 -0.11403641648E+00  0.23885797952E-01 -0.22361148687E-01  0.88796106705E+00  0.88000000000E+00 0. -1.
        -11    1    4    4    0    0  0.26829463776E-01 -0.82179393972E-02 -0.82561839197E-02  0.29253723667E-01  0.51100000000E-03 0.  1.
         11    1    4    4    0    0  0.10169660819E+00 -0.11608766499E-01  0.12430412919E-01  0.10311032860E+00  0.51100000000E-03 0. -1.
</event>
<event>
 8    1  0.1199892E+005  0.1043930E+01  0.7957747E-01            NaN
         13   -1    0    0    0    0  0.00000000000E+00  0.00000000000E+00  0.74505805969E-08  0.10566000000E+00  0.10566000000E+00 0.  1.
     999900   -1    0    0    0    0 -0.00000000000E+00 -0.00000000000E+00 -0.74505805969E-08  0.93827000000E+00  0.93827000000E+00 0. -1.
     999902    2    1    2    0    0 -0.13991924232E-01  0.16912800791E-01  0.28726047715E-02  0.10217925062E+01  0.10215526697E+01 0.  0.
     999903    2    3    3    0    0 -0.71416886341E-01 -0.10498913010E+00  0.26416201232E-01  0.13122414386E+00  0.19971758839E-01 0.  0.
         14    1    1    2    0    0  0.13991924232E-01 -0.16912800791E-01 -0.28726047715E-02  0.22137493816E-01  0.00000000000E+00 0. -1.
     999901    1    3    3    0    0  0.57424962109E-01  0.12190193089E+00 -0.23543596461E-01  0.89056836232E+00  0.88000000000E+00 0.  1.
        -11    1    4    4    0    0 -0.50382610632E-01 -0.78729026218E-01  0.27885627667E-01  0.97542484973E-01  0.51100000000E-03 0.  1.
         11    1    4    4    0    0 -0.21034275710E-01 -0.26260103884E-01 -0.14694264352E-02  0.33681658892E-01  0.51100000000E-03 0. -1.
</event>
<event>
 8    1  0.1199892E+005  0.1043930E+01  0.7957747E-01            NaN
         13   -1    0    0    0    0  0.00000000000E+00  0.00000000000E+00  0.74505805969E-08  0.10566000000E+00  0.10566000000E+00 0. -1.
     999900   -1    0    0    0    0 -0.00000000000E+00 -0.00000000000E+00 -0.74505805969E-08  0.93827000000E+00  0.93827000000E+00 0. -1.
     999902    2    1    2    0    0  0.10871257617E-01 -0.15735997205E-01  0.12099184639E-01  0.10212982498E+01  0.10210474616E+01 0.  0.
     999903    2    3    3    0    0  0.66440696550E-01  0.94196797624E-01 -0.56593189530E-01  0.13006773850E+00  0.20674251061E-01 0.  0.
         14    1    1    2    0    0 -0.10871257617E-01  0.15735997205E-01 -0.12099184639E-01  0.22631750245E-01  0.00000000000E+00 0.  1.
     999901    1    3    3    0    0 -0.55569438933E-01 -0.10993279483E+00  0.68692374168E-01  0.89123051125E+00  0.88000000000E+00 0. -1.
        -11    1    4    4    0    0  0.27379187262E-01  0.28475753108E-01 -0.10831981471E-01  0.40964391290E-01  0.51100000000E-03 0. -1.
         11    1    4    4    0    0  0.39061509288E-01  0.65721044516E-01 -0.45761208059E-01  0.89103347210E-01  0.51100000000E-03 0.  1.
</event>
<event>
 8    1  0.1199892E+005  0.1043930E+01  0.7957747E-01            NaN
         13   -1    0    0    0    0  0.00000000000E+00  0.00000000000E+00  0.74505805969E-08  0.10566000000E+00  0.10566000000E+00 0. -1.
     999900   -1    0    0    0    0 -0.00000000000E+00 -0.00000000000E+00 -0.74505805969E-08  0.93827000000E+00  0.93827000000E+00 0. -1.
     999902    2    1    2    0    0  0.25651303113E-02 -0.20345523767E-01 -0.90464644492E-02  0.10215166390E+01  0.10212707208E+01 0.  0.
     999903    2    3    3    0    0 -0.44030893847E-01 -0.75680865010E-01 -0.99264660157E-01  0.13395114156E+00  0.20569944785E-01 0.  0.
         14    1    1    2    0    0 -0.25651303113E-02  0.20345523767E-01  0.90464644492E-02  0.22413360968E-01  0.00000000000E+00 0. -1.
     999901    1    3    3    0    0  0.46596024159E-01  0.55335341243E-01  0.90218195708E-01  0.88756549747E+00  0.88000000000E+00 0.  1.
        -11    1    4    4    0    0 -0.42599210632E-01 -0.59111465096E-01 -0.75351182224E-01  0.10481850903E+00  0.51100000000E-03 0.  1.
         11    1    4    4    0    0 -0.14316832153E-02 -0.16569399915E-01 -0.23913477933E-01  0.29132632531E-01  0.51100000000E-03 0. -1.
</event>
<event>
 8    1  0.1199892E+005  0.1043930E+01  0.7957747E-01            NaN
         13   -1    0    0    0    0  0.00000000000E+00  0.00000000000E+00  0.74505805969E-08  0.10566000000E+00  0.10566000000E+00 0. -1.
     999900   -1    0    0    0    0 -0.00000000000E+00 -0.00000000000E+00 -0.74505805969E-08  0.93827000000E+00  0.93827000000E+00 0. -1.
     999902    2    1    2    0    0  0.16023231619E-01  0.29967698439E-02  0.19590554552E-01  0.10184444274E+01  0.10181255018E+01 0.  0.
     999903    2    3    3    0    0 -0.10897881598E+00 -0.49232945528E-01 -0.35520158266E-01  0.12637344050E+00  0.20206423784E-01 0.  0.
         14    1    1    2    0    0 -0.16023231619E-01 -0.29967698439E-02 -0.19590554552E-01  0.25485572560E-01  0.00000000000E+00 0.  1.
     999901    1    3    3    0    0  0.12500204760E+00  0.52229715372E-01  0.55110712818E-01  0.89207098694E+00  0.88000000000E+00 0.  1.
        -11    1    4    4    0    0 -0.84654488421E-01 -0.28658204372E-01 -0.27618079633E-01  0.93545147021E-01  0.51100000000E-03 0. -1.
         11    1    4    4    0    0 -0.24324327562E-01 -0.20574741157E-01 -0.79020786336E-02  0.32828293479E-01  0.51100000000E-03 0.  1.
</event>
<event>
 8    1  0.1199892E+005  0.1043930E+01  0.7957747E-01            NaN
         13   -1    0    0    0    0  0.00000000000E+00  0.00000000000E+00  0.74505805969E-08  0.10566000000E+00  0.10566000000E+00 0.  1.
     999900   -1    0    0    0    0 -0.00000000000E+00 -0.00000000000E+00 -0.74505805969E-08  0.93827000000E+00  0.93827000000E+00 0.  1.
     999902    2    1    2    0    0 -0.18755487700E-01 -0.15448614457E-01 -0.12257162788E-02  0.10196003804E+01  0.10193100634E+01 0.  0.
     999903    2    3    3    0    0  0.92744723301E-01 -0.23658071976E-01 -0.83104239044E-01  0.12875595814E+00  0.22594117395E-01 0.  0.
         14    1    1    2    0    0  0.18755487700E-01  0.15448614457E-01  0.12257162788E-02  0.24329619559E-01  0.00000000000E+00 0.  1.
     999901    1    3    3    0    0 -0.11150021100E+00  0.82094575193E-02  0.81878522765E-01  0.89084442230E+00  0.88000000000E+00 0. -1.
        -11    1    4    4    0    0  0.37616976761E-01  0.17071444280E-02 -0.32043586267E-01  0.49446979934E-01  0.51100000000E-03 0. -1.
         11    1    4    4    0    0  0.55127746540E-01 -0.25365216404E-01 -0.51060652777E-01  0.79308978211E-01  0.51100000000E-03 0.  1.
</event>
<event>
 8    1  0.1199892E+005  0.1043930E+01  0.7957747E-01            NaN
         13   -1    0    0    0    0  0.00000000000E+00  0.00000000000E+00  0.74505805969E-08  0.10566000000E+00  0.10566000000E+00 0.  1.
     999900   -1    0    0    0    0 -0.00000000000E+00 -0.00000000000E+00 -0.74505805969E-08  0.93827000000E+00  0.93827000000E+00 0. -1.
     999902    2    1    2    0    0  0.14686421883E-01 -0.13559383965E-01  0.13466315161E-01  0.10198283502E+01  0.10195435127E+01 0.  0.
     999903    2    3    3    0    0  0.11219908642E+00  0.39128669328E-01  0.53659498341E-01  0.13196561151E+00  0.20393457304E-01 0.  0.
         14    1    1    2    0    0 -0.14686421883E-01  0.13559383965E-01 -0.13466315161E-01  0.24101649846E-01  0.00000000000E+00 0.  1.
     999901    1    3    3    0    0 -0.97512664538E-01 -0.52688053293E-01 -0.40193183179E-01  0.88786273865E+00  0.88000000000E+00 0.  1.
        -11    1    4    4    0    0  0.58509337668E-01  0.30647947497E-01  0.32741916276E-01  0.73722001347E-01  0.51100000000E-03 0.  1.
         11    1    4    4    0    0  0.53689748753E-01  0.84807218312E-02  0.20917582065E-01  0.58243610160E-01  0.51100000000E-03 0. -1.
</event>
<event>
 8    1  0.1199892E+005  0.1043930E+01  0.7957747E-01            NaN
         13   -1    0    0    0    0  0.00000000000E+00  0.00000000000E+00  0.74505805969E-08  0.10566000000E+00  0.10566000000E+00 0.  1.
     999900   -1    0    0    0    0 -0.00000000000E+00 -0.00000000000E+00 -0.74505805969E-08  0.93827000000E+00  0.93827000000E+00 0. -1.
     999902    2    1    2    0    0  0.17105240317E-01  0.11975595688E-01  0.10950366441E-01  0.10203521574E+01  0.10200797078E+01 0.  0.
     999903    2    3    3    0    0 -0.64441861295E-01  0.11209661009E+00 -0.17328766301E-02  0.13083823843E+00  0.19930837772E-01 0.  0.
         14    1    1    2    0    0 -0.17105240317E-01 -0.11975595688E-01 -0.10950366441E-01  0.23577842640E-01  0.00000000000E+00 0. -1.
     999901    1    3    3    0    0  0.81547101612E-01 -0.10012101440E+00  0.12683243071E-01  0.88951391892E+00  0.88000000000E+00 0.  1.
        -11    1    4    4    0    0 -0.35768436727E-01  0.76930170481E-01 -0.71377550292E-02  0.85140124876E-01  0.51100000000E-03 0. -1.
         11    1    4    4    0    0 -0.28673424568E-01  0.35166439610E-01  0.54048783991E-02  0.45698113559E-01  0.51100000000E-03 0.  1.
</event>
<event>
 8    1  0.1199892E+005  0.1043930E+01  0.7957747E-01            NaN
         13   -1    0    0    0    0  0.00000000000E+00  0.00000000000E+00  0.74505805969E-08  0.10566000000E+00  0.10566000000E+00 0.  1.
     999900   -1    0    0    0    0 -0.00000000000E+00 -0.00000000000E+00 -0.74505805969E-08  0.93827000000E+00  0.93827000000E+00 0. -1.
     999902    2    1    2    0    0  0.19059980552E-01  0.17043951316E-01  0.60169890608E-02  0.10176624670E+01  0.10173234065E+01 0.  0.
     999903    2    3    3    0    0  0.46909100120E-01 -0.11441619655E+00  0.24002089668E-01  0.12728007282E+00  0.18236965796E-01 0.  0.
         14    1    1    2    0    0 -0.19059980552E-01 -0.17043951316E-01 -0.60169890608E-02  0.26267533049E-01  0.00000000000E+00 0.  1.
     999901    1    3    3    0    0 -0.27849119569E-01  0.13146014787E+00 -0.17985100607E-01  0.89038239413E+00  0.88000000000E+00 0. -1.
        -11    1    4    4    0    0  0.22730510862E-01 -0.48770111627E-01  0.16420099930E-02  0.53834535663E-01  0.51100000000E-03 0. -1.
         11    1    4    4    0    0  0.24178589258E-01 -0.65646084922E-01  0.22360079675E-01  0.73445537156E-01  0.51100000000E-03 0.  1.
</event>
<event>
 8    1  0.1199892E+005  0.1043930E+01  0.7957747E-01            NaN
         13   -1    0    0    0    0  0.00000000000E+00  0.00000000000E+00  0.74505805969E-08  0.10566000000E+00  0.10566000000E+00 0.  1.
     999900   -1    0    0    0    0 -0.00000000000E+00 -0.00000000000E+00 -0.74505805969E-08  0.93827000000E+00  0.93827000000E+00 0. -1.
     999902    2    1    2    0    0 -0.65966507888E-02 -0.20483946402E-01  0.10800123111E-01  0.10198519909E+01  0.10195677186E+01 0.  0.
     999903    2    3    3    0    0 -0.93347637988E-01 -0.38262021717E-01 -0.80491931220E-01  0.13070856440E+00  0.20688499055E-01 0.  0.
         14    1    1    2    0    0  0.65966507888E-02  0.20483946402E-01 -0.10800123111E-01  0.24078009075E-01  0.00000000000E+00 0. -1.
     999901    1    3    3    0    0  0.86750987199E-01  0.17778075315E-01  0.91292054331E-01  0.88914342652E+00  0.88000000000E+00 0.  1.
        -11    1    4    4    0    0 -0.15987386792E-01 -0.16155646154E-02 -0.21069726616E-01  0.26502850529E-01  0.51100000000E-03 0.  1.
         11    1    4    4    0    0 -0.77360251196E-01 -0.36646457102E-01 -0.59422204603E-01  0.10420571387E+00  0.51100000000E-03 0. -1.
</event>
<event>
 8    1  0.1199892E+005  0.1043930E+01  0.7957747E-01            NaN
         13   -1    0    0    0    0  0.00000000000E+00  0.00000000000E+00  0.74505805969E-08  0.10566000000E+00  0.10566000000E+00 0. -1.
     999900   -1    0    0    0    0 -0.00000000000E+00 -0.00000000000E+00 -0.74505805969E-08  0.93827000000E+00  0.93827000000E+00 0.  1.
     999902    2    1    2    0    0  0.52030559724E-02  0.22982364765E-01 -0.18756742535E-02  0.10202914925E+01  0.10200176227E+01 0.  0.
     999903    2    3    3    0    0  0.12054392050E+00 -0.44327337241E-01  0.11560149278E-01  0.13011475032E+00  0.17333828263E-01 0.  0.
         14    1    1    2    0    0 -0.52030559724E-02 -0.22982364765E-01  0.18756742535E-02  0.23638507473E-01  0.00000000000E+00 0. -1.
     999901    1    3    3    0    0 -0.11534086453E+00  0.67309702006E-01 -0.13435823531E-01  0.89017674221E+00  0.88000000000E+00 0.  1.
        -11    1    4    4    0    0  0.49873381956E-01 -0.20774011842E-01 -0.33893319302E-02  0.54135593537E-01  0.51100000000E-03 0. -1.
         11    1    4    4    0    0  0.70670538547E-01 -0.23553325399E-01  0.14949481208E-01  0.75979156781E-01  0.51100000000E-03 0.  1.
</event>
<event>
 8    1  0.1199892E+005  0.1043930E+01  0.7957747E-01            NaN
         13   -1    0    0    0    0  0.00000000000E+00  0.00000000000E+00  0.74505805969E-08  0.10566000000E+00  0.10566000000E+00 0. -1.
     999900   -1    0    0    0    0 -0.00000000000E+00 -0.00000000000E+00 -0.74505805969E-08  0.93827000000E+00  0.93827000000E+00 0. -1.
     999902    2    1    2    0    0  0.19972584668E-02 -0.22511857557E-01  0.62063920820E-02  0.10204930191E+01  0.10202238528E+01 0.  0.
     999903    2    3    3    0    0  0.76052803797E-01  0.56835692612E-01  0.86612870251E-01  0.13018663404E+00  0.20795323247E-01 0.  0.
         14    1    1    2    0    0 -0.19972584668E-02  0.22511857557E-01 -0.62063920820E-02  0.23436980922E-01  0.00000000000E+00 0. -1.
     999901    1    3    3    0    0 -0.74055545331E-01 -0.79347550168E-01 -0.80406478169E-01  0.89030638504E+00  0.88000000000E+00 0.  1.
        -11    1    4    4    0    0  0.72366093708E-01  0.52353037121E-01  0.72918076839E-01  0.11530394211E+00  0.51100000000E-03 0.  1.
         11    1    4    4    0    0  0.36867100893E-02  0.44826554907E-02  0.13694793413E-01  0.14882691932E-01  0.51100000000E-03 0. -1.
</event>
<event>
 8    1  0.1199892E+005  0.1043930E+01  0.7957747E-01            NaN
         13   -1    0    0    0    0  0.00000000000E+00  0.00000000000E+00  0.74505805969E-08  0.10566000000E+00  0.10566000000E+00 0.  1.
     999900   -1    0    0    0    0 -0.00000000000E+00 -0.00000000000E+00 -0.74505805969E-08  0.93827000000E+00  0.93827000000E+00 0.  1.
     999902    2    1    2    0    0 -0.11192410265E-01  0.53919091681E-02  0.18746187012E-01  0.10214408413E+01  0.10211932383E+01 0.  0.
     999903    2    3    3    0    0 -0.11248709960E+00 -0.53156973815E-01 -0.38738126469E-01  0.13183810294E+00  0.20040746043E-01 0.  0.
         14    1    1    2    0    0  0.11192410265E-01 -0.53919091681E-02 -0.18746187012E-01  0.22489158711E-01  0.00000000000E+00 0.  1.
     999901    1    3    3    0    0  0.10129468934E+00  0.58548882983E-01  0.57484313481E-01  0.88960273835E+00  0.88000000000E+00 0.  1.
        -11    1    4    4    0    0 -0.67764654955E-02 -0.71124781351E-03 -0.66774598651E-02  0.95538447399E-02  0.51100000000E-03 0. -1.
         11    1    4    4    0    0 -0.10571063411E+00 -0.52445726001E-01 -0.32060666604E-01  0.12228425820E+00  0.51100000000E-03 0.  1.
</event>
<event>
 8    1  0.1199892E+005  0.1043930E+01  0.7957747E-01            NaN
         13   -1    0    0    0    0  0.00000000000E+00  0.00000000000E+00  0.74505805969E-08  0.10566000000E+00  0.10566000000E+00 0.  1.
     999900   -1    0    0    0    0 -0.00000000000E+00 -0.00000000000E+00 -0.74505805969E-08  0.93827000000E+00  0.93827000000E+00 0. -1.
     999902    2    1    2    0    0  0.79075351442E-02  0.13692102556E-01  0.19135052357E-01  0.10191075704E+01  0.10188052252E+01 0.  0.
     999903    2    3    3    0    0 -0.13213252054E-01 -0.89453693839E-01 -0.86304642083E-01  0.12658156394E+00  0.19946120282E-01 0.  0.
         14    1    1    2    0    0 -0.79075351442E-02 -0.13692102556E-01 -0.19135052357E-01  0.24822429639E-01  0.00000000000E+00 0. -1.
     999901    1    3    3    0    0  0.21120787198E-01  0.10314579640E+00  0.10543969444E+00  0.89252600642E+00  0.88000000000E+00 0.  1.
        -11    1    4    4    0    0  0.23560059641E-02 -0.41666770423E-01 -0.32043778199E-01  0.52618773872E-01  0.51100000000E-03 0. -1.
         11    1    4    4    0    0 -0.15569258018E-01 -0.47786923416E-01 -0.54260863884E-01  0.73962790072E-01  0.51100000000E-03 0.  1.
</event>
<event>
 8    1  0.1199892E+005  0.1043930E+01  0.7957747E-01            NaN
         13   -1    0    0    0    0  0.00000000000E+00  0.00000000000E+00  0.74505805969E-08  0.10566000000E+00  0.10566000000E+00 0. -1.
     999900   -1    0    0    0    0 -0.00000000000E+00 -0.00000000000E+00 -0.74505805969E-08  0.93827000000E+00  0.93827000000E+00 0.  1.
     999902    2    1    2    0    0  0.50715689555E-02  0.17432253094E-01 -0.10956824408E-01  0.10227249001E+01  0.10225050440E+01 0.  0.
     999903    2    3    3    0    0  0.11223357783E-01 -0.85219362898E-01 -0.98729541403E-01  0.13239953902E+00  0.19844697413E-01 0.  0.
         14    1    1    2    0    0 -0.50715689555E-02 -0.17432253094E-01  0.10956824408E-01  0.21205099875E-01  0.00000000000E+00 0. -1.
     999901    1    3    3    0    0 -0.61517888276E-02  0.10265161599E+00  0.87772716996E-01  0.89032536110E+00  0.88000000000E+00 0. -1.
        -11    1    4    4    0    0  0.12105056311E-01 -0.23998200989E-01 -0.33119522123E-01  0.42656885794E-01  0.51100000000E-03 0.  1.
         11    1    4    4    0    0 -0.88169852796E-03 -0.61221161908E-01 -0.65610019280E-01  0.89742653229E-01  0.51100000000E-03 0. -1.
</event>
<event>
 7    1  0.1199892E+005  0.1043930E+01  0.7957747E-01            NaN
         13   -1    0    0    0    0  0.00000000000E+00  0.00000000000E+00  0.74505805969E-08  0.10566000000E+00  0.10566000000E+00 0.  1.
     999900   -1    0    0    0    0 -0.00000000000E+00 -0.00000000000E+00 -0.74505805969E-08  0.93827000000E+00  0.93827000000E+00 0. -1.
     999902    2    1    2    0    0  0.17414634121E-01 -0.12520923707E-01  0.10863602653E-01  0.10198871034E+01  0.10196036695E+01 0.  0.
         14    1    1    2    0    0 -0.17414634121E-01  0.12520923707E-01 -0.10863602653E-01  0.24042896553E-01  0.00000000000E+00 0. -1.
     999901    1    3    3    0    0  0.21246488256E-01  0.81745728479E-01 -0.68504893965E-01  0.88669425276E+00  0.88000000000E+00 0. -1.
        -11    1    3    3    0    0 -0.11365799824E-01 -0.32157914149E-01  0.57609782438E-01  0.66951183721E-01  0.51100000000E-03 0. -1.
         11    1    3    3    0    0  0.75339456895E-02 -0.62108738036E-01  0.21758714181E-01  0.66241666962E-01  0.51100000000E-03 0.  1.
</event>
<event>
 8    1  0.1199892E+005  0.1043930E+01  0.7957747E-01            NaN
         13   -1    0    0    0    0  0.00000000000E+00  0.00000000000E+00  0.74505805969E-08  0.10566000000E+00  0.10566000000E+00 0.  1.
     999900   -1    0    0    0    0 -0.00000000000E+00 -0.00000000000E+00 -0.74505805969E-08  0.93827000000E+00  0.93827000000E+00 0. -1.
     999902    2    1    2    0    0 -0.19877620454E-01  0.12348720041E-01 -0.35011409318E-03  0.10205262981E+01  0.10202579046E+01 0.  0.
     999903    2    3    3    0    0  0.45084674393E-01  0.11496050810E+00 -0.41629228420E-01  0.13122699863E+00  0.15459179253E-01 0.  0.
         14    1    1    2    0    0  0.19877620454E-01 -0.12348720041E-01  0.35011409318E-03  0.23403701875E-01  0.00000000000E+00 0.  1.
     999901    1    3    3    0    0 -0.64962294847E-01 -0.10261178806E+00  0.41279114327E-01  0.88929929949E+00  0.88000000000E+00 0.  1.
        -11    1    4    4    0    0  0.34429482449E-01  0.10161753854E+00 -0.37441407768E-01  0.11363816937E+00  0.51100000000E-03 0.  1.
         11    1    4    4    0    0  0.10655191944E-01  0.13342969561E-01 -0.41878206523E-02  0.17588829264E-01  0.51100000000E-03 0. -1.
</event>
<event>
 8    1  0.1199892E+005  0.1043930E+01  0.7957747E-01            NaN
         13   -1    0    0    0    0  0.00000000000E+00  0.00000000000E+00  0.74505805969E-08  0.10566000000E+00  0.10566000000E+00 0. -1.
     999900   -1    0    0    0    0 -0.00000000000E+00 -0.00000000000E+00 -0.74505805969E-08  0.93827000000E+00  0.93827000000E+00 0.  1.
     999902    2    1    2    0    0 -0.13451819407E-01 -0.18758950513E-01  0.60709381635E-02  0.10200614860E+01  0.10197821970E+01 0.  0.
     999903    2    3    3    0    0  0.12561296398E+00 -0.16458807645E-01 -0.13585536403E-01  0.12892138388E+00  0.19663350486E-01 0.  0.
         14    1    1    2    0    0  0.13451819407E-01  0.18758950513E-01 -0.60709381635E-02  0.23868513986E-01  0.00000000000E+00 0. -1.
     999901    1    3    3    0    0 -0.13906478339E+00 -0.23001428682E-02  0.19656474567E-01  0.89114010213E+00  0.88000000000E+00 0. -1.
        -11    1    4    4    0    0  0.48392806368E-01 -0.62718204335E-02 -0.14884454795E-01  0.51019678118E-01  0.51100000000E-03 0.  1.
         11    1    4    4    0    0  0.77220157617E-01 -0.10186987212E-01  0.12989183919E-02  0.77901705763E-01  0.51100000000E-03 0. -1.
</event>
<event>
 8    1  0.1199892E+005  0.1043930E+01  0.7957747E-01            NaN
         13   -1    0    0    0    0  0.00000000000E+00  0.00000000000E+00  0.74505805969E-08  0.10566000000E+00  0.10566000000E+00 0.  1.
     999900   -1    0    0    0    0 -0.00000000000E+00 -0.00000000000E+00 -0.74505805969E-08  0.93827000000E+00  0.93827000000E+00 0. -1.
     999902    2    1    2    0    0  0.10217501519E-01 -0.85691012483E-02  0.19915963156E-01  0.10199618457E+01  0.10196801921E+01 0.  0.
     999903    2    3    3    0    0 -0.29659393869E-01  0.61261202019E-01 -0.10595101965E+00  0.12737631173E+00  0.19143973155E-01 0.  0.
         14    1    1    2    0    0 -0.10217501519E-01  0.85691012483E-02 -0.19915963156E-01  0.23968154329E-01  0.00000000000E+00 0. -1.
     999901    1    3    3    0    0  0.39876895387E-01 -0.69830303267E-01  0.12586698280E+00  0.89258553394E+00  0.88000000000E+00 0.  1.
        -11    1    4    4    0    0 -0.26142489475E-02  0.12472451742E-02 -0.13909378289E-01  0.14216956196E-01  0.51100000000E-03 0.  1.
         11    1    4    4    0    0 -0.27045144921E-01  0.60013956845E-01 -0.92041641358E-01  0.11315935553E+00  0.51100000000E-03 0. -1.
</event>
<event>
 8    1  0.1199892E+005  0.1043930E+01  0.7957747E-01            NaN
         13   -1    0    0    0    0  0.00000000000E+00  0.00000000000E+00  0.74505805969E-08  0.10566000000E+00  0.10566000000E+00 0.  1.
     999900   -1    0    0    0    0 -0.00000000000E+00 -0.00000000000E+00 -0.74505805969E-08  0.93827000000E+00  0.93827000000E+00 0.  1.
     999902    2    1    2    0    0 -0.62509088868E-02 -0.16741885134E-01  0.12529744916E-01  0.10221043479E+01  0.10218712928E+01 0.  0.
     999903    2    3    3    0    0 -0.10008014818E+00 -0.36675149332E-01  0.79330635548E-01  0.13437487330E+00  0.20053782705E-01 0.  0.
         14    1    1    2    0    0  0.62509088868E-02  0.16741885134E-01 -0.12529744916E-01  0.21825652050E-01  0.00000000000E+00 0. -1.
     999901    1    3    3    0    0  0.93829239292E-01  0.19933264198E-01 -0.66800890631E-01  0.88772947465E+00  0.88000000000E+00 0.  1.
        -11    1    4    4    0    0 -0.85257283871E-01 -0.27098911013E-01  0.73498705588E-01  0.11578202052E+00  0.51100000000E-03 0.  1.
         11    1    4    4    0    0 -0.14822864308E-01 -0.95762383183E-02  0.58319299598E-02  0.18592852785E-01  0.51100000000E-03 0. -1.
</event>
<event>
 8    1  0.1199892E+005  0.1043930E+01  0.7957747E-01            NaN
         13   -1    0    0    0    0  0.00000000000E+00  0.00000000000E+00  0.74505805969E-08  0.10566000000E+00  0.10566000000E+00 0.  1.
     999900   -1    0    0    0    0 -0.00000000000E+00 -0.00000000000E+00 -0.74505805969E-08  0.93827000000E+00  0.93827000000E+00 0.  1.
     999902    2    1    2    0    0  0.97446516183E-03  0.23460545371E-01  0.44355017594E-02  0.10200339659E+01  0.10197540248E+01 0.  0.
     999903    2    3    3    0    0  0.85277484639E-01  0.36841386578E-01  0.91213588435E-01  0.13165539660E+00  0.19587944952E-01 0.  0.
         14    1    1    2    0    0 -0.97446516183E-03 -0.23460545371E-01 -0.44355017594E-02  0.23896034134E-01  0.00000000000E+00 0.  1.
     999901    1    3    3    0    0 -0.84303019477E-01 -0.13380841207E-01 -0.86778086676E-01  0.88837856927E+00  0.88000000000E+00 0.  1.
        -11    1    4    4    0    0  0.20100074593E-01  0.55092471496E-02  0.31976572531E-01  0.38172334414E-01  0.51100000000E-03 0.  1.
         11    1    4    4    0    0  0.65177410046E-01  0.31332139428E-01  0.59237015904E-01  0.93483062186E-01  0.51100000000E-03 0. -1.
</event>
<event>
 8    1  0.1199892E+005  0.1043930E+01  0.7957747E-01            NaN
         13   -1    0    0    0    0  0.00000000000E+00  0.00000000000E+00  0.74505805969E-08  0.10566000000E+00  0.10566000000E+00 0. -1.
     999900   -1    0    0    0    0 -0.00000000000E+00 -0.00000000000E+00 -0.74505805969E-08  0.93827000000E+00  0.93827000000E+00 0. -1.
     999902    2    1    2    0    0 -0.17576217969E-01 -0.13146921530E-01  0.11177242701E-01  0.10192988056E+01  0.10190011577E+01 0.  0.
     999903    2    3    3    0    0 -0.77247205748E-01  0.71318131353E-01 -0.72385211173E-01  0.12931135869E+00  0.20697875100E-01 0.  0.
         14    1    1    2    0    0  0.17576217969E-01  0.13146921530E-01 -0.11177242701E-01  0.24631194413E-01  0.00000000000E+00 0.  1.
     999901    1    3    3    0    0  0.59670987779E-01 -0.84465052883E-01  0.83562453874E-01  0.88998744690E+00  0.88000000000E+00 0.  1.
        -11    1    4    4    0    0 -0.47635639267E-01  0.31944358478E-01 -0.32523271895E-01  0.65936488401E-01  0.51100000000E-03 0.  1.
         11    1    4    4    0    0 -0.29611566481E-01  0.39373772875E-01 -0.39861939278E-01  0.63374870287E-01  0.51100000000E-03 0. -1.
</event>
<event>
 8    1  0.1199892E+005  0.1043930E+01  0.7957747E-01            NaN
         13   -1    0    0    0    0  0.00000000000E+00  0.00000000000E+00  0.74505805969E-08  0.10566000000E+00  0.10566000000E+00 0. -1.
     999900   -1    0    0    0    0 -0.00000000000E+00 -0.00000000000E+00 -0.74505805969E-08  0.93827000000E+00  0.93827000000E+00 0. -1.
     999902    2    1    2    0    0 -0.12324367880E-01 -0.19998594219E-01 -0.39918767820E-02  0.10201020984E+01  0.10198237702E+01 0.  0.
     999903    2    3    3    0    0  0.30294280393E-01  0.11918435129E+00  0.32742630004E-01  0.12738844583E+00  0.57518077946E-02 0.  0.
         14    1    1    2    0    0  0.12324367880E-01  0.19998594219E-01  0.39918767820E-02  0.23827901599E-01  0.00000000000E+00 0. -1.
     999901    1    3    3    0    0 -0.42618648273E-01 -0.13918294551E+00 -0.36734506785E-01  0.89271365257E+00  0.88000000000E+00 0. -1.
        -11    1    4    4    0    0  0.17632764136E-01  0.69082580708E-01  0.21866585728E-01  0.74576980502E-01  0.51100000000E-03 0.  1.
         11    1    4    4    0    0  0.12661516257E-01  0.50101770586E-01  0.10876044276E-01  0.52811465325E-01  0.51100000000E-03 0. -1.
</event>
<event>
 8    1  0.1199892E+005  0.1043930E+01  0.7957747E-01            NaN
         13   -1    0    0    0    0  0.00000000000E+00  0.00000000000E+00  0.74505805969E-08  0.10566000000E+00  0.10566000000E+00 0.  1.
     999900   -1    0    0    0    0 -0.00000000000E+00 -0.00000000000E+00 -0.74505805969E-08  0.93827000000E+00  0.93827000000E+00 0. -1.
     999902    2    1    2    0    0 -0.10467264394E-01  0.18956697021E-02 -0.20724624374E-01  0.10206347807E+01  0.10203688981E+01 0.  0.
     999903    2    3    3    0    0 -0.10632906766E+00  0.38299468106E-01  0.62116308792E-01  0.13081606765E+00  0.21947388241E-01 0.  0.
         14    1    1    2    0    0  0.10467264394E-01 -0.18956697021E-02  0.20724624374E-01  0.23295219315E-01  0.00000000000E+00 0.  1.
     999901    1    3    3    0    0  0.95861803264E-01 -0.36403798404E-01 -0.82840933166E-01  0.88981871304E+00  0.88000000000E+00 0.  1.
        -11    1    4    4    0    0 -0.20679234186E-01  0.10226543984E-01  0.36050119697E-02  0.23355302625E-01  0.51100000000E-03 0. -1.
         11    1    4    4    0    0 -0.85649833471E-01  0.28072924122E-01  0.58511296822E-01  0.10746076502E+00  0.51100000000E-03 0.  1.
</event>
<event>
 8    1  0.1199892E+005  0.1043930E+01  0.7957747E-01            NaN
         13   -1    0    0    0    0  0.00000000000E+00  0.00000000000E+00  0.74505805969E-08  0.10566000000E+00  0.10566000000E+00 0.  1.
     999900   -1    0    0    0    0 -0.00000000000E+00 -0.00000000000E+00 -0.74505805969E-08  0.93827000000E+00  0.93827000000E+00 0.  1.
     999902    2    1    2    0    0  0.23874928228E-02 -0.22979734344E-01 -0.84798081636E-02  0.10193195254E+01  0.10190223842E+01 0.  0.
     999903    2    3    3    0    0  0.17516975230E-01 -0.11690527638E+00  0.55006784623E-01  0.13191800629E+00  0.20073015810E-01 0.  0.
         14    1    1    2    0    0 -0.23874928228E-02  0.22979734344E-01  0.84798081636E-02  0.24610474578E-01  0.00000000000E+00 0. -1.
     999901    1    3    3    0    0 -0.15129482407E-01  0.93925542036E-01 -0.63486592787E-01  0.88740151913E+00  0.88000000000E+00 0.  1.
        -11    1    4    4    0    0 -0.19015152495E-02 -0.36994288259E-01  0.10996915686E-01  0.38644357928E-01  0.51100000000E-03 0.  1.
         11    1    4    4    0    0  0.19418490480E-01 -0.79910988120E-01  0.44009868937E-01  0.93273648367E-01  0.51100000000E-03 0. -1.
</event>
<event>
 8    1  0.1199892E+005  0.1043930E+01  0.7957747E-01            NaN
         13   -1    0    0    0    0  0.00000000000E+00  0.00000000000E+00  0.74505805969E-08  0.10566000000E+00  0.10566000000E+00 0. -1.
     999900   -1    0    0    0    0 -0.00000000000E+00 -0.00000000000E+00 -0.74505805969E-08  0.93827000000E+00  0.93827000000E+00 0. -1.
     999902    2    1    2    0    0  0.23045831829E-01 -0.47200585132E-02  0.19055086718E-02  0.10203287229E+01  0.10200557252E+01 0.  0.
     999903    2    3    3    0    0  0.11633813188E+00 -0.46238495420E-01 -0.39826977706E-01  0.13344156308E+00  0.23407332542E-01 0.  0.
         14    1    1    2    0    0 -0.23045831829E-01  0.47200585132E-02 -0.19055086718E-02  0.23601277092E-01  0.00000000000E+00 0.  1.
     999901    1    3    3    0    0 -0.93292300046E-01  0.41518436907E-01  0.41732486378E-01  0.88688715983E+00  0.88000000000E+00 0. -1.
        -11    1    4    4    0    0  0.68432209748E-01 -0.15417505979E-01 -0.17866192969E-01  0.72388733888E-01  0.51100000000E-03 0. -1.
         11    1    4    4    0    0  0.47905922127E-01 -0.30820989441E-01 -0.21960784737E-01  0.61052829191E-01  0.51100000000E-03 0.  1.
</event>
<event>
 8    1  0.1199892E+005  0.1043930E+01  0.7957747E-01            NaN
         13   -1    0    0    0    0  0.00000000000E+00  0.00000000000E+00  0.74505805969E-08  0.10566000000E+00  0.10566000000E+00 0. -1.
     999900   -1    0    0    0    0 -0.00000000000E+00 -0.00000000000E+00 -0.74505805969E-08  0.93827000000E+00  0.93827000000E+00 0. -1.
     999902    2    1    2    0    0  0.98106115772E-02 -0.10916739398E-02 -0.24608617999E-01  0.10174154015E+01  0.10170698478E+01 0.  0.
     999903    2    3    3    0    0 -0.14922215968E-01  0.86526094629E-01 -0.93965200015E-01  0.13000404169E+00  0.19030356297E-01 0.  0.
         14    1    1    2    0    0 -0.98106115772E-02  0.10916739398E-02  0.24608617999E-01  0.26514598456E-01  0.00000000000E+00 0.  1.
     999901    1    3    3    0    0  0.24732827545E-01 -0.87617768569E-01  0.69356582016E-01  0.88741135985E+00  0.88000000000E+00 0.  1.
        -11    1    4    4    0    0 -0.10828732713E-01  0.49184519181E-01 -0.40342154718E-01  0.64530062355E-01  0.51100000000E-03 0. -1.
         11    1    4    4    0    0 -0.40934832547E-02  0.37341575449E-01 -0.53623045297E-01  0.65473979335E-01  0.51100000000E-03 0.  1.
</event>
<event>
 8    1  0.1199892E+005  0.1043930E+01  0.7957747E-01            NaN
         13   -1    0    0    0    0  0.00000000000E+00  0.00000000000E+00  0.74505805969E-08  0.10566000000E+00  0.10566000000E+00 0.  1.
     999900   -1    0    0    0    0 -0.00000000000E+00 -0.00000000000E+00 -0.74505805969E-08  0.93827000000E+00  0.93827000000E+00 0. -1.
     999902    2    1    2    0    0  0.10162779392E-01 -0.76365510806E-02  0.21022812663E-01  0.10193625897E+01  0.10190665001E+01 0.  0.
     999903    2    3    3    0    0 -0.88316771664E-01  0.48746332955E-01 -0.73244002466E-01  0.12708265378E+00  0.24683189822E-01 0.  0.
         14    1    1    2    0    0 -0.10162779392E-01  0.76365510806E-02 -0.21022812663E-01  0.24567410316E-01  0.00000000000E+00 0. -1.
     999901    1    3    3    0    0  0.98479551056E-01 -0.56382884035E-01  0.94266815130E-01  0.89227993591E+00  0.88000000000E+00 0.  1.
        -11    1    4    4    0    0 -0.61714893376E-01  0.24531683120E-01 -0.37044369198E-01  0.76046551213E-01  0.51100000000E-03 0. -1.
         11    1    4    4    0    0 -0.26601878288E-01  0.24214649834E-01 -0.36199633269E-01  0.51036102563E-01  0.51100000000E-03 0.  1.
</event>
<event>
 8    1  0.1199892E+005  0.1043930E+01  0.7957747E-01            NaN
         13   -1    0    0    0    0  0.00000000000E+00  0.00000000000E+00  0.74505805969E-08  0.10566000000E+00  0.10566000000E+00 0.  1.
     999900   -1    0    0    0    0 -0.00000000000E+00 -0.00000000000E+00 -0.74505805969E-08  0.93827000000E+00  0.93827000000E+00 0. -1.
     999902    2    1    2    0    0  0.12193331878E-01 -0.14241479388E-01  0.23135504130E-01  0.10141516752E+01  0.10137143935E+01 0.  0.
     999903    2    3    3    0    0 -0.20972826949E-01 -0.11525163592E+00 -0.39877275713E-01  0.12551583513E+00  0.21005444480E-01 0.  0.
         14    1    1    2    0    0 -0.12193331878E-01  0.14241479388E-01 -0.23135504130E-01  0.29778324815E-01  0.00000000000E+00 0. -1.
     999901    1    3    3    0    0  0.33166158827E-01  0.10101015653E+00  0.63012779843E-01  0.88863584006E+00  0.88000000000E+00 0.  1.
        -11    1    4    4    0    0 -0.21628135597E-01 -0.63411133752E-01 -0.19192229511E-01  0.69694697989E-01  0.51100000000E-03 0. -1.
         11    1    4    4    0    0  0.65530864840E-03 -0.51840502163E-01 -0.20685046202E-01  0.55821137138E-01  0.51100000000E-03 0.  1.
</event>
<event>
 8    1  0.1199892E+005  0.1043930E+01  0.7957747E-01            NaN
         13   -1    0    0    0    0  0.00000000000E+00  0.00000000000E+00  0.74505805969E-08  0.10566000000E+00  0.10566000000E+00 0.  1.
     999900   -1    0    0    0    0 -0.00000000000E+00 -0.00000000000E+00 -0.74505805969E-08  0.93827000000E+00  0.93827000000E+00 0. -1.
     999902    2    1    2    0    0 -0.98403559541E-03 -0.13439640177E-01 -0.20743379499E-01  0.10191937908E+01  0.10188935681E+01 0.  0.
     999903    2    3    3    0    0 -0.60916286475E-01  0.17132959286E-02  0.11004803638E+00  0.12738221838E+00  0.20048189633E-01 0.  0.
         14    1    1    2    0    0  0.98403559541E-03  0.13439640177E-01  0.20743379499E-01  0.24736209232E-01  0.00000000000E+00 0.  1.
     999901    1    3    3    0    0  0.59932250880E-01 -0.15152936105E-01 -0.13079141588E+00  0.89181157238E+00  0.88000000000E+00 0. -1.
        -11    1    4    4    0    0 -0.26803898250E-01 -0.95203418003E-03  0.68441077356E-01  0.73510526601E-01  0.51100000000E-03 0. -1.
         11    1    4    4    0    0 -0.34112388225E-01  0.26653301086E-02  0.41606959029E-01  0.53871691784E-01  0.51100000000E-03 0.  1.
</event>
<event>
 8    1  0.1199892E+005  0.1043930E+01  0.7957747E-01            NaN
         13   -1    0    0    0    0  0.00000000000E+00  0.00000000000E+00  0.74505805969E-08  0.10566000000E+00  0.10566000000E+00 0.  1.
     999900   -1    0    0    0    0 -0.00000000000E+00 -0.00000000000E+00 -0.74505805969E-08  0.93827000000E+00  0.93827000000E+00 0. -1.
     999902    2    1    2    0    0  0.72893910103E-02  0.18797022525E-01 -0.12803613920E-01  0.10200470394E+01  0.10197674082E+01 0.  0.
     999903    2    3    3    0    0  0.12613831514E+00 -0.23380318530E-01  0.14255648646E-01  0.13064488147E+00  0.20182856427E-01 0.  0.
         14    1    1    2    0    0 -0.72893910103E-02 -0.18797022525E-01  0.12803613920E-01  0.23882960590E-01  0.00000000000E+00 0.  1.
     999901    1    3    3    0    0 -0.11884892413E+00  0.42177341055E-01 -0.27059262566E-01  0.88940215794E+00  0.88000000000E+00 0.  1.
        -11    1    4    4    0    0  0.10642959858E+00 -0.25395535926E-01  0.16666411324E-01  0.11068072591E+00  0.51100000000E-03 0. -1.
         11    1    4    4    0    0  0.19708716558E-01  0.20152173968E-02 -0.24107626784E-02  0.19964155559E-01  0.51100000000E-03 0.  1.
</event>
<event>
 8    1  0.1199892E+005  0.1043930E+01  0.7957747E-01            NaN
         13   -1    0    0    0    0  0.00000000000E+00  0.00000000000E+00  0.74505805969E-08  0.10566000000E+00  0.10566000000E+00 0. -1.
     999900   -1    0    0    0    0 -0.00000000000E+00 -0.00000000000E+00 -0.74505805969E-08  0.93827000000E+00  0.93827000000E+00 0. -1.
     999902    2    1    2    0    0  0.10401178132E-01 -0.14337175953E-01  0.15430400232E-01  0.10204388022E+01  0.10201683747E+01 0.  0.
     999903    2    3    3    0    0  0.11990199434E+00  0.49349120304E-01  0.61052657723E-02  0.13131938888E+00  0.19891799926E-01 0.  0.
         14    1    1    2    0    0 -0.10401178132E-01  0.14337175953E-01 -0.15430400232E-01  0.23491197759E-01  0.00000000000E+00 0.  1.
     999901    1    3    3    0    0 -0.10950081621E+00 -0.63686296257E-01  0.93251344595E-02  0.88911941336E+00  0.88000000000E+00 0.  1.
        -11    1    4    4    0    0  0.15909507192E-01  0.10425253046E-01 -0.51457269759E-02  0.19711365941E-01  0.51100000000E-03 0.  1.
         11    1    4    4    0    0  0.10399248715E+00  0.38923867258E-01  0.11250992748E-01  0.11160802294E+00  0.51100000000E-03 0. -1.
</event>
<event>
 8    1  0.1199892E+005  0.1043930E+01  0.7957747E-01            NaN
         13   -1    0    0    0    0  0.00000000000E+00  0.00000000000E+00  0.74505805969E-08  0.10566000000E+00  0.10566000000E+00 0. -1.
     999900   -1    0    0    0    0 -0.00000000000E+00 -0.00000000000E+00 -0.74505805969E-08  0.93827000000E+00  0.93827000000E+00 0. -1.
     999902    2    1    2    0    0 -0.43654020478E-02 -0.17786700779E-02  0.24794473291E-01  0.10186914123E+01  0.10183787150E+01 0.  0.
     999903    2    3    3    0    0  0.92040619749E-01 -0.46464088270E-01 -0.71519875699E-01  0.12708199029E+00  0.20108516916E-01 0.  0.
         14    1    1    2    0    0  0.43654020478E-02  0.17786700779E-02 -0.24794473291E-01  0.25238587680E-01  0.00000000000E+00 0.  1.
     999901    1    3    3    0    0 -0.96406021797E-01  0.44685418192E-01  0.96314348991E-01  0.89160942203E+00  0.88000000000E+00 0.  1.
        -11    1    4    4    0    0  0.28579126328E-01 -0.44599015475E-02 -0.20553509440E-01  0.35487533795E-01  0.51100000000E-03 0. -1.
         11    1    4    4    0    0  0.63461493420E-01 -0.42004186722E-01 -0.50966366259E-01  0.91594456492E-01  0.51100000000E-03 0.  1.
</event>
<event>
 8    1  0.1199892E+005  0.1043930E+01  0.7957747E-01            NaN
         13   -1    0    0    0    0  0.00000000000E+00  0.00000000000E+00  0.74505805969E-08  0.10566000000E+00  0.10566000000E+00 0.  1.
     999900   -1    0    0    0    0 -0.00000000000E+00 -0.00000000000E+00 -0.74505805969E-08  0.93827000000E+00  0.93827000000E+00 0. -1.
     999902    2    1    2    0    0  0.88208313197E-02  0.20290216868E-01 -0.90290245414E-02  0.10200339072E+01  0.10197539648E+01 0.  0.
     999903    2    3    3    0    0  0.96105329548E-02 -0.53269590004E-01  0.11450496703E+00  0.12836563040E+00  0.20888657939E-01 0.  0.
         14    1    1    2    0    0 -0.88208313197E-02 -0.20290216868E-01  0.90290245414E-02  0.23896092774E-01  0.00000000000E+00 0.  1.
     999901    1    3    3    0    0 -0.78970163510E-03  0.73559806872E-01 -0.12353399158E+00  0.89166827682E+00  0.88000000000E+00 0. -1.
        -11    1    4    4    0    0  0.59018939422E-02 -0.36351012453E-01  0.96901107537E-01  0.10366443084E+00  0.51100000000E-03 0.  1.
         11    1    4    4    0    0  0.37086390126E-02 -0.16918577551E-01  0.17603859498E-01  0.24701199564E-01  0.51100000000E-03 0. -1.
</event>
<event>
 8    1  0.1199892E+005  0.1043930E+01  0.7957747E-01            NaN
         13   -1    0    0    0    0  0.00000000000E+00  0.00000000000E+00  0.74505805969E-08  0.10566000000E+00  0.10566000000E+00 0.  1.
     999900   -1    0    0    0    0 -0.00000000000E+00 -0.00000000000E+00 -0.74505805969E-08  0.93827000000E+00  0.93827000000E+00 0. -1.
     999902    2    1    2    0    0  0.61507608779E-02  0.63294906735E-02 -0.19453877986E-01  0.10225677042E+01  0.10223445418E+01 0.  0.
     999903    2    3    3    0    0  0.39851922724E-01  0.11617689263E-01 -0.12723987361E+00  0.13533517879E+00  0.20061872631E-01 0.  0.
         14    1    1    2    0    0 -0.61507608779E-02 -0.63294906735E-02  0.19453877986E-01  0.21362295763E-01  0.00000000000E+00 0.  1.
     999901    1    3    3    0    0 -0.33701161846E-01 -0.52881985897E-02  0.10778599562E+00  0.88723252544E+00  0.88000000000E+00 0.  1.
        -11    1    4    4    0    0  0.24819660780E-02 -0.20544468878E-03 -0.35251635498E-01  0.35343192971E-01  0.51100000000E-03 0. -1.
         11    1    4    4    0    0  0.37369956646E-01  0.11823133952E-01 -0.91988238113E-01  0.99991985821E-01  0.51100000000E-03 0.  1.
</event>
<event>
 8    1  0.1199892E+005  0.1043930E+01  0.7957747E-01            NaN
         13   -1    0    0    0    0  0.00000000000E+00  0.00000000000E+00  0.74505805969E-08  0.10566000000E+00  0.10566000000E+00 0. -1.
     999900   -1    0    0    0    0 -0.00000000000E+00 -0.00000000000E+00 -0.74505805969E-08  0.93827000000E+00  0.93827000000E+00 0. -1.
     999902    2    1    2    0    0  0.19190505216E-01  0.67179749522E-02 -0.11878639037E-01  0.10203819907E+01  0.10201102382E+01 0.  0.
     999903    2    3    3    0    0  0.27502838068E-01 -0.60919464517E-01 -0.11275492134E+00  0.13200147399E+00  0.15592613299E-01 0.  0.
         14    1    1    2    0    0 -0.19190505216E-01 -0.67179749522E-02  0.11878639037E-01  0.23548009328E-01  0.00000000000E+00 0. -1.
     999901    1    3    3    0    0 -0.83123328518E-02  0.67637439469E-01  0.10087628230E+00  0.88838051669E+00  0.88000000000E+00 0.  1.
        -11    1    4    4    0    0  0.42434002787E-02 -0.63228845371E-02 -0.24397234353E-01  0.25563088231E-01  0.51100000000E-03 0.  1.
         11    1    4    4    0    0  0.23259437789E-01 -0.54596579979E-01 -0.88357686987E-01  0.10643838576E+00  0.51100000000E-03 0. -1.
</event>
<event>
 8    1  0.1199892E+005  0.1043930E+01  0.7957747E-01            NaN
         13   -1    0    0    0    0  0.00000000000E+00  0.00000000000E+00  0.74505805969E-08  0.10566000000E+00  0.10566000000E+00 0. -1.
     999900   -1    0    0    0    0 -0.00000000000E+00 -0.00000000000E+00 -0.74505805969E-08  0.93827000000E+00  0.93827000000E+00 0.  1.
     999902    2    1    2    0    0  0.22585242870E-01 -0.10960908115E-01 -0.26646279672E-02  0.10186845065E+01  0.10183716359E+01 0.  0.
     999903    2    3    3    0    0 -0.26295073835E-01  0.11976974815E+00 -0.27928438745E-01  0.12732708657E+00  0.19898889475E-01 0.  0.
         14    1    1    2    0    0 -0.22585242870E-01  0.10960908115E-01  0.26646279672E-02  0.25245493547E-01  0.00000000000E+00 0. -1.
     999901    1    3    3    0    0  0.48880316705E-01 -0.13073065627E+00  0.25263810777E-01  0.89135741989E+00  0.88000000000E+00 0.  1.
        -11    1    4    4    0    0 -0.21622950272E-01  0.58480599396E-01 -0.19200186777E-01  0.65241403858E-01  0.51100000000E-03 0. -1.
         11    1    4    4    0    0 -0.46721235628E-02  0.61289148758E-01 -0.87282519678E-02  0.62085682710E-01  0.51100000000E-03 0.  1.
</event>
<event>
 8    1  0.1199892E+005  0.1043930E+01  0.7957747E-01            NaN
         13   -1    0    0    0    0  0.00000000000E+00  0.00000000000E+00  0.74505805969E-08  0.10566000000E+00  0.10566000000E+00 0.  1.
     999900   -1    0    0    0    0 -0.00000000000E+00 -0.00000000000E+00 -0.74505805969E-08  0.93827000000E+00  0.93827000000E+00 0.  1.
     999902    2    1    2    0    0 -0.85975253418E-03 -0.14855589518E-01  0.17945973182E-01  0.10206172209E+01  0.10203509328E+01 0.  0.
     999903    2    3    3    0    0 -0.10363398209E+00  0.41893946005E-01  0.66307226891E-01  0.13150425685E+00  0.20040366152E-01 0.  0.
         14    1    1    2    0    0  0.85975253418E-03  0.14855589518E-01 -0.17945973182E-01  0.23312779066E-01  0.00000000000E+00 0.  1.
     999901    1    3    3    0    0  0.10277422956E+00 -0.56749535523E-01 -0.48361253709E-01  0.88911296408E+00  0.88000000000E+00 0.  1.
        -11    1    4    4    0    0 -0.54708911557E-01  0.11638432687E-01  0.35469286881E-01  0.66233296400E-01  0.51100000000E-03 0.  1.
         11    1    4    4    0    0 -0.48925070534E-01  0.30255513317E-01  0.30837940009E-01  0.65270960449E-01  0.51100000000E-03 0. -1.
</event>
<event>
 8    1  0.1199892E+005  0.1043930E+01  0.7957747E-01            NaN
         13   -1    0    0    0    0  0.00000000000E+00  0.00000000000E+00  0.74505805969E-08  0.10566000000E+00  0.10566000000E+00 0.  1.
     999900   -1    0    0    0    0 -0.00000000000E+00 -0.00000000000E+00 -0.74505805969E-08  0.93827000000E+00  0.93827000000E+00 0.  1.
     999902    2    1    2    0    0 -0.14871994593E-01 -0.13202872479E-02 -0.17080059266E-01  0.10212441496E+01  0.10209921476E+01 0.  0.
     999903    2    3    3    0    0  0.11812308676E+00 -0.92289604666E-02  0.47685134482E-01  0.12886263421E+00  0.17130940112E-01 0.  0.
         14    1    1    2    0    0  0.14871994593E-01  0.13202872479E-02  0.17080059266E-01  0.22685850350E-01  0.00000000000E+00 0.  1.
     999901    1    3    3    0    0 -0.13299508135E+00  0.79086732187E-02 -0.64765193748E-01  0.89238151544E+00  0.88000000000E+00 0. -1.
        -11    1    4    4    0    0  0.93078581404E-01 -0.52425482444E-02  0.29979204785E-01  0.97929160462E-01  0.51100000000E-03 0. -1.
         11    1    4    4    0    0  0.25044505353E-01 -0.39864122222E-02  0.17705929697E-01  0.30933473749E-01  0.51100000000E-03 0.  1.
</event>
<event>
 8    1  0.1199892E+005  0.1043930E+01  0.7957747E-01            NaN
         13   -1    0    0    0    0  0.00000000000E+00  0.00000000000E+00  0.74505805969E-08  0.10566000000E+00  0.10566000000E+00 0. -1.
     999900   -1    0    0    0    0 -0.00000000000E+00 -0.00000000000E+00 -0.74505805969E-08  0.93827000000E+00  0.93827000000E+00 0. -1.
     999902    2    1    2    0    0 -0.17008768321E-01 -0.19169609599E-01  0.48691912057E-02  0.10178439663E+01  0.10175096356E+01 0.  0.
     999903    2    3    3    0    0 -0.15484512113E-01  0.48652619860E-01  0.11572833987E+00  0.12829805459E+00  0.21459138581E-01 0.  0.
         14    1    1    2    0    0  0.17008768321E-01  0.19169609599E-01 -0.48691912057E-02  0.26086033715E-01  0.00000000000E+00 0. -1.
     999901    1    3    3    0    0 -0.15242562083E-02 -0.67822229459E-01 -0.11085914866E+00  0.88954591169E+00  0.88000000000E+00 0. -1.
        -11    1    4    4    0    0  0.43851586278E-02  0.14834876527E-01  0.42405838915E-01  0.45142213867E-01  0.51100000000E-03 0.  1.
         11    1    4    4    0    0 -0.19869670741E-01  0.33817743333E-01  0.73322500955E-01  0.83155840726E-01  0.51100000000E-03 0. -1.
</event>
<event>
 8    1  0.1199892E+005  0.1043930E+01  0.7957747E-01            NaN
         13   -1    0    0    0    0  0.00000000000E+00  0.00000000000E+00  0.74505805969E-08  0.10566000000E+00  0.10566000000E+00 0.  1.
     999900   -1    0    0    0    0 -0.00000000000E+00 -0.00000000000E+00 -0.74505805969E-08  0.93827000000E+00  0.93827000000E+00 0. -1.
     999902    2    1    2    0    0  0.36799555737E-02 -0.17133120069E-01  0.15175023552E-01  0.10207488176E+01  0.10204855616E+01 0.  0.
     999903    2    3    3    0    0 -0.29177648686E-02 -0.12198462386E+00  0.51327800837E-01  0.13376268974E+00  0.19213334364E-01 0.  0.
         14    1    1    2    0    0 -0.36799555737E-02  0.17133120069E-01 -0.15175023552E-01  0.23181182371E-01  0.00000000000E+00 0. -1.
     999901    1    3    3    0    0  0.65977204424E-02  0.10485150379E+00 -0.36152777285E-01  0.88698612789E+00  0.88000000000E+00 0. -1.
        -11    1    4    4    0    0  0.47057263823E-03 -0.70991573303E-01  0.39728021396E-01  0.81354789188E-01  0.51100000000E-03 0. -1.
         11    1    4    4    0    0 -0.33883375069E-02 -0.50993050558E-01  0.11599779440E-01  0.52407900552E-01  0.51100000000E-03 0.  1.
</event>
<event>
 8    1  0.1199892E+005  0.1043930E+01  0.7957747E-01            NaN
         13   -1    0    0    0    0  0.00000000000E+00  0.00000000000E+00  0.74505805969E-08  0.10566000000E+00  0.10566000000E+00 0. -1.
     999900   -1    0    0    0    0 -0.00000000000E+00 -0.00000000000E+00 -0.74505805969E-08  0.93827000000E+00  0.93827000000E+00 0.  1.
     999902    2    1    2    0    0  0.65332121498E-02 -0.72350724610E-02 -0.16058425136E-01  0.10251443099E+01  0.10249721723E+01 0.  0.
     999903    2    3    3    0    0  0.12295504259E+00 -0.32520249466E-02  0.51658132074E-01  0.13488848185E+00  0.19945469709E-01 0.  0.
         14    1    1    2    0    0 -0.65332121498E-02  0.72350724610E-02  0.16058425136E-01  0.18785690095E-01  0.00000000000E+00 0. -1.
     999901    1    3    3    0    0 -0.11642183044E+00 -0.39830475145E-02 -0.67716557210E-01  0.89025582806E+00  0.88000000000E+00 0.  1.
        -11    1    4    4    0    0  0.56083097866E-01 -0.11380227169E-01  0.24593037096E-01  0.62288859608E-01  0.51100000000E-03 0.  1.
         11    1    4    4    0    0  0.66871944721E-01  0.81282022223E-02  0.27065094978E-01  0.72599622239E-01  0.51100000000E-03 0. -1.
</event>
<event>
 8    1  0.1199892E+005  0.1043930E+01  0.7957747E-01            NaN
         13   -1    0    0    0    0  0.00000000000E+00  0.00000000000E+00  0.74505805969E-08  0.10566000000E+00  0.10566000000E+00 0.  1.
     999900   -1    0    0    0    0 -0.00000000000E+00 -0.00000000000E+00 -0.74505805969E-08  0.93827000000E+00  0.93827000000E+00 0.  1.
     999902    2    1    2    0    0  0.56382901405E-02 -0.22660501811E-01  0.39709242336E-02  0.10202433604E+01  0.10199683610E+01 0.  0.
     999903    2    3    3    0    0  0.55194429892E-01  0.41788585274E-01  0.10866278514E+00  0.13031646362E+00  0.19546581930E-01 0.  0.
         14    1    1    2    0    0 -0.56382901405E-02  0.22660501811E-01 -0.39709242336E-02  0.23686639637E-01  0.00000000000E+00 0. -1.
     999901    1    3    3    0    0 -0.49556139751E-01 -0.64449087084E-01 -0.10469186091E+00  0.88992689675E+00  0.88000000000E+00 0.  1.
        -11    1    4    4    0    0  0.35707530319E-01  0.26734760497E-01  0.85833624906E-01  0.96733900086E-01  0.51100000000E-03 0. -1.
         11    1    4    4    0    0  0.19486899573E-01  0.15053824776E-01  0.22829160233E-01  0.33582563531E-01  0.51100000000E-03 0.  1.
</event>
<event>
 8    1  0.1199892E+005  0.1043930E+01  0.7957747E-01            NaN
         13   -1    0    0    0    0  0.00000000000E+00  0.00000000000E+00  0.74505805969E-08  0.10566000000E+00  0.10566000000E+00 0. -1.
     999900   -1    0    0    0    0 -0.00000000000E+00 -0.00000000000E+00 -0.74505805969E-08  0.93827000000E+00  0.93827000000E+00 0.  1.
     999902    2    1    2    0    0 -0.46314333739E-02  0.20963124631E-01  0.12726966660E-01  0.10189724671E+01  0.10186667808E+01 0.  0.
     999903    2    3    3    0    0 -0.90069360111E-01  0.38712604179E-01  0.85697565373E-01  0.13165099679E+00  0.19410226475E-01 0.  0.
         14    1    1    2    0    0  0.46314333739E-02 -0.20963124631E-01 -0.12726966660E-01  0.24957532927E-01  0.00000000000E+00 0.  1.
     999901    1    3    3    0    0  0.85437926737E-01 -0.17749479547E-01 -0.72970598713E-01  0.88732147028E+00  0.88000000000E+00 0.  1.
        -11    1    4    4    0    0 -0.45490285134E-01  0.29294751899E-01  0.41734451044E-01  0.68334281699E-01  0.51100000000E-03 0. -1.
         11    1    4    4    0    0 -0.44579074977E-01  0.94178522795E-02  0.43963114329E-01  0.63316715091E-01  0.51100000000E-03 0.  1.
</event>
<event>
 8    1  0.1199892E+005  0.1043930E+01  0.7957747E-01            NaN
         13   -1    0    0    0    0  0.00000000000E+00  0.00000000000E+00  0.74505805969E-08  0.10566000000E+00  0.10566000000E+00 0.  1.
     999900   -1    0    0    0    0 -0.00000000000E+00 -0.00000000000E+00 -0.74505805969E-08  0.93827000000E+00  0.93827000000E+00 0. -1.
     999902    2    1    2    0    0  0.56890514739E-02 -0.20079247130E-01  0.10416315636E-01  0.10206053113E+01  0.10203387478E+01 0.  0.
     999903    2    3    3    0    0 -0.57382079465E-01 -0.57821354651E-02 -0.11405476543E+00  0.12949621304E+00  0.20848106409E-01 0.  0.
         14    1    1    2    0    0 -0.56890514739E-02  0.20079247130E-01 -0.10416315636E-01  0.23324688710E-01  0.00000000000E+00 0. -1.
     999901    1    3    3    0    0  0.63071130939E-01 -0.14297111664E-01  0.12447108107E+00  0.89110909825E+00  0.88000000000E+00 0.  1.
        -11    1    4    4    0    0 -0.22670985420E-01  0.68400056755E-02 -0.54375894234E-01  0.59310692563E-01  0.51100000000E-03 0. -1.
         11    1    4    4    0    0 -0.34711094045E-01 -0.12622141141E-01 -0.59678871195E-01  0.70185520479E-01  0.51100000000E-03 0.  1.
</event>
<event>
 8    1  0.1199892E+005  0.1043930E+01  0.7957747E-01            NaN
         13   -1    0    0    0    0  0.00000000000E+00  0.00000000000E+00  0.74505805969E-08  0.10566000000E+00  0.10566000000E+00 0.  1.
     999900   -1    0    0    0    0 -0.00000000000E+00 -0.00000000000E+00 -0.74505805969E-08  0.93827000000E+00  0.93827000000E+00 0.  1.
     999902    2    1    2    0    0 -0.98856040988E-02 -0.18471979739E-01 -0.11589817191E-01  0.10199870873E+01  0.10197060338E+01 0.  0.
     999903    2    3    3    0    0  0.20169604715E-01 -0.11997419935E+00 -0.48864356868E-01  0.13285947112E+00  0.21524224230E-01 0.  0.
         14    1    1    2    0    0  0.98856040988E-02  0.18471979739E-01  0.11589817191E-01  0.23942912654E-01  0.00000000000E+00 0.  1.
     999901    1    3    3    0    0 -0.30055208814E-01  0.10150221962E+00  0.37274539677E-01  0.88712761623E+00  0.88000000000E+00 0. -1.
        -11    1    4    4    0    0  0.50309395929E-02 -0.52596036024E-01 -0.10544063015E-01  0.53880346551E-01  0.51100000000E-03 0.  1.
         11    1    4    4    0    0  0.15138665122E-01 -0.67378163331E-01 -0.38320293853E-01  0.78979124568E-01  0.51100000000E-03 0. -1.
</event>
<event>
 8    1  0.1199892E+005  0.1043930E+01  0.7957747E-01            NaN
         13   -1    0    0    0    0  0.00000000000E+00  0.00000000000E+00  0.74505805969E-08  0.10566000000E+00  0.10566000000E+00 0.  1.
     999900   -1    0    0    0    0 -0.00000000000E+00 -0.00000000000E+00 -0.74505805969E-08  0.93827000000E+00  0.93827000000E+00 0. -1.
     999902    2    1    2    0    0  0.10288917755E-01 -0.79434398836E-02  0.19742213967E-01  0.10202928454E+01  0.10200190073E+01 0.  0.
     999903    2    3    3    0    0 -0.12073533184E+00 -0.41602495479E-01 -0.86117329191E-02  0.12950430016E+00  0.19733571167E-01 0.  0.
         14    1    1    2    0    0 -0.10288917755E-01  0.79434398836E-02 -0.19742213967E-01  0.23637154611E-01  0.00000000000E+00 0. -1.
     999901    1    3    3    0    0  0.13102424960E+00  0.33659055596E-01  0.28353946886E-01  0.89078854523E+00  0.88000000000E+00 0. -1.
        -11    1    4    4    0    0 -0.31577859654E-01 -0.20160801243E-01 -0.41065856853E-02  0.37692761826E-01  0.51100000000E-03 0.  1.
         11    1    4    4    0    0 -0.89157472189E-01 -0.21441694237E-01 -0.45051472338E-02  0.91811538335E-01  0.51100000000E-03 0. -1.
</event>
<event>
 8    1  0.1199892E+005  0.1043930E+01  0.7957747E-01            NaN
         13   -1    0    0    0    0  0.00000000000E+00  0.00000000000E+00  0.74505805969E-08  0.10566000000E+00  0.10566000000E+00 0. -1.
     999900   -1    0    0    0    0 -0.00000000000E+00 -0.00000000000E+00 -0.74505805969E-08  0.93827000000E+00  0.93827000000E+00 0. -1.
     999902    2    1    2    0    0 -0.18135291266E-01  0.90381944948E-03  0.15506340394E-01  0.10200521385E+01  0.10197726281E+01 0.  0.
     999903    2    3    3    0    0  0.23503152848E-02  0.91146558908E-01  0.92998627759E-01  0.13181316910E+00  0.20316190609E-01 0.  0.
         14    1    1    2    0    0  0.18135291266E-01 -0.90381944948E-03 -0.15506340394E-01  0.23877861531E-01  0.00000000000E+00 0.  1.
     999901    1    3    3    0    0 -0.20485606551E-01 -0.90242739459E-01 -0.77492287365E-01  0.88823896937E+00  0.88000000000E+00 0. -1.
        -11    1    4    4    0    0  0.11791678061E-03  0.66635693966E-01  0.54355423813E-01  0.85994783759E-01  0.51100000000E-03 0. -1.
         11    1    4    4    0    0  0.22323985042E-02  0.24510864942E-01  0.38643203946E-01  0.45818385343E-01  0.51100000000E-03 0.  1.
</event>
<event>
 8    1  0.1199892E+005  0.1043930E+01  0.7957747E-01            NaN
         13   -1    0    0    0    0  0.00000000000E+00  0.00000000000E+00  0.74505805969E-08  0.10566000000E+00  0.10566000000E+00 0. -1.
     999900   -1    0    0    0    0 -0.00000000000E+00 -0.00000000000E+00 -0.74505805969E-08  0.93827000000E+00  0.93827000000E+00 0. -1.
     999902    2    1    2    0    0 -0.17235533421E-01  0.38027472162E-02 -0.14909989791E-01  0.10208251889E+01  0.10205636845E+01 0.  0.
     999903    2    3    3    0    0  0.10117107595E+00  0.11071656152E-01 -0.79308333049E-01  0.13053304093E+00  0.19771062317E-01 0.  0.
         14    1    1    2    0    0  0.17235533421E-01 -0.38027472162E-02  0.14909989791E-01  0.23104811063E-01  0.00000000000E+00 0. -1.
     999901    1    3    3    0    0 -0.11840660937E+00 -0.72689089363E-02  0.64398343258E-01  0.89029214800E+00  0.88000000000E+00 0.  1.
        -11    1    4    4    0    0  0.33114196939E-01 -0.55574022390E-02 -0.27308022656E-01  0.43283068063E-01  0.51100000000E-03 0.  1.
         11    1    4    4    0    0  0.68056879013E-01  0.16629058392E-01 -0.52000310393E-01  0.87249972871E-01  0.51100000000E-03 0. -1.
</event>
<event>
 8    1  0.1199892E+005  0.1043930E+01  0.7957747E-01            NaN
         13   -1    0    0    0    0  0.00000000000E+00  0.00000000000E+00  0.74505805969E-08  0.10566000000E+00  0.10566000000E+00 0. -1.
     999900   -1    0    0    0    0 -0.00000000000E+00 -0.00000000000E+00 -0.74505805969E-08  0.93827000000E+00  0.93827000000E+00 0.  1.
     999902    2    1    2    0    0 -0.84110282469E-02  0.21483631644E-02  0.20788313537E-01  0.10214019100E+01  0.10211534394E+01 0.  0.
     999903    2    3    3    0    0 -0.12860889564E+00 -0.13479939251E-01  0.22703871463E-01  0.13309146845E+00  0.21815508150E-01 0.  0.
         14    1    1    2    0    0  0.84110282469E-02 -0.21483631644E-02 -0.20788313537E-01  0.22528090025E-01  0.00000000000E+00 0.  1.
     999901    1    3    3    0    0  0.12019786739E+00  0.15628302416E-01 -0.19155579259E-02  0.88831044153E+00  0.88000000000E+00 0. -1.
        -11    1    4    4    0    0 -0.32842098153E-01 -0.12534570012E-01  0.94619711653E-02  0.36407538723E-01  0.51100000000E-03 0. -1.
         11    1    4    4    0    0 -0.95766797482E-01 -0.94536923966E-03  0.13241900297E-01  0.96683929727E-01  0.51100000000E-03 0.  1.
</event>
<event>
 8    1  0.1199892E+005  0.1043930E+01  0.7957747E-01            NaN
         13   -1    0    0    0    0  0.00000000000E+00  0.00000000000E+00  0.74505805969E-08  0.10566000000E+00  0.10566000000E+00 0. -1.
     999900   -1    0    0    0    0 -0.00000000000E+00 -0.00000000000E+00 -0.74505805969E-08  0.93827000000E+00  0.93827000000E+00 0. -1.
     999902    2    1    2    0    0  0.12017629224E-01  0.16570096002E-01 -0.12429090412E-01  0.10199826874E+01  0.10197015292E+01 0.  0.
     999903    2    3    3    0    0 -0.10027931523E+00  0.48903655422E-01  0.61891712794E-01  0.12915181420E+00  0.20052391938E-01 0.  0.
         14    1    1    2    0    0 -0.12017629224E-01 -0.16570096002E-01  0.12429090412E-01  0.23947312629E-01  0.00000000000E+00 0. -1.
     999901    1    3    3    0    0  0.11229694446E+00 -0.32333559420E-01 -0.74320803206E-01  0.89083087317E+00  0.88000000000E+00 0.  1.
        -11    1    4    4    0    0 -0.84263016150E-01  0.32680290493E-01  0.52230631637E-01  0.10438657615E+00  0.51100000000E-03 0. -1.
         11    1    4    4    0    0 -0.16016299082E-01  0.16223364928E-01  0.96610811569E-02  0.24765238057E-01  0.51100000000E-03 0.  1.
</event>
<event>
 8    1  0.1199892E+005  0.1043930E+01  0.7957747E-01            NaN
         13   -1    0    0    0    0  0.00000000000E+00  0.00000000000E+00  0.74505805969E-08  0.10566000000E+00  0.10566000000E+00 0.  1.
     999900   -1    0    0    0    0 -0.00000000000E+00 -0.00000000000E+00 -0.74505805969E-08  0.93827000000E+00  0.93827000000E+00 0. -1.
     999902    2    1    2    0    0  0.26574814976E-01 -0.16957393299E-01  0.45918289215E-02  0.10120731503E+01  0.10115716498E+01 0.  0.
     999903    2    3    3    0    0  0.67824163007E-01  0.15982350479E-01 -0.10080931535E+00  0.12421283662E+00  0.20267168164E-01 0.  0.
         14    1    1    2    0    0 -0.26574814976E-01  0.16957393299E-01 -0.45918289215E-02  0.31856849677E-01  0.00000000000E+00 0.  1.
     999901    1    3    3    0    0 -0.41249348031E-01 -0.32939743778E-01  0.10540114427E+00  0.88786031370E+00  0.88000000000E+00 0.  1.
        -11    1    4    4    0    0  0.43052098361E-01  0.66973884142E-02 -0.46057785536E-01  0.63402830491E-01  0.51100000000E-03 0.  1.
         11    1    4    4    0    0  0.24772064647E-01  0.92849620653E-02 -0.54751529815E-01  0.60810006130E-01  0.51100000000E-03 0. -1.
</event>
<event>
 8    1  0.1199892E+005  0.1043930E+01  0.7957747E-01            NaN
         13   -1    0    0    0    0  0.00000000000E+00  0.00000000000E+00  0.74505805969E-08  0.10566000000E+00  0.10566000000E+00 0.  1.
     999900   -1    0    0    0    0 -0.00000000000E+00 -0.00000000000E+00 -0.74505805969E-08  0.93827000000E+00  0.93827000000E+00 0. -1.
     999902    2    1    2    0    0  0.18268965601E-02  0.42580783644E-02  0.19981732991E-01  0.10234180904E+01  0.10232125142E+01 0.  0.
     999903    2    3    3    0    0  0.32770920602E-01  0.10103682942E+00 -0.76380543503E-01  0.13234606883E+00  0.19977997221E-01 0.  0.
         14    1    1    2    0    0 -0.18268965601E-02 -0.42580783644E-02 -0.19981732991E-01  0.20511909607E-01  0.00000000000E+00 0. -1.
     999901    1    3    3    0    0 -0.30944024042E-01 -0.96778751055E-01  0.96362276494E-01  0.89107202156E+00  0.88000000000E+00 0.  1.
        -11    1    4    4    0    0  0.23415981137E-01  0.92048986690E-01 -0.69129965927E-01  0.11747568869E+00  0.51100000000E-03 0.  1.
         11    1    4    4    0    0  0.93549394657E-02  0.89878427289E-02 -0.72505775757E-02  0.14870380140E-01  0.51100000000E-03 0. -1.
</event>
<event>
 8    1  0.1199892E+005  0.1043930E+01  0.7957747E-01            NaN
         13   -1    0    0    0    0  0.00000000000E+00  0.00000000000E+00  0.74505805969E-08  0.10566000000E+00  0.10566000000E+00 0. -1.
     999900   -1    0    0    0    0 -0.00000000000E+00 -0.00000000000E+00 -0.74505805969E-08  0.93827000000E+00  0.93827000000E+00 0.  1.
     999902    2    1    2    0    0  0.44266872119E-02 -0.94272438087E-02 -0.19740657483E-01  0.10216104560E+01  0.10213666148E+01 0.  0.
     999903    2    3    3    0    0  0.82521229432E-01 -0.86941007445E-02  0.98513405117E-01  0.13027251879E+00  0.19511470223E-01 0.  0.
         14    1    1    2    0    0 -0.44266872119E-02  0.94272438087E-02  0.19740657483E-01  0.22319543978E-01  0.00000000000E+00 0. -1.
     999901    1    3    3    0    0 -0.78094542220E-01 -0.73314306414E-03 -0.11825406260E+00  0.89133793723E+00  0.88000000000E+00 0.  1.
        -11    1    4    4    0    0  0.69645946602E-01 -0.23035945055E-02  0.72582600630E-01  0.10061987607E+00  0.51100000000E-03 0.  1.
         11    1    4    4    0    0  0.12875282829E-01 -0.63905062390E-02  0.25930804486E-01  0.29652642719E-01  0.51100000000E-03 0. -1.
</event>
<event>
 8    1  0.1199892E+005  0.1043930E+01  0.7957747E-01            NaN
         13   -1    0    0    0    0  0.00000000000E+00  0.00000000000E+00  0.74505805969E-08  0.10566000000E+00  0.10566000000E+00 0. -1.
     999900   -1    0    0    0    0 -0.00000000000E+00 -0.00000000000E+00 -0.74505805969E-08  0.93827000000E+00  0.93827000000E+00 0. -1.
     999902    2    1    2    0    0  0.15742418210E-01 -0.17071255131E-01 -0.57552805053E-02  0.10200056455E+01  0.10197250326E+01 0.  0.
     999903    2    3    3    0    0 -0.12309156370E+00 -0.22930848107E-01  0.21933747921E-01  0.12867187435E+00  0.19950065199E-01 0.  0.
         14    1    1    2    0    0 -0.15742418210E-01  0.17071255131E-01  0.57552805053E-02  0.23924354465E-01  0.00000000000E+00 0. -1.
     999901    1    3    3    0    0  0.13883398191E+00  0.58595929755E-02 -0.27689028426E-01  0.89133377119E+00  0.88000000000E+00 0.  1.
        -11    1    4    4    0    0 -0.46739796197E-01 -0.23986052895E-02  0.15672493352E-01  0.49358383530E-01  0.51100000000E-03 0. -1.
         11    1    4    4    0    0 -0.76351767503E-01 -0.20532242818E-01  0.62612545693E-02  0.79313490818E-01  0.51100000000E-03 0.  1.
</event>
<event>
 8    1  0.1199892E+005  0.1043930E+01  0.7957747E-01            NaN
         13   -1    0    0    0    0  0.00000000000E+00  0.00000000000E+00  0.74505805969E-08  0.10566000000E+00  0.10566000000E+00 0. -1.
     999900   -1    0    0    0    0 -0.00000000000E+00 -0.00000000000E+00 -0.74505805969E-08  0.93827000000E+00  0.93827000000E+00 0.  1.
     999902    2    1    2    0    0 -0.85008569459E-02  0.13919301043E-01  0.18371098643E-01  0.10193635844E+01  0.10190675191E+01 0.  0.
     999903    2    3    3    0    0 -0.55207781022E-01 -0.10902620998E+00 -0.28587532014E-01  0.12835166055E+00  0.26875420585E-01 0.  0.
         14    1    1    2    0    0  0.85008569459E-02 -0.13919301043E-01 -0.18371098643E-01  0.24566415605E-01  0.00000000000E+00 0.  1.
     999901    1    3    3    0    0  0.46706924076E-01  0.12294551102E+00  0.46958630657E-01  0.89101192384E+00  0.88000000000E+00 0.  1.
        -11    1    4    4    0    0 -0.30663854057E-01 -0.51102679271E-01 -0.26977002943E-01  0.65419993756E-01  0.51100000000E-03 0. -1.
         11    1    4    4    0    0 -0.24543926965E-01 -0.57923530710E-01 -0.16105290707E-02  0.62931666796E-01  0.51100000000E-03 0.  1.
</event>
<event>
 8    1  0.1199892E+005  0.1043930E+01  0.7957747E-01            NaN
         13   -1    0    0    0    0  0.00000000000E+00  0.00000000000E+00  0.74505805969E-08  0.10566000000E+00  0.10566000000E+00 0.  1.
     999900   -1    0    0    0    0 -0.00000000000E+00 -0.00000000000E+00 -0.74505805969E-08  0.93827000000E+00  0.93827000000E+00 0. -1.
     999902    2    1    2    0    0 -0.16677698746E-01  0.69354988134E-02  0.15594481819E-01  0.10200671703E+01  0.10197880158E+01 0.  0.
     999903    2    3    3    0    0 -0.32326853690E-01 -0.73253796592E-01  0.10294033328E+00  0.13197679373E+00  0.20248893377E-01 0.  0.
         14    1    1    2    0    0  0.16677698746E-01 -0.69354988134E-02 -0.15594481819E-01  0.23862829724E-01  0.00000000000E+00 0. -1.
     999901    1    3    3    0    0  0.15649154944E-01  0.80189295405E-01 -0.87345851459E-01  0.88809037655E+00  0.88000000000E+00 0. -1.
        -11    1    4    4    0    0 -0.24572536633E-01 -0.31122541774E-01  0.52587152849E-01  0.65864193070E-01  0.51100000000E-03 0. -1.
         11    1    4    4    0    0 -0.77543170575E-02 -0.42131254817E-01  0.50353180429E-01  0.66112600658E-01  0.51100000000E-03 0.  1.
</event>
<event>
 8    1  0.1199892E+005  0.1043930E+01  0.7957747E-01            NaN
         13   -1    0    0    0    0  0.00000000000E+00  0.00000000000E+00  0.74505805969E-08  0.10566000000E+00  0.10566000000E+00 0.  1.
     999900   -1    0    0    0    0 -0.00000000000E+00 -0.00000000000E+00 -0.74505805969E-08  0.93827000000E+00  0.93827000000E+00 0. -1.
     999902    2    1    2    0    0  0.13219394353E-01  0.11863025584E-01  0.17929050740E-01  0.10186924363E+01  0.10183797647E+01 0.  0.
     999903    2    3    3    0    0  0.10750953664E+00 -0.14124626935E-01 -0.66608143216E-01  0.12924736984E+00  0.22592749115E-01 0.  0.
         14    1    1    2    0    0 -0.13219394353E-01 -0.11863025584E-01 -0.17929050740E-01  0.25237563740E-01  0.00000000000E+00 0. -1.
     999901    1    3    3    0    0 -0.94290142291E-01  0.25987652520E-01  0.84537193956E-01  0.88944506642E+00  0.88000000000E+00 0.  1.
        -11    1    4    4    0    0  0.84920023862E-02 -0.16743911182E-02 -0.13906637632E-01  0.16388208608E-01  0.51100000000E-03 0.  1.
         11    1    4    4    0    0  0.99017534257E-01 -0.12450235817E-01 -0.52701505584E-01  0.11285916123E+00  0.51100000000E-03 0. -1.
</event>
<event>
 8    1  0.1199892E+005  0.1043930E+01  0.7957747E-01            NaN
         13   -1    0    0    0    0  0.00000000000E+00  0.00000000000E+00  0.74505805969E-08  0.10566000000E+00  0.10566000000E+00 0.  1.
     999900   -1    0    0    0    0 -0.00000000000E+00 -0.00000000000E+00 -0.74505805969E-08  0.93827000000E+00  0.93827000000E+00 0. -1.
     999902    2    1    2    0    0 -0.18433243672E-01 -0.12659454957E-01 -0.49960866260E-02  0.10210169654E+01  0.10207598329E+01 0.  0.
     999903    2    3    3    0    0  0.20349998099E-01 -0.11988094139E+00  0.47529374706E-01  0.13210779622E+00  0.20195688462E-01 0.  0.
         14    1    1    2    0    0  0.18433243672E-01  0.12659454957E-01  0.49960866260E-02  0.22913034580E-01  0.00000000000E+00 0. -1.
     999901    1    3    3    0    0 -0.38783241771E-01  0.10722148643E+00 -0.52525461332E-01  0.88890916920E+00  0.88000000000E+00 0. -1.
        -11    1    4    4    0    0  0.44664215927E-02 -0.11428636157E-01  0.11234673734E-01  0.16644568518E-01  0.51100000000E-03 0.  1.
         11    1    4    4    0    0  0.15883576506E-01 -0.10845230523E+00  0.36294700972E-01  0.11546322770E+00  0.51100000000E-03 0. -1.
</event>
<event>
 8    1  0.1199892E+005  0.1043930E+01  0.7957747E-01            NaN
         13   -1    0    0    0    0  0.00000000000E+00  0.00000000000E+00  0.74505805969E-08  0.10566000000E+00  0.10566000000E+00 0.  1.
     999900   -1    0    0    0    0 -0.00000000000E+00 -0.00000000000E+00 -0.74505805969E-08  0.93827000000E+00  0.93827000000E+00 0. -1.
     999902    2    1    2    0    0 -0.39514810736E-02  0.19645706414E-01 -0.12291354496E-01  0.10204215892E+01  0.10201507606E+01 0.  0.
     999903    2    3    3    0    0  0.51225645500E-01  0.10735466651E+00  0.53374941900E-01  0.13191191595E+00  0.20069329020E-01 0.  0.
         14    1    1    2    0    0  0.39514810736E-02 -0.19645706414E-01  0.12291354496E-01  0.23508410804E-01  0.00000000000E+00 0. -1.
     999901    1    3    3    0    0 -0.55177126573E-01 -0.87708960095E-01 -0.65666296397E-01  0.88850967325E+00  0.88000000000E+00 0. -1.
        -11    1    4    4    0    0  0.34364546134E-01  0.72163548970E-01  0.45918644274E-01  0.92180707547E-01  0.51100000000E-03 0. -1.
         11    1    4    4    0    0  0.16861099366E-01  0.35191117539E-01  0.74562976267E-02  0.39731208398E-01  0.51100000000E-03 0.  1.
</event>
<event>
 8    1  0.1199892E+005  0.1043930E+01  0.7957747E-01            NaN
         13   -1    0    0    0    0  0.00000000000E+00  0.00000000000E+00  0.74505805969E-08  0.10566000000E+00  0.10566000000E+00 0.  1.
     999900   -1    0    0    0    0 -0.00000000000E+00 -0.00000000000E+00 -0.74505805969E-08  0.93827000000E+00  0.93827000000E+00 0.  1.
     999902    2    1    2    0    0 -0.12928728700E-01  0.16344097381E-01 -0.12307766301E-01  0.10197274659E+01  0.10194402102E+01 0.  0.
     999903    2    3    3    0    0 -0.11946726116E+00 -0.97948803439E-02  0.46436309017E-01  0.13097296019E+00  0.25084244755E-01 0.  0.
         14    1    1    2    0    0  0.12928728700E-01 -0.16344097381E-01  0.12307766301E-01  0.24202534088E-01  0.00000000000E+00 0.  1.
     999901    1    3    3    0    0  0.10653853246E+00  0.26138977725E-01 -0.58744075318E-01  0.88875450572E+00  0.88000000000E+00 0.  1.
        -11    1    4    4    0    0 -0.94555016912E-01 -0.90267191129E-03  0.44320266972E-01  0.10443185924E+00  0.51100000000E-03 0.  1.
         11    1    4    4    0    0 -0.24912244251E-01 -0.88922084326E-02  0.21160420453E-02  0.26541100945E-01  0.51100000000E-03 0. -1.
</event>
<event>
 8    1  0.1199892E+005  0.1043930E+01  0.7957747E-01            NaN
         13   -1    0    0    0    0  0.00000000000E+00  0.00000000000E+00  0.74505805969E-08  0.10566000000E+00  0.10566000000E+00 0.  1.
     999900   -1    0    0    0    0 -0.00000000000E+00 -0.00000000000E+00 -0.74505805969E-08  0.93827000000E+00  0.93827000000E+00 0.  1.
     999902    2    1    2    0    0 -0.48974211906E-02  0.15042140515E-01 -0.17158209619E-01  0.10205921577E+01  0.10203252900E+01 0.  0.
     999903    2    3    3    0    0 -0.54697072987E-01  0.31155793900E-01  0.11152437491E+00  0.12969437305E+00  0.20505875104E-01 0.  0.
         14    1    1    2    0    0  0.48974211906E-02 -0.15042140515E-01  0.17158209619E-01  0.23337842294E-01  0.00000000000E+00 0.  1.
     999901    1    3    3    0    0  0.49799651797E-01 -0.16113653385E-01 -0.12868258453E+00  0.89089778466E+00  0.88000000000E+00 0.  1.
        -11    1    4    4    0    0 -0.34650115851E-01  0.82988619313E-02  0.55618133416E-01  0.66054065155E-01  0.51100000000E-03 0. -1.
         11    1    4    4    0    0 -0.20046957137E-01  0.22856931969E-01  0.55906241497E-01  0.63640307894E-01  0.51100000000E-03 0.  1.
</event>
<event>
 8    1  0.1199892E+005  0.1043930E+01  0.7957747E-01            NaN
         13   -1    0    0    0    0  0.00000000000E+00  0.00000000000E+00  0.74505805969E-08  0.10566000000E+00  0.10566000000E+00 0.  1.
     999900   -1    0    0    0    0 -0.00000000000E+00 -0.00000000000E+00 -0.74505805969E-08  0.93827000000E+00  0.93827000000E+00 0. -1.
     999902    2    1    2    0    0  0.30618443427E-02 -0.65111939074E-02  0.22824889538E-01  0.10199978852E+01  0.10197170881E+01 0.  0.
     999903    2    3    3    0    0 -0.11622783856E+00 -0.55188335745E-01  0.18564266252E-03  0.13032826781E+00  0.20754760154E-01 0.  0.
         14    1    1    2    0    0 -0.30618443427E-02  0.65111939074E-02 -0.22824889538E-01  0.23932114811E-01  0.00000000000E+00 0. -1.
     999901    1    3    3    0    0  0.11928968290E+00  0.48677141838E-01  0.22639246876E-01  0.88966961738E+00  0.88000000000E+00 0.  1.
        -11    1    4    4    0    0 -0.58506900419E-01 -0.34714822868E-01 -0.81424798191E-02  0.68518153960E-01  0.51100000000E-03 0. -1.
         11    1    4    4    0    0 -0.57720938141E-01 -0.20473512877E-01  0.83281224817E-02  0.61810113853E-01  0.51100000000E-03 0.  1.
</event>
<event>
 8    1  0.1199892E+005  0.1043930E+01  0.7957747E-01            NaN
         13   -1    0    0    0    0  0.00000000000E+00  0.00000000000E+00  0.74505805969E-08  0.10566000000E+00  0.10566000000E+00 0.  1.
     999900   -1    0    0    0    0 -0.00000000000E+00 -0.00000000000E+00 -0.74505805969E-08  0.93827000000E+00  0.93827000000E+00 0. -1.
     999902    2    1    2    0    0  0.50468691001E-02  0.19207265992E-01 -0.13201428246E-01  0.10200832463E+01  0.10198044723E+01 0.  0.
     999903    2    3    3    0    0  0.45238135210E-01  0.12241347279E+00 -0.15678644504E-01  0.13313736542E+00  0.21170521506E-01 0.  0.
         14    1    1    2    0    0 -0.50468691001E-02 -0.19207265992E-01  0.13201428246E-01  0.23846753706E-01  0.00000000000E+00 0.  1.
     999901    1    3    3    0    0 -0.40191266110E-01 -0.10320620680E+00  0.24772162578E-02  0.88694588087E+00  0.88000000000E+00 0. -1.
        -11    1    4    4    0    0  0.11239088362E-01  0.55178042762E-01 -0.69643301299E-03  0.56317667300E-01  0.51100000000E-03 0. -1.
         11    1    4    4    0    0  0.33999046848E-01  0.67235430027E-01 -0.14982211491E-01  0.76819698123E-01  0.51100000000E-03 0.  1.
</event>
<event>
 8    1  0.1199892E+005  0.1043930E+01  0.7957747E-01            NaN
         13   -1    0    0    0    0  0.00000000000E+00  0.00000000000E+00  0.74505805969E-08  0.10566000000E+00  0.10566000000E+00 0. -1.
     999900   -1    0    0    0    0 -0.00000000000E+00 -0.00000000000E+00 -0.74505805969E-08  0.93827000000E+00  0.93827000000E+00 0.  1.
     999902    2    1    2    0    0 -0.19795663398E-01  0.33181927511E-02 -0.99411481921E-02  0.10215312250E+01  0.10212856303E+01 0.  0.
     999903    2    3    3    0    0  0.11275001958E+00  0.39201834561E-01 -0.46497103417E-01  0.13013213838E+00  0.22870112950E-01 0.  0.
         14    1    1    2    0    0  0.19795663398E-01 -0.33181927511E-02  0.99411481921E-02  0.22398774964E-01  0.00000000000E+00 0. -1.
     999901    1    3    3    0    0 -0.13254568297E+00 -0.35883641810E-01  0.36555955225E-01  0.89139908665E+00  0.88000000000E+00 0. -1.
        -11    1    4    4    0    0  0.78392742292E-01  0.30788872563E-01 -0.21834856570E-01  0.87008038710E-01  0.51100000000E-03 0. -1.
         11    1    4    4    0    0  0.34357277285E-01  0.84129619985E-02 -0.24662246848E-01  0.43124099673E-01  0.51100000000E-03 0.  1.
</event>
<event>
 8    1  0.1199892E+005  0.1043930E+01  0.7957747E-01            NaN
         13   -1    0    0    0    0  0.00000000000E+00  0.00000000000E+00  0.74505805969E-08  0.10566000000E+00  0.10566000000E+00 0. -1.
     999900   -1    0    0    0    0 -0.00000000000E+00 -0.00000000000E+00 -0.74505805969E-08  0.93827000000E+00  0.93827000000E+00 0. -1.
     999902    2    1    2    0    0 -0.32929574017E-02  0.85833080949E-02 -0.20472652111E-01  0.10214879361E+01  0.10212413806E+01 0.  0.
     999903    2    3    3    0    0 -0.53935261280E-01 -0.11815000017E+00 -0.57799626416E-02  0.13084667867E+00  0.14799000030E-01 0.  0.
         14    1    1    2    0    0  0.32929574017E-02 -0.85833080949E-02  0.20472652111E-01  0.22442063871E-01  0.00000000000E+00 0. -1.
     999901    1    3    3    0    0  0.50642303878E-01  0.12673330826E+00 -0.14692689470E-01  0.89064125746E+00  0.88000000000E+00 0.  1.
        -11    1    4    4    0    0 -0.39351277150E-01 -0.68981734806E-01 -0.43969193530E-02  0.79539906782E-01  0.51100000000E-03 0. -1.
         11    1    4    4    0    0 -0.14583984130E-01 -0.49168265362E-01 -0.13830432886E-02  0.51306771888E-01  0.51100000000E-03 0.  1.
</event>
<event>
 8    1  0.1199892E+005  0.1043930E+01  0.7957747E-01            NaN
         13   -1    0    0    0    0  0.00000000000E+00  0.00000000000E+00  0.74505805969E-08  0.10566000000E+00  0.10566000000E+00 0. -1.
     999900   -1    0    0    0    0 -0.00000000000E+00 -0.00000000000E+00 -0.74505805969E-08  0.93827000000E+00  0.93827000000E+00 0.  1.
     999902    2    1    2    0    0 -0.11807905644E-01  0.21813650422E-01 -0.11588802595E-01  0.10165518641E+01  0.10161831184E+01 0.  0.
     999903    2    3    3    0    0  0.26412078574E-01  0.12516173187E+00 -0.60154310627E-02  0.12966254991E+00  0.20325708302E-01 0.  0.
         14    1    1    2    0    0  0.11807905644E-01 -0.21813650422E-01  0.11588802595E-01  0.27378135912E-01  0.00000000000E+00 0. -1.
     999901    1    3    3    0    0 -0.38219984218E-01 -0.10334808145E+00 -0.55733715321E-02  0.88688931418E+00  0.88000000000E+00 0. -1.
        -11    1    4    4    0    0 -0.20119849910E-02  0.19153229015E-01  0.31706822701E-02  0.19524564332E-01  0.51100000000E-03 0.  1.
         11    1    4    4    0    0  0.28424063565E-01  0.10600850286E+00 -0.91861133328E-02  0.11013798558E+00  0.51100000000E-03 0. -1.
</event>
<event>
 8    1  0.1199892E+005  0.1043930E+01  0.7957747E-01            NaN
         13   -1    0    0    0    0  0.00000000000E+00  0.00000000000E+00  0.74505805969E-08  0.10566000000E+00  0.10566000000E+00 0.  1.
     999900   -1    0    0    0    0 -0.00000000000E+00 -0.00000000000E+00 -0.74505805969E-08  0.93827000000E+00  0.93827000000E+00 0.  1.
     999902    2    1    2    0    0 -0.11946843225E-01 -0.18144526184E-01  0.98408826405E-02  0.10200806003E+01  0.10198017637E+01 0.  0.
     999903    2    3    3    0    0  0.44487464733E-01 -0.10194278424E+00 -0.65354855622E-01  0.13111413402E+00  0.23413526236E-01 0.  0.
         14    1    1    2    0    0  0.11946843225E-01  0.18144526184E-01 -0.98408826405E-02  0.23849399670E-01  0.00000000000E+00 0. -1.
     999901    1    3    3    0    0 -0.56434307958E-01  0.83798258052E-01  0.75195738262E-01  0.88896646631E+00  0.88000000000E+00 0. -1.
        -11    1    4    4    0    0  0.37890363737E-02 -0.19047943359E-01 -0.21191200554E-01  0.28749070329E-01  0.51100000000E-03 0.  1.
         11    1    4    4    0    0  0.40698428359E-01 -0.82894840877E-01 -0.44163655068E-01  0.10236506369E+00  0.51100000000E-03 0. -1.
</event>
<event>
 8    1  0.1199892E+005  0.1043930E+01  0.7957747E-01            NaN
         13   -1    0    0    0    0  0.00000000000E+00  0.00000000000E+00  0.74505805969E-08  0.10566000000E+00  0.10566000000E+00 0. -1.
     999900   -1    0    0    0    0 -0.00000000000E+00 -0.00000000000E+00 -0.74505805969E-08  0.93827000000E+00  0.93827000000E+00 0.  1.
     999902    2    1    2    0    0  0.12600941042E-01  0.10539179266E-03 -0.20182829234E-01  0.10201362735E+01  0.10198587526E+01 0.  0.
     999903    2    3    3    0    0 -0.75701346299E-01 -0.10071978490E+00  0.19571289479E-01  0.12910125731E+00  0.20222026766E-01 0.  0.
         14    1    1    2    0    0 -0.12600941042E-01 -0.10539179266E-03  0.20182829234E-01  0.23793726452E-01  0.00000000000E+00 0. -1.
     999901    1    3    3    0    0  0.88302287341E-01  0.10082517669E+00 -0.39754118712E-01  0.89103501624E+00  0.88000000000E+00 0.  1.
        -11    1    4    4    0    0 -0.29067587018E-01 -0.32594773971E-01  0.15833993915E-01  0.46457726909E-01  0.51100000000E-03 0. -1.
         11    1    4    4    0    0 -0.46633759281E-01 -0.68125010926E-01  0.37372955640E-02  0.82643530403E-01  0.51100000000E-03 0.  1.
</event>
<event>
 8    1  0.1199892E+005  0.1043930E+01  0.7957747E-01            NaN
         13   -1    0    0    0    0  0.00000000000E+00  0.00000000000E+00  0.74505805969E-08  0.10566000000E+00  0.10566000000E+00 0.  1.
     999900   -1    0    0    0    0 -0.00000000000E+00 -0.00000000000E+00 -0.74505805969E-08  0.93827000000E+00  0.93827000000E+00 0.  1.
     999902    2    1    2    0    0  0.26483370220E-02 -0.19398140282E-01  0.13122203592E-01  0.10203610848E+01  0.10200888440E+01 0.  0.
     999903    2    3    3    0    0 -0.42435388753E-01  0.62882581974E-01 -0.10084665037E+00  0.12806541675E+00  0.21811069282E-01 0.  0.
         14    1    1    2    0    0 -0.26483370220E-02  0.19398140282E-01 -0.13122203592E-01  0.23568915174E-01  0.00000000000E+00 0. -1.
     999901    1    3    3    0    0  0.45083725775E-01 -0.82280722255E-01  0.11396885396E+00  0.89229566807E+00  0.88000000000E+00 0. -1.
        -11    1    4    4    0    0 -0.93870721104E-02  0.58508455589E-02 -0.26411478245E-01  0.28638729382E-01  0.51100000000E-03 0. -1.
         11    1    4    4    0    0 -0.33048316643E-01  0.57031736415E-01 -0.74435172126E-01  0.99426687373E-01  0.51100000000E-03 0.  1.
</event>
<event>
 8    1  0.1199892E+005  0.1043930E+01  0.7957747E-01            NaN
         13   -1    0    0    0    0  0.00000000000E+00  0.00000000000E+00  0.74505805969E-08  0.10566000000E+00  0.10566000000E+00 0. -1.
     999900   -1    0    0    0    0 -0.00000000000E+00 -0.00000000000E+00 -0.74505805969E-08  0.93827000000E+00  0.93827000000E+00 0. -1.
     999902    2    1    2    0    0  0.11174376729E-01 -0.21829201833E-02  0.19588264265E-01  0.10212731703E+01  0.10210218198E+01 0.  0.
     999903    2    3    3    0    0 -0.10651761648E+00  0.12550601923E-01  0.70060118268E-01  0.13188242939E+00  0.31321474758E-01 0.  0.
         14    1    1    2    0    0 -0.11174376729E-01  0.21829201833E-02 -0.19588264265E-01  0.22656829715E-01  0.00000000000E+00 0.  1.
     999901    1    3    3    0    0  0.11769199321E+00 -0.14733522106E-01 -0.50471854003E-01  0.88939074089E+00  0.88000000000E+00 0. -1.
        -11    1    4    4    0    0 -0.61489687276E-01  0.93285969938E-02  0.58258960513E-01  0.85219551538E-01  0.51100000000E-03 0.  1.
         11    1    4    4    0    0 -0.45027929205E-01  0.32220049292E-02  0.11801157755E-01  0.46662877854E-01  0.51100000000E-03 0. -1.
</event>
<event>
 8    1  0.1478818E+005  0.1043930E+01  0.7957747E-01            NaN
         13   -1    0    0    0    0  0.00000000000E+00  0.00000000000E+00  0.74505805969E-08  0.10566000000E+00  0.10566000000E+00 0.  1.
     999900   -1    0    0    0    0 -0.00000000000E+00 -0.00000000000E+00 -0.74505805969E-08  0.93827000000E+00  0.93827000000E+00 0.  1.
     999902    2    1    2    0    0  0.22398512723E-01  0.50795473428E-02  0.80222132843E-02  0.10196020104E+01  0.10193117327E+01 0.  0.
     999903    2    3    3    0    0 -0.62437834713E-01  0.78438634455E-01  0.79638362703E-01  0.12959772141E+00  0.20054874778E-01 0.  0.
         14    1    1    2    0    0 -0.22398512723E-01 -0.50795473428E-02 -0.80222132843E-02  0.24327989629E-01  0.00000000000E+00 0. -1.
     999901    1    3    3    0    0  0.84836347436E-01 -0.73359087112E-01 -0.71616149419E-01  0.89000428896E+00  0.88000000000E+00 0.  1.
        -11    1    4    4    0    0 -0.39199299512E-01  0.34955291550E-01  0.46874123387E-01  0.70398167973E-01  0.51100000000E-03 0.  1.
         11    1    4    4    0    0 -0.23238535201E-01  0.43483342905E-01  0.32764239316E-01  0.59199553439E-01  0.51100000000E-03 0. -1.
</event>
<event>
 8    1  0.1199892E+005  0.1043930E+01  0.7957747E-01            NaN
         13   -1    0    0    0    0  0.00000000000E+00  0.00000000000E+00  0.74505805969E-08  0.10566000000E+00  0.10566000000E+00 0. -1.
     999900   -1    0    0    0    0 -0.00000000000E+00 -0.00000000000E+00 -0.74505805969E-08  0.93827000000E+00  0.93827000000E+00 0. -1.
     999902    2    1    2    0    0  0.18280704245E-01 -0.34645107720E-02  0.15480282720E-01  0.10197261545E+01  0.10194388673E+01 0.  0.
     999903    2    3    3    0    0 -0.18712586360E-01  0.61423036873E-01  0.11298045000E+00  0.13119636886E+00  0.18026501999E-01 0.  0.
         14    1    1    2    0    0 -0.18280704245E-01  0.34645107720E-02 -0.15480282720E-01  0.24203845473E-01  0.00000000000E+00 0.  1.
     999901    1    3    3    0    0  0.36993290605E-01 -0.64887547644E-01 -0.97500167279E-01  0.88852978566E+00  0.88000000000E+00 0. -1.
        -11    1    4    4    0    0 -0.29513040830E-02  0.21955744406E-01  0.55090064137E-01  0.59379636205E-01  0.51100000000E-03 0. -1.
         11    1    4    4    0    0 -0.15761282277E-01  0.39467292466E-01  0.57890385863E-01  0.71816732660E-01  0.51100000000E-03 0.  1.
</event>
<event>
 8    1  0.1199892E+005  0.1043930E+01  0.7957747E-01            NaN
         13   -1    0    0    0    0  0.00000000000E+00  0.00000000000E+00  0.74505805969E-08  0.10566000000E+00  0.10566000000E+00 0.  1.
     999900   -1    0    0    0    0 -0.00000000000E+00 -0.00000000000E+00 -0.74505805969E-08  0.93827000000E+00  0.93827000000E+00 0. -1.
     999902    2    1    2    0    0  0.11743550619E-01 -0.68258379287E-02  0.19639912525E-01  0.10200505275E+01  0.10197709789E+01 0.  0.
     999903    2    3    3    0    0  0.64571109906E-01 -0.16578930705E-01 -0.10858090661E+00  0.12913725879E+00  0.21031622652E-01 0.  0.
         14    1    1    2    0    0 -0.11743550619E-01  0.68258379287E-02 -0.19639912525E-01  0.23879472535E-01  0.00000000000E+00 0. -1.
     999901    1    3    3    0    0 -0.52827559286E-01  0.97530927764E-02  0.12822081913E+00  0.89091326867E+00  0.88000000000E+00 0.  1.
        -11    1    4    4    0    0  0.28058659970E-01  0.33474920065E-02 -0.41715480306E-01  0.50387860842E-01  0.51100000000E-03 0.  1.
         11    1    4    4    0    0  0.36512449936E-01 -0.19926422712E-01 -0.66865426299E-01  0.78749397951E-01  0.51100000000E-03 0. -1.
</event>
<event>
 7    1  0.1199892E+005  0.1043930E+01  0.7957747E-01            NaN
         13   -1    0    0    0    0  0.00000000000E+00  0.00000000000E+00  0.74505805969E-08  0.10566000000E+00  0.10566000000E+00 0.  1.
     999900   -1    0    0    0    0 -0.00000000000E+00 -0.00000000000E+00 -0.74505805969E-08  0.93827000000E+00  0.93827000000E+00 0. -1.
     999903    2    1    2    0    0  0.30044861494E-01 -0.82175718400E-01 -0.74531069604E-02  0.89605162817E-01  0.17832386363E-01 0.  0.
         14    1    1    2    0    0 -0.39954792028E-01 -0.47879358005E-01 -0.16079058661E-01  0.64399956959E-01  0.00000000000E+00 0. -1.
     999901    1    1    2    0    0  0.99099305342E-02  0.13005507640E+00  0.23532165622E-01  0.88992488022E+00  0.88000000000E+00 0. -1.
        -11    1    3    3    0    0 -0.23411862086E-02 -0.38377273293E-02 -0.41974216589E-03  0.45438539152E-02  0.51100000000E-03 0. -1.
         11    1    3    3    0    0  0.32386047702E-01 -0.78337991071E-01 -0.70333647945E-02  0.85061308902E-01  0.51100000000E-03 0.  1.
</event>
<event>
 8    1  0.1199892E+005  0.1043930E+01  0.7957747E-01            NaN
         13   -1    0    0    0    0  0.00000000000E+00  0.00000000000E+00  0.74505805969E-08  0.10566000000E+00  0.10566000000E+00 0. -1.
     999900   -1    0    0    0    0 -0.00000000000E+00 -0.00000000000E+00 -0.74505805969E-08  0.93827000000E+00  0.93827000000E+00 0. -1.
     999902    2    1    2    0    0 -0.98057493398E-02  0.15240276326E-01 -0.14575317193E-01  0.10206736328E+01  0.10204086466E+01 0.  0.
     999903    2    3    3    0    0  0.45328017141E-01  0.10865853442E+00  0.54728374185E-01  0.13130885683E+00  0.19634528274E-01 0.  0.
         14    1    1    2    0    0  0.98057493398E-02 -0.15240276326E-01  0.14575317193E-01  0.23256367169E-01  0.00000000000E+00 0. -1.
     999901    1    3    3    0    0 -0.55133766481E-01 -0.93418258096E-01 -0.69303691378E-01  0.88936477600E+00  0.88000000000E+00 0.  1.
        -11    1    4    4    0    0  0.15701011996E-01  0.37324419926E-01  0.29312989191E-01  0.49991464840E-01  0.51100000000E-03 0. -1.
         11    1    4    4    0    0  0.29627005146E-01  0.71334114496E-01  0.25415384994E-01  0.81317391991E-01  0.51100000000E-03 0.  1.
</event>
<event>
 8    1  0.1199892E+005  0.1043930E+01  0.7957747E-01            NaN
         13   -1    0    0    0    0  0.00000000000E+00  0.00000000000E+00  0.74505805969E-08  0.10566000000E+00  0.10566000000E+00 0.  1.
     999900   -1    0    0    0    0 -0.00000000000E+00 -0.00000000000E+00 -0.74505805969E-08  0.93827000000E+00  0.93827000000E+00 0. -1.
     999902    2    1    2    0    0 -0.34264449607E-02  0.18736530641E-01 -0.15666361712E-01  0.10192676198E+01  0.10189692085E+01 0.  0.
     999903    2    3    3    0    0  0.10093643953E+00  0.78165629964E-01 -0.19762649550E-01  0.13110085111E+00  0.22334733311E-01 0.  0.
         14    1    1    2    0    0  0.34264449607E-02 -0.18736530641E-01  0.15666361712E-01  0.24662380153E-01  0.00000000000E+00 0.  1.
     999901    1    3    3    0    0 -0.10436288450E+00 -0.59429099323E-01  0.40962878372E-02  0.88816676873E+00  0.88000000000E+00 0. -1.
        -11    1    4    4    0    0  0.67844132056E-01  0.62393672213E-01 -0.20521207561E-01  0.94430808889E-01  0.51100000000E-03 0. -1.
         11    1    4    4    0    0  0.33092307479E-01  0.15771957751E-01  0.75855801102E-03  0.36670042225E-01  0.51100000000E-03 0.  1.
</event>
<event>
 8    1  0.1199892E+005  0.1043930E+01  0.7957747E-01            NaN
         13   -1    0    0    0    0  0.00000000000E+00  0.00000000000E+00  0.74505805969E-08  0.10566000000E+00  0.10566000000E+00 0. -1.
     999900   -1    0    0    0    0 -0.00000000000E+00 -0.00000000000E+00 -0.74505805969E-08  0.93827000000E+00  0.93827000000E+00 0. -1.
     999902    2    1    2    0    0 -0.70511330252E-02  0.22617432094E-01  0.56896071165E-02  0.10195653054E+01  0.10192741406E+01 0.  0.
     999903    2    3    3    0    0 -0.34447639780E-01  0.12140396726E+00 -0.35083197747E-01  0.13267649070E+00  0.21134267609E-01 0.  0.
         14    1    1    2    0    0  0.70511330252E-02 -0.22617432094E-01 -0.56896071165E-02  0.24364694552E-01  0.00000000000E+00 0. -1.
     999901    1    3    3    0    0  0.27396506754E-01 -0.98786535165E-01  0.40772804863E-01  0.88688881475E+00  0.88000000000E+00 0.  1.
        -11    1    4    4    0    0 -0.20820284703E-01  0.40898451357E-01 -0.75863818987E-02  0.46518618744E-01  0.51100000000E-03 0.  1.
         11    1    4    4    0    0 -0.13627355077E-01  0.80505515902E-01 -0.27496815848E-01  0.86157871955E-01  0.51100000000E-03 0. -1.
</event>
<event>
 8    1  0.1199892E+005  0.1043930E+01  0.7957747E-01            NaN
         13   -1    0    0    0    0  0.00000000000E+00  0.00000000000E+00  0.74505805969E-08  0.10566000000E+00  0.10566000000E+00 0. -1.
     999900   -1    0    0    0    0 -0.00000000000E+00 -0.00000000000E+00 -0.74505805969E-08  0.93827000000E+00  0.93827000000E+00 0.  1.
     999902    2    1    2    0    0 -0.14456937254E-01  0.11090242071E-01  0.15116024120E-01  0.10202553154E+01  0.10199805969E+01 0.  0.
     999903    2    3    3    0    0  0.68304638205E-01 -0.10659020319E+00  0.85477799679E-02  0.12854835270E+00  0.20606295698E-01 0.  0.
         14    1    1    2    0    0  0.14456937254E-01 -0.11090242071E-01 -0.15116024120E-01  0.23674684563E-01  0.00000000000E+00 0.  1.
     999901    1    3    3    0    0 -0.82761575459E-01  0.11768044526E+00  0.65682441525E-02  0.89170696274E+00  0.88000000000E+00 0. -1.
        -11    1    4    4    0    0  0.31298805041E-01 -0.67652021921E-01  0.48058783430E-02  0.74697850401E-01  0.51100000000E-03 0. -1.
         11    1    4    4    0    0  0.37005833164E-01 -0.38938181268E-01  0.37419016249E-02  0.53850502295E-01  0.51100000000E-03 0.  1.
</event>
<event>
 8    1  0.1199892E+005  0.1043930E+01  0.7957747E-01            NaN
         13   -1    0    0    0    0  0.00000000000E+00  0.00000000000E+00  0.74505805969E-08  0.10566000000E+00  0.10566000000E+00 0. -1.
     999900   -1    0    0    0    0 -0.00000000000E+00 -0.00000000000E+00 -0.74505805969E-08  0.93827000000E+00  0.93827000000E+00 0.  1.
     999902    2    1    2    0    0  0.17044769922E-01  0.14933050169E-01 -0.68227849455E-02  0.10202641900E+01  0.10199896798E+01 0.  0.
     999903    2    3    3    0    0 -0.30889590781E-01 -0.14999988934E-01 -0.12443020986E+00  0.13064337404E+00  0.20140694358E-01 0.  0.
         14    1    1    2    0    0 -0.17044769922E-01 -0.14933050169E-01  0.68227849455E-02  0.23665810011E-01  0.00000000000E+00 0. -1.
     999901    1    3    3    0    0  0.47934360704E-01  0.29933039102E-01  0.11760742492E+00  0.88962081594E+00  0.88000000000E+00 0. -1.
        -11    1    4    4    0    0 -0.29764474293E-01 -0.15521819214E-01 -0.87970830652E-01  0.94159327569E-01  0.51100000000E-03 0.  1.
         11    1    4    4    0    0 -0.11251164880E-02  0.52183028092E-03 -0.36459379209E-01  0.36484046476E-01  0.51100000000E-03 0. -1.
</event>
<event>
 8    1  0.1199892E+005  0.1043930E+01  0.7957747E-01            NaN
         13   -1    0    0    0    0  0.00000000000E+00  0.00000000000E+00  0.74505805969E-08  0.10566000000E+00  0.10566000000E+00 0. -1.
     999900   -1    0    0    0    0 -0.00000000000E+00 -0.00000000000E+00 -0.74505805969E-08  0.93827000000E+00  0.93827000000E+00 0.  1.
     999902    2    1    2    0    0  0.59810116195E-03 -0.22726576472E-01  0.60021523225E-02  0.10204165818E+01  0.10201456365E+01 0.  0.
     999903    2    3    3    0    0 -0.81444552086E-01  0.80117599774E-01  0.56760370849E-01  0.12919028153E+00  0.20404516280E-01 0.  0.
         14    1    1    2    0    0 -0.59810116195E-03  0.22726576472E-01 -0.60021523225E-02  0.23513418204E-01  0.00000000000E+00 0. -1.
     999901    1    3    3    0    0  0.82042653248E-01 -0.10284417625E+00 -0.50758218527E-01  0.89122630027E+00  0.88000000000E+00 0.  1.
        -11    1    4    4    0    0 -0.24399665238E-01  0.31016144500E-01  0.10488869894E-01  0.40836532615E-01  0.51100000000E-03 0. -1.
         11    1    4    4    0    0 -0.57044886848E-01  0.49101455274E-01  0.46271500955E-01  0.88353748914E-01  0.51100000000E-03 0.  1.
</event>
<event>
 8    1  0.1199892E+005  0.1043930E+01  0.7957747E-01            NaN
         13   -1    0    0    0    0  0.00000000000E+00  0.00000000000E+00  0.74505805969E-08  0.10566000000E+00  0.10566000000E+00 0. -1.
     999900   -1    0    0    0    0 -0.00000000000E+00 -0.00000000000E+00 -0.74505805969E-08  0.93827000000E+00  0.93827000000E+00 0.  1.
     999902    2    1    2    0    0 -0.10520839488E-01  0.19699563148E-01 -0.70082758583E-02  0.10205232321E+01  0.10202547675E+01 0.  0.
     999903    2    3    3    0    0 -0.16633996123E-01  0.13082286916E+00 -0.70105177916E-02  0.13351378470E+00  0.19633400669E-01 0.  0.
         14    1    1    2    0    0  0.10520839488E-01 -0.19699563148E-01  0.70082758583E-02  0.23406767873E-01  0.00000000000E+00 0. -1.
     999901    1    3    3    0    0  0.61131566344E-02 -0.11112330601E+00  0.22419332367E-05  0.88700944743E+00  0.88000000000E+00 0. -1.
        -11    1    4    4    0    0  0.16931181135E-02  0.41987840030E-01 -0.81070866415E-02  0.42799898763E-01  0.51100000000E-03 0.  1.
         11    1    4    4    0    0 -0.18327114236E-01  0.88835029132E-01  0.10965688500E-02  0.90713885934E-01  0.51100000000E-03 0. -1.
</event>
<event>
 8    1  0.1199892E+005  0.1043930E+01  0.7957747E-01            NaN
         13   -1    0    0    0    0  0.00000000000E+00  0.00000000000E+00  0.74505805969E-08  0.10566000000E+00  0.10566000000E+00 0. -1.
     999900   -1    0    0    0    0 -0.00000000000E+00 -0.00000000000E+00 -0.74505805969E-08  0.93827000000E+00  0.93827000000E+00 0.  1.
     999902    2    1    2    0    0 -0.64324243336E-02  0.18262220125E-01 -0.13876960167E-01  0.10201086904E+01  0.10198305180E+01 0.  0.
     999903    2    3    3    0    0 -0.23044899910E-01  0.12548358228E+00 -0.33095405467E-01  0.13323680368E+00  0.19481867395E-01 0.  0.
         14    1    1    2    0    0  0.64324243336E-02 -0.18262220125E-01  0.13876960167E-01  0.23821309581E-01  0.00000000000E+00 0. -1.
     999901    1    3    3    0    0  0.16612475576E-01 -0.10722136216E+00  0.19218445300E-01  0.88687188674E+00  0.88000000000E+00 0. -1.
        -11    1    4    4    0    0  0.62507704878E-03  0.47139229773E-01 -0.14233990208E-01  0.49247997960E-01  0.51100000000E-03 0.  1.
         11    1    4    4    0    0 -0.23669976959E-01  0.78344352511E-01 -0.18861415259E-01  0.83988805719E-01  0.51100000000E-03 0. -1.
</event>
<event>
 8    1  0.1199892E+005  0.1043930E+01  0.7957747E-01            NaN
         13   -1    0    0    0    0  0.00000000000E+00  0.00000000000E+00  0.74505805969E-08  0.10566000000E+00  0.10566000000E+00 0.  1.
     999900   -1    0    0    0    0 -0.00000000000E+00 -0.00000000000E+00 -0.74505805969E-08  0.93827000000E+00  0.93827000000E+00 0.  1.
     999902    2    1    2    0    0 -0.15703379065E-01 -0.13295400504E-01  0.10734288373E-01  0.10207224854E+01  0.10204586240E+01 0.  0.
     999903    2    3    3    0    0 -0.41176916906E-01  0.73109222286E-01  0.99561443197E-01  0.13167528560E+00  0.19631683535E-01 0.  0.
         14    1    1    2    0    0  0.15703379065E-01  0.13295400504E-01 -0.10734288373E-01  0.23207514634E-01  0.00000000000E+00 0. -1.
     999901    1    3    3    0    0  0.25473537841E-01 -0.86404622790E-01 -0.88827154824E-01  0.88904719976E+00  0.88000000000E+00 0.  1.
        -11    1    4    4    0    0 -0.46958555003E-02  0.88858339565E-02  0.23926796183E-01  0.25956922017E-01  0.51100000000E-03 0. -1.
         11    1    4    4    0    0 -0.36481061405E-01  0.64223388330E-01  0.75634647014E-01  0.10571836359E+00  0.51100000000E-03 0.  1.
</event>
<event>
 8    1  0.1199892E+005  0.1043930E+01  0.7957747E-01            NaN
         13   -1    0    0    0    0  0.00000000000E+00  0.00000000000E+00  0.74505805969E-08  0.10566000000E+00  0.10566000000E+00 0.  1.
     999900   -1    0    0    0    0 -0.00000000000E+00 -0.00000000000E+00 -0.74505805969E-08  0.93827000000E+00  0.93827000000E+00 0. -1.
     999902    2    1    2    0    0 -0.12290525310E-01  0.14212974513E-02 -0.20988828069E-01  0.10195659280E+01  0.10192747783E+01 0.  0.
     999903    2    3    3    0    0  0.50226037934E-01  0.11116584546E+00 -0.41078682007E-01  0.13032142357E+00  0.20389096134E-01 0.  0.
         14    1    1    2    0    0  0.12290525310E-01 -0.14212974513E-02  0.20988828069E-01  0.24364071961E-01  0.00000000000E+00 0.  1.
     999901    1    3    3    0    0 -0.62516563244E-01 -0.10974454801E+00  0.20089853939E-01  0.88924450447E+00  0.88000000000E+00 0.  1.
        -11    1    4    4    0    0  0.24516182980E-01  0.55762281220E-01 -0.31221269848E-01  0.68450741754E-01  0.51100000000E-03 0. -1.
         11    1    4    4    0    0  0.25709854954E-01  0.55403564244E-01 -0.98574121597E-02  0.61870681815E-01  0.51100000000E-03 0.  1.
</event>
<event>
 8    1  0.1199892E+005  0.1043930E+01  0.7957747E-01            NaN
         13   -1    0    0    0    0  0.00000000000E+00  0.00000000000E+00  0.74505805969E-08  0.10566000000E+00  0.10566000000E+00 0. -1.
     999900   -1    0    0    0    0 -0.00000000000E+00 -0.00000000000E+00 -0.74505805969E-08  0.93827000000E+00  0.93827000000E+00 0.  1.
     999902    2    1    2    0    0 -0.19668579074E-01 -0.10500809139E-01  0.19368180839E-02  0.10215498467E+01  0.10213046647E+01 0.  0.
     999903    2    3    3    0    0  0.11158919893E-01  0.77673674688E-01  0.10292987523E+00  0.13086209457E+00  0.19303039847E-01 0.  0.
         14    1    1    2    0    0  0.19668579074E-01  0.10500809139E-01 -0.19368180839E-02  0.22380153254E-01  0.00000000000E+00 0.  1.
     999901    1    3    3    0    0 -0.30827498967E-01 -0.88174483827E-01 -0.10099305714E+00  0.89068775218E+00  0.88000000000E+00 0.  1.
        -11    1    4    4    0    0  0.15084250205E-01  0.38641971450E-01  0.56045601271E-01  0.69728811151E-01  0.51100000000E-03 0.  1.
         11    1    4    4    0    0 -0.39253303112E-02  0.39031703238E-01  0.46884273957E-01  0.61133283416E-01  0.51100000000E-03 0. -1.
</event>
<event>
 8    1  0.1199892E+005  0.1043930E+01  0.7957747E-01            NaN
         13   -1    0    0    0    0  0.00000000000E+00  0.00000000000E+00  0.74505805969E-08  0.10566000000E+00  0.10566000000E+00 0. -1.
     999900   -1    0    0    0    0 -0.00000000000E+00 -0.00000000000E+00 -0.74505805969E-08  0.93827000000E+00  0.93827000000E+00 0. -1.
     999902    2    1    2    0    0 -0.16058625844E-01  0.74245674335E-02 -0.17609202113E-01  0.10189682760E+01  0.10186624857E+01 0.  0.
     999903    2    3    3    0    0  0.97386433512E-01  0.78796825693E-01 -0.23390710062E-01  0.12880132168E+00  0.18697539367E-01 0.  0.
         14    1    1    2    0    0  0.16058625844E-01 -0.74245674335E-02  0.17609202113E-01  0.24961723991E-01  0.00000000000E+00 0. -1.
     999901    1    3    3    0    0 -0.11344505936E+00 -0.71372258259E-01  0.57815079496E-02  0.89016695433E+00  0.88000000000E+00 0.  1.
        -11    1    4    4    0    0  0.84833555254E-01  0.64790698307E-01 -0.13654296717E-01  0.10761629813E+00  0.51100000000E-03 0.  1.
         11    1    4    4    0    0  0.12552878257E-01  0.14006127386E-01 -0.97364133456E-02  0.21185023548E-01  0.51100000000E-03 0. -1.
</event>
<event>
 8    1  0.1199892E+005  0.1043930E+01  0.7957747E-01            NaN
         13   -1    0    0    0    0  0.00000000000E+00  0.00000000000E+00  0.74505805969E-08  0.10566000000E+00  0.10566000000E+00 0. -1.
     999900   -1    0    0    0    0 -0.00000000000E+00 -0.00000000000E+00 -0.74505805969E-08  0.93827000000E+00  0.93827000000E+00 0.  1.
     999902    2    1    2    0    0 -0.13375248288E-01 -0.19035781666E-01  0.52910641479E-02  0.10200709638E+01  0.10197918991E+01 0.  0.
     999903    2    3    3    0    0  0.64943714165E-01 -0.26057512778E-01 -0.10846854514E+00  0.12927109101E+00  0.69935472845E-02 0.  0.
         14    1    1    2    0    0  0.13375248288E-01  0.19035781666E-01 -0.52910641479E-02  0.23859036238E-01  0.00000000000E+00 0.  1.
     999901    1    3    3    0    0 -0.78318962453E-01  0.70217311120E-02  0.11375960929E+00  0.89079987275E+00  0.88000000000E+00 0. -1.
        -11    1    4    4    0    0  0.29138894457E-01 -0.91891871088E-02 -0.42652870250E-01  0.52469465325E-01  0.51100000000E-03 0. -1.
         11    1    4    4    0    0  0.35804819708E-01 -0.16868325669E-01 -0.65815674894E-01  0.76801625685E-01  0.51100000000E-03 0.  1.
</event>
<event>
 8    1  0.1199892E+005  0.1043930E+01  0.7957747E-01            NaN
         13   -1    0    0    0    0  0.00000000000E+00  0.00000000000E+00  0.74505805969E-08  0.10566000000E+00  0.10566000000E+00 0.  1.
     999900   -1    0    0    0    0 -0.00000000000E+00 -0.00000000000E+00 -0.74505805969E-08  0.93827000000E+00  0.93827000000E+00 0.  1.
     999902    2    1    2    0    0 -0.61581284070E-02  0.30839248765E-02 -0.22528822748E-01  0.10203719654E+01  0.10200999789E+01 0.  0.
     999903    2    3    3    0    0 -0.11534420803E-01 -0.12733454640E+00  0.12232090423E-01  0.13006516256E+00  0.20498607412E-01 0.  0.
         14    1    1    2    0    0  0.61581284070E-02 -0.30839248765E-02  0.22528822748E-01  0.23558034564E-01  0.00000000000E+00 0.  1.
     999901    1    3    3    0    0  0.53762923959E-02  0.13041847127E+00 -0.34760913171E-01  0.89030680288E+00  0.88000000000E+00 0. -1.
        -11    1    4    4    0    0 -0.13011175179E-03 -0.62423174738E-01 -0.27132238343E-02  0.62484337062E-01  0.51100000000E-03 0. -1.
         11    1    4    4    0    0 -0.11404309051E-01 -0.64911371657E-01  0.14945314257E-01  0.67580825495E-01  0.51100000000E-03 0.  1.
</event>
<event>
 8    1  0.1199892E+005  0.1043930E+01  0.7957747E-01            NaN
         13   -1    0    0    0    0  0.00000000000E+00  0.00000000000E+00  0.74505805969E-08  0.10566000000E+00  0.10566000000E+00 0. -1.
     999900   -1    0    0    0    0 -0.00000000000E+00 -0.00000000000E+00 -0.74505805969E-08  0.93827000000E+00  0.93827000000E+00 0.  1.
     999902    2    1    2    0    0 -0.41693769283E-02  0.21341023246E-01  0.14580941287E-02  0.10221366750E+01  0.10219043171E+01 0.  0.
     999903    2    3    3    0    0 -0.69909335081E-01 -0.70679525177E-01 -0.82529368836E-01  0.13093332143E+00  0.21202064291E-01 0.  0.
         14    1    1    2    0    0  0.41693769283E-02 -0.21341023246E-01 -0.14580941287E-02  0.21793325025E-01  0.00000000000E+00 0.  1.
     999901    1    3    3    0    0  0.65739958152E-01  0.92020548423E-01  0.83987462964E-01  0.89120335354E+00  0.88000000000E+00 0. -1.
        -11    1    4    4    0    0 -0.37310531692E-01 -0.23458845312E-01 -0.39846459471E-01  0.59417124231E-01  0.51100000000E-03 0.  1.
         11    1    4    4    0    0 -0.32598803389E-01 -0.47220679865E-01 -0.42682909365E-01  0.71516197201E-01  0.51100000000E-03 0. -1.
</event>
<event>
 8    1  0.1199892E+005  0.1043930E+01  0.7957747E-01            NaN
         13   -1    0    0    0    0  0.00000000000E+00  0.00000000000E+00  0.74505805969E-08  0.10566000000E+00  0.10566000000E+00 0.  1.
     999900   -1    0    0    0    0 -0.00000000000E+00 -0.00000000000E+00 -0.74505805969E-08  0.93827000000E+00  0.93827000000E+00 0. -1.
     999902    2    1    2    0    0  0.11861593408E-01  0.20998527755E-01  0.33173854462E-02  0.10195857889E+01  0.10192951194E+01 0.  0.
     999903    2    3    3    0    0 -0.61978760967E-01 -0.33382300619E-01  0.10621749706E+00  0.12885681478E+00  0.19135757846E-01 0.  0.
         14    1    1    2    0    0 -0.11861593408E-01 -0.20998527755E-01 -0.33173854462E-02  0.24344211062E-01  0.00000000000E+00 0. -1.
     999901    1    3    3    0    0  0.73840354375E-01  0.54380828373E-01 -0.10290011162E+00  0.89072897416E+00  0.88000000000E+00 0. -1.
        -11    1    4    4    0    0 -0.57955456328E-02 -0.10706893482E-01  0.14598222699E-01  0.19015655239E-01  0.51100000000E-03 0.  1.
         11    1    4    4    0    0 -0.56183215334E-01 -0.22675407137E-01  0.91619274363E-01  0.10984115954E+00  0.51100000000E-03 0. -1.
</event>
<event>
 8    1  0.1199892E+005  0.1043930E+01  0.7957747E-01            NaN
         13   -1    0    0    0    0  0.00000000000E+00  0.00000000000E+00  0.74505805969E-08  0.10566000000E+00  0.10566000000E+00 0. -1.
     999900   -1    0    0    0    0 -0.00000000000E+00 -0.00000000000E+00 -0.74505805969E-08  0.93827000000E+00  0.93827000000E+00 0.  1.
     999902    2    1    2    0    0  0.14854686756E-01  0.67940316209E-02 -0.18192308989E-01  0.10194804460E+01  0.10191872247E+01 0.  0.
     999903    2    3    3    0    0 -0.28560447692E-01  0.27251812102E-01 -0.12427663424E+00  0.13181086854E+00  0.19262990758E-01 0.  0.
         14    1    1    2    0    0 -0.14854686756E-01 -0.67940316209E-02  0.18192308989E-01  0.24449553997E-01  0.00000000000E+00 0. -1.
     999901    1    3    3    0    0  0.43415134448E-01 -0.20457780481E-01  0.10608432525E+00  0.88766957746E+00  0.88000000000E+00 0. -1.
        -11    1    4    4    0    0 -0.11181835284E-01  0.13636384603E-01 -0.28477395385E-01  0.33499367073E-01  0.51100000000E-03 0. -1.
         11    1    4    4    0    0 -0.17378612407E-01  0.13615427499E-01 -0.95799238856E-01  0.98311501472E-01  0.51100000000E-03 0.  1.
</event>
<event>
 8    1  0.1199892E+005  0.1043930E+01  0.7957747E-01            NaN
         13   -1    0    0    0    0  0.00000000000E+00  0.00000000000E+00  0.74505805969E-08  0.10566000000E+00  0.10566000000E+00 0.  1.
     999900   -1    0    0    0    0 -0.00000000000E+00 -0.00000000000E+00 -0.74505805969E-08  0.93827000000E+00  0.93827000000E+00 0. -1.
     999902    2    1    2    0    0 -0.52894199024E-02  0.17593512773E-01 -0.14131646227E-01  0.10207521425E+01  0.10204889628E+01 0.  0.
     999903    2    3    3    0    0  0.12841678720E+00  0.67209509979E-02  0.10825850869E-01  0.13023631494E+00  0.17557228268E-01 0.  0.
         14    1    1    2    0    0  0.52894199024E-02 -0.17593512773E-01  0.14131646227E-01  0.23177857530E-01  0.00000000000E+00 0.  1.
     999901    1    3    3    0    0 -0.13370620711E+00  0.10872561775E-01 -0.24957497096E-01  0.89051582753E+00  0.88000000000E+00 0. -1.
        -11    1    4    4    0    0  0.11041701722E+00  0.36010173888E-03  0.12193118451E-01  0.11108996635E+00  0.51100000000E-03 0. -1.
         11    1    4    4    0    0  0.17999769986E-01  0.63608492590E-02 -0.13672675819E-02  0.19146348594E-01  0.51100000000E-03 0.  1.
</event>
<event>
 8    1  0.1199892E+005  0.1043930E+01  0.7957747E-01            NaN
         13   -1    0    0    0    0  0.00000000000E+00  0.00000000000E+00  0.74505805969E-08  0.10566000000E+00  0.10566000000E+00 0. -1.
     999900   -1    0    0    0    0 -0.00000000000E+00 -0.00000000000E+00 -0.74505805969E-08  0.93827000000E+00  0.93827000000E+00 0.  1.
     999902    2    1    2    0    0  0.25715358283E-02 -0.13881470211E-01  0.19952004505E-01  0.10194884269E+01  0.10191953994E+01 0.  0.
     999903    2    3    3    0    0  0.43535174798E-01 -0.92171102538E-01  0.82844810359E-01  0.13283021131E+00  0.19742817569E-01 0.  0.
         14    1    1    2    0    0 -0.25715358283E-02  0.13881470211E-01 -0.19952004505E-01  0.24441573098E-01  0.00000000000E+00 0.  1.
     999901    1    3    3    0    0 -0.40963638970E-01  0.78289632327E-01 -0.62892805854E-01  0.88665821559E+00  0.88000000000E+00 0. -1.
        -11    1    4    4    0    0  0.92610460334E-02 -0.35441760431E-01  0.38122511589E-01  0.52872226801E-01  0.51100000000E-03 0.  1.
         11    1    4    4    0    0  0.34274128765E-01 -0.56729342107E-01  0.44722298771E-01  0.79957984509E-01  0.51100000000E-03 0. -1.
</event>
<event>
 8    1  0.1199892E+005  0.1043930E+01  0.7957747E-01            NaN
         13   -1    0    0    0    0  0.00000000000E+00  0.00000000000E+00  0.74505805969E-08  0.10566000000E+00  0.10566000000E+00 0.  1.
     999900   -1    0    0    0    0 -0.00000000000E+00 -0.00000000000E+00 -0.74505805969E-08  0.93827000000E+00  0.93827000000E+00 0. -1.
     999902    2    1    2    0    0  0.42990490791E-02 -0.15546544236E-01 -0.17199320817E-01  0.10203504856E+01  0.10200779970E+01 0.  0.
     999903    2    3    3    0    0 -0.91074828807E-01 -0.14128144823E-01  0.87763965728E-01  0.12899450739E+00  0.21043771982E-01 0.  0.
         14    1    1    2    0    0 -0.42990490791E-02  0.15546544236E-01  0.17199320817E-01  0.23579514356E-01  0.00000000000E+00 0.  1.
     999901    1    3    3    0    0  0.95373877886E-01 -0.14183994131E-02 -0.10496328654E+00  0.89135597825E+00  0.88000000000E+00 0. -1.
        -11    1    4    4    0    0 -0.63540690431E-01 -0.17199789091E-01  0.52840732267E-01  0.84413601941E-01  0.51100000000E-03 0. -1.
         11    1    4    4    0    0 -0.27534138376E-01  0.30716442680E-02  0.34923233461E-01  0.44580905453E-01  0.51100000000E-03 0.  1.
</event>
<event>
 8    1  0.1199892E+005  0.1043930E+01  0.7957747E-01            NaN
         13   -1    0    0    0    0  0.00000000000E+00  0.00000000000E+00  0.74505805969E-08  0.10566000000E+00  0.10566000000E+00 0. -1.
     999900   -1    0    0    0    0 -0.00000000000E+00 -0.00000000000E+00 -0.74505805969E-08  0.93827000000E+00  0.93827000000E+00 0. -1.
     999902    2    1    2    0    0 -0.35674825919E-02  0.12662709206E-01  0.20706898673E-01  0.10193974341E+01  0.10191021940E+01 0.  0.
     999903    2    3    3    0    0 -0.83934508054E-01 -0.95937105303E-01  0.29726414446E-03  0.12885303226E+00  0.18817166084E-01 0.  0.
         14    1    1    2    0    0  0.35674825919E-02 -0.12662709206E-01 -0.20706898673E-01  0.24532565889E-01  0.00000000000E+00 0.  1.
     999901    1    3    3    0    0  0.80367025462E-01  0.10859981451E+00  0.20409634528E-01  0.89054440185E+00  0.88000000000E+00 0.  1.
        -11    1    4    4    0    0 -0.56869248228E-01 -0.72847982115E-01 -0.64345169710E-02  0.92642344648E-01  0.51100000000E-03 0.  1.
         11    1    4    4    0    0 -0.27065259827E-01 -0.23089123187E-01  0.67317811155E-02  0.36210687608E-01  0.51100000000E-03 0. -1.
</event>
<event>
 8    1  0.1199892E+005  0.1043930E+01  0.7957747E-01            NaN
         13   -1    0    0    0    0  0.00000000000E+00  0.00000000000E+00  0.74505805969E-08  0.10566000000E+00  0.10566000000E+00 0. -1.
     999900   -1    0    0    0    0 -0.00000000000E+00 -0.00000000000E+00 -0.74505805969E-08  0.93827000000E+00  0.93827000000E+00 0.  1.
     999902    2    1    2    0    0 -0.85921967194E-02  0.12479958782E-01 -0.17913362494E-01  0.10204680356E+01  0.10201982886E+01 0.  0.
     999903    2    3    3    0    0  0.49418159062E-01 -0.39668410227E-01 -0.11384139063E+00  0.13182477744E+00  0.20054239222E-01 0.  0.
         14    1    1    2    0    0  0.85921967194E-02 -0.12479958782E-01  0.17913362494E-01  0.23461964357E-01  0.00000000000E+00 0. -1.
     999901    1    3    3    0    0 -0.58010355781E-01  0.52148369010E-01  0.95928028138E-01  0.88864325820E+00  0.88000000000E+00 0. -1.
        -11    1    4    4    0    0  0.27328550555E-01 -0.18685901109E-01 -0.39884993979E-01  0.51837114516E-01  0.51100000000E-03 0. -1.
         11    1    4    4    0    0  0.22089608507E-01 -0.20982509118E-01 -0.73956396653E-01  0.79987662923E-01  0.51100000000E-03 0.  1.
</event>
<event>
 8    1  0.1199892E+005  0.1043930E+01  0.7957747E-01            NaN
         13   -1    0    0    0    0  0.00000000000E+00  0.00000000000E+00  0.74505805969E-08  0.10566000000E+00  0.10566000000E+00 0.  1.
     999900   -1    0    0    0    0 -0.00000000000E+00 -0.00000000000E+00 -0.74505805969E-08  0.93827000000E+00  0.93827000000E+00 0. -1.
     999902    2    1    2    0    0 -0.54898811081E-02  0.12375914880E-01  0.19838133861E-01  0.10199122229E+01  0.10196293879E+01 0.  0.
     999903    2    3    3    0    0 -0.11534094317E+00  0.40351456041E-01  0.46446760289E-01  0.13224229223E+00  0.19973711144E-01 0.  0.
         14    1    1    2    0    0  0.54898811081E-02 -0.12375914880E-01 -0.19838133861E-01  0.24017777141E-01  0.00000000000E+00 0. -1.
     999901    1    3    3    0    0  0.10985106206E+00 -0.27975541162E-01 -0.26608626428E-01  0.88766993063E+00  0.88000000000E+00 0.  1.
        -11    1    4    4    0    0 -0.81722907343E-01  0.32812566532E-01  0.41770523992E-01  0.97469666576E-01  0.51100000000E-03 0.  1.
         11    1    4    4    0    0 -0.33618035829E-01  0.75388895096E-02  0.46762362971E-02  0.34772625655E-01  0.51100000000E-03 0. -1.
</event>
<event>
 8    1  0.1199892E+005  0.1043930E+01  0.7957747E-01            NaN
         13   -1    0    0    0    0  0.00000000000E+00  0.00000000000E+00  0.74505805969E-08  0.10566000000E+00  0.10566000000E+00 0.  1.
     999900   -1    0    0    0    0 -0.00000000000E+00 -0.00000000000E+00 -0.74505805969E-08  0.93827000000E+00  0.93827000000E+00 0. -1.
     999902    2    1    2    0    0 -0.12457829747E-01  0.15192303082E-01 -0.13153525277E-01  0.10202864211E+01  0.10200124324E+01 0.  0.
     999903    2    3    3    0    0  0.44577991944E-01  0.10693668040E+00 -0.60533016348E-01  0.13241541028E+00  0.21141046113E-01 0.  0.
         14    1    1    2    0    0  0.12457829747E-01 -0.15192303082E-01  0.13153525277E-01  0.23643578878E-01  0.00000000000E+00 0.  1.
     999901    1    3    3    0    0 -0.57035821691E-01 -0.91744377315E-01  0.47379491072E-01  0.88787101085E+00  0.88000000000E+00 0.  1.
        -11    1    4    4    0    0  0.30523810535E-01  0.63722151884E-01 -0.47495496185E-01  0.85136942212E-01  0.51100000000E-03 0.  1.
         11    1    4    4    0    0  0.14054181409E-01  0.43214528512E-01 -0.13037520163E-01  0.47278468066E-01  0.51100000000E-03 0. -1.
</event>
<event>
 8    1  0.1199892E+005  0.1043930E+01  0.7957747E-01            NaN
         13   -1    0    0    0    0  0.00000000000E+00  0.00000000000E+00  0.74505805969E-08  0.10566000000E+00  0.10566000000E+00 0.  1.
     999900   -1    0    0    0    0 -0.00000000000E+00 -0.00000000000E+00 -0.74505805969E-08  0.93827000000E+00  0.93827000000E+00 0. -1.
     999902    2    1    2    0    0 -0.22385392050E-01 -0.11392954457E-01  0.86661056845E-02  0.10173592157E+01  0.10170121766E+01 0.  0.
     999903    2    3    3    0    0 -0.63881761812E-01 -0.10038644840E+00 -0.48245871829E-01  0.13007078245E+00  0.20794849915E-01 0.  0.
         14    1    1    2    0    0  0.22385392050E-01  0.11392954457E-01 -0.86661056845E-02  0.26570784261E-01  0.00000000000E+00 0.  1.
     999901    1    3    3    0    0  0.41496369761E-01  0.88993493945E-01  0.56911977513E-01  0.88728843329E+00  0.88000000000E+00 0.  1.
        -11    1    4    4    0    0 -0.26103505082E-01 -0.38209312542E-01 -0.81239529734E-02  0.46985149520E-01  0.51100000000E-03 0.  1.
         11    1    4    4    0    0 -0.37778256730E-01 -0.62177135861E-01 -0.40121918855E-01  0.83085632928E-01  0.51100000000E-03 0. -1.
</event>
<event>
 8    1  0.1199892E+005  0.1043930E+01  0.7957747E-01            NaN
         13   -1    0    0    0    0  0.00000000000E+00  0.00000000000E+00  0.74505805969E-08  0.10566000000E+00  0.10566000000E+00 0. -1.
     999900   -1    0    0    0    0 -0.00000000000E+00 -0.00000000000E+00 -0.74505805969E-08  0.93827000000E+00  0.93827000000E+00 0. -1.
     999902    2    1    2    0    0  0.14798759819E-01  0.19148978212E-01 -0.28259610328E-02  0.10195646001E+01  0.10192734182E+01 0.  0.
     999903    2    3    3    0    0  0.28868540258E-01 -0.75359395145E-01  0.98196532733E-01  0.12864634589E+00  0.19871895153E-01 0.  0.
         14    1    1    2    0    0 -0.14798759819E-01 -0.19148978212E-01  0.28259610328E-02  0.24365399946E-01  0.00000000000E+00 0. -1.
     999901    1    3    3    0    0 -0.14069780438E-01  0.94508373357E-01 -0.10102249377E+00  0.89091825416E+00  0.88000000000E+00 0. -1.
        -11    1    4    4    0    0  0.16611165704E-01 -0.61930267049E-01  0.68553059817E-01  0.93867310252E-01  0.51100000000E-03 0.  1.
         11    1    4    4    0    0  0.12257374554E-01 -0.13429128096E-01  0.29643472916E-01  0.34779035638E-01  0.51100000000E-03 0. -1.
</event>
<event>
 8    1  0.1199892E+005  0.1043930E+01  0.7957747E-01            NaN
         13   -1    0    0    0    0  0.00000000000E+00  0.00000000000E+00  0.74505805969E-08  0.10566000000E+00  0.10566000000E+00 0.  1.
     999900   -1    0    0    0    0 -0.00000000000E+00 -0.00000000000E+00 -0.74505805969E-08  0.93827000000E+00  0.93827000000E+00 0. -1.
     999902    2    1    2    0    0 -0.89455758892E-02  0.18767678724E-01  0.12240860187E-01  0.10198035052E+01  0.10195180732E+01 0.  0.
     999903    2    3    3    0    0 -0.58733559960E-01 -0.11088251722E+00  0.45279554809E-02  0.12887842106E+00  0.29061681729E-01 0.  0.
         14    1    1    2    0    0  0.89455758892E-02 -0.18767678724E-01 -0.12240860187E-01  0.24126494788E-01  0.00000000000E+00 0. -1.
     999901    1    3    3    0    0  0.49787984071E-01  0.12965019594E+00  0.77129047057E-02  0.89092508415E+00  0.88000000000E+00 0. -1.
        -11    1    4    4    0    0  0.26056712235E-02 -0.53973556657E-02  0.32727866863E-02  0.68478627615E-02  0.51100000000E-03 0.  1.
         11    1    4    4    0    0 -0.61339231183E-01 -0.10548516155E+00  0.12551687946E-02  0.12203055830E+00  0.51100000000E-03 0. -1.
</event>
<event>
 8    1  0.1199892E+005  0.1043930E+01  0.7957747E-01            NaN
         13   -1    0    0    0    0  0.00000000000E+00  0.00000000000E+00  0.74505805969E-08  0.10566000000E+00  0.10566000000E+00 0. -1.
     999900   -1    0    0    0    0 -0.00000000000E+00 -0.00000000000E+00 -0.74505805969E-08  0.93827000000E+00  0.93827000000E+00 0.  1.
     999902    2    1    2    0    0 -0.93637267078E-02 -0.17044591154E-01  0.15473608506E-01  0.10190778366E+01  0.10187747577E+01 0.  0.
     999903    2    3    3    0    0  0.76138135033E-01 -0.25609182973E-01 -0.97229576940E-01  0.12773843514E+00  0.20265027019E-01 0.  0.
         14    1    1    2    0    0  0.93637267078E-02  0.17044591154E-01 -0.15473608506E-01  0.24852163400E-01  0.00000000000E+00 0.  1.
     999901    1    3    3    0    0 -0.85501861741E-01  0.85645918187E-02  0.11270318545E+00  0.89133940146E+00  0.88000000000E+00 0. -1.
        -11    1    4    4    0    0  0.21276371181E-01 -0.13453718432E-01 -0.41858026903E-01  0.48847129368E-01  0.51100000000E-03 0.  1.
         11    1    4    4    0    0  0.54861763852E-01 -0.12155464540E-01 -0.55371550036E-01  0.78891305767E-01  0.51100000000E-03 0. -1.
</event>
<event>
 8    1  0.1199892E+005  0.1043930E+01  0.7957747E-01            NaN
         13   -1    0    0    0    0  0.00000000000E+00  0.00000000000E+00  0.74505805969E-08  0.10566000000E+00  0.10566000000E+00 0. -1.
     999900   -1    0    0    0    0 -0.00000000000E+00 -0.00000000000E+00 -0.74505805969E-08  0.93827000000E+00  0.93827000000E+00 0.  1.
     999902    2    1    2    0    0 -0.21214474286E-01  0.27974848151E-02  0.96499435394E-02  0.10204565842E+01  0.10201865706E+01 0.  0.
     999903    2    3    3    0    0  0.77610569516E-01  0.88718279080E-01  0.51403499544E-01  0.12978709911E+00  0.17551005307E-01 0.  0.
         14    1    1    2    0    0  0.21214474286E-01 -0.27974848151E-02 -0.96499435394E-02  0.23473415832E-01  0.00000000000E+00 0. -1.
     999901    1    3    3    0    0 -0.98825043801E-01 -0.85920794265E-01 -0.41753556004E-01  0.89066948506E+00  0.88000000000E+00 0. -1.
        -11    1    4    4    0    0  0.33144778145E-01  0.47111591483E-01  0.18123951568E-01  0.60388882352E-01  0.51100000000E-03 0.  1.
         11    1    4    4    0    0  0.44465791371E-01  0.41606687597E-01  0.33279547976E-01  0.69398216761E-01  0.51100000000E-03 0. -1.
</event>
<event>
 8    1  0.1199892E+005  0.1043930E+01  0.7957747E-01            NaN
         13   -1    0    0    0    0  0.00000000000E+00  0.00000000000E+00  0.74505805969E-08  0.10566000000E+00  0.10566000000E+00 0. -1.
     999900   -1    0    0    0    0 -0.00000000000E+00 -0.00000000000E+00 -0.74505805969E-08  0.93827000000E+00  0.93827000000E+00 0. -1.
     999902    2    1    2    0    0  0.16083795749E-01  0.84504054195E-02  0.15126746108E-01  0.10202885896E+01  0.10200146518E+01 0.  0.
     999903    2    3    3    0    0 -0.11417601340E+00 -0.48880989460E-01  0.28053135203E-01  0.12876091295E+00  0.19154141654E-01 0.  0.
         14    1    1    2    0    0 -0.16083795749E-01 -0.84504054195E-02 -0.15126746108E-01  0.23641410391E-01  0.00000000000E+00 0. -1.
     999901    1    3    3    0    0  0.13025980915E+00  0.57331394879E-01 -0.12926389095E-01  0.89152767666E+00  0.88000000000E+00 0. -1.
        -11    1    4    4    0    0 -0.11154391765E+00 -0.47706494530E-01  0.23852943282E-01  0.12364133293E+00  0.51100000000E-03 0. -1.
         11    1    4    4    0    0 -0.26320957481E-02 -0.11744949300E-02  0.42001919209E-02  0.51195800160E-02  0.51100000000E-03 0.  1.
</event>
<event>
 8    1  0.1199892E+005  0.1043930E+01  0.7957747E-01            NaN
         13   -1    0    0    0    0  0.00000000000E+00  0.00000000000E+00  0.74505805969E-08  0.10566000000E+00  0.10566000000E+00 0. -1.
     999900   -1    0    0    0    0 -0.00000000000E+00 -0.00000000000E+00 -0.74505805969E-08  0.93827000000E+00  0.93827000000E+00 0.  1.
     999902    2    1    2    0    0 -0.10066440422E-01  0.20105234998E-01  0.79966088087E-02  0.10200658124E+01  0.10197866258E+01 0.  0.
     999903    2    3    3    0    0 -0.44214837076E-01  0.12158385184E-01  0.12211065957E+00  0.13200540793E+00  0.20288824342E-01 0.  0.
         14    1    1    2    0    0  0.10066440422E-01 -0.20105234998E-01 -0.79966088087E-02  0.23864187595E-01  0.00000000000E+00 0. -1.
     999901    1    3    3    0    0  0.34148396654E-01  0.79468498147E-02 -0.11411405076E+00  0.88806040448E+00  0.88000000000E+00 0.  1.
        -11    1    4    4    0    0 -0.10112956515E-01 -0.55483357508E-02  0.33010794947E-01  0.34971840430E-01  0.51100000000E-03 0.  1.
         11    1    4    4    0    0 -0.34101880562E-01  0.17706720935E-01  0.89099864627E-01  0.97033567499E-01  0.51100000000E-03 0. -1.
</event>
<event>
 8    1  0.1199892E+005  0.1043930E+01  0.7957747E-01            NaN
         13   -1    0    0    0    0  0.00000000000E+00  0.00000000000E+00  0.74505805969E-08  0.10566000000E+00  0.10566000000E+00 0. -1.
     999900   -1    0    0    0    0 -0.00000000000E+00 -0.00000000000E+00 -0.74505805969E-08  0.93827000000E+00  0.93827000000E+00 0.  1.
     999902    2    1    2    0    0  0.11902846307E-01  0.11213802401E-01  0.17263975439E-01  0.10201503456E+01  0.10198731567E+01 0.  0.
     999903    2    3    3    0    0  0.66328425184E-01  0.90971270380E-01  0.68039594214E-01  0.13341387925E+00  0.22240610885E-01 0.  0.
         14    1    1    2    0    0 -0.11902846307E-01 -0.11213802401E-01 -0.17263975439E-01  0.23779654381E-01  0.00000000000E+00 0.  1.
     999901    1    3    3    0    0 -0.54425578878E-01 -0.79757467979E-01 -0.50775618775E-01  0.88673646637E+00  0.88000000000E+00 0.  1.
        -11    1    4    4    0    0  0.41281207386E-01  0.37778326201E-01  0.32770843149E-01  0.64850052394E-01  0.51100000000E-03 0.  1.
         11    1    4    4    0    0  0.25047217798E-01  0.53192944179E-01  0.35268751065E-01  0.68563826852E-01  0.51100000000E-03 0. -1.
</event>
<event>
 8    1  0.1199892E+005  0.1043930E+01  0.7957747E-01            NaN
         13   -1    0    0    0    0  0.00000000000E+00  0.00000000000E+00  0.74505805969E-08  0.10566000000E+00  0.10566000000E+00 0.  1.
     999900   -1    0    0    0    0 -0.00000000000E+00 -0.00000000000E+00 -0.74505805969E-08  0.93827000000E+00  0.93827000000E+00 0.  1.
     999902    2    1    2    0    0 -0.11245978330E-01 -0.33440226589E-02  0.17399236628E-01  0.10229445776E+01  0.10227293000E+01 0.  0.
     999903    2    3    3    0    0  0.56136580926E-01 -0.10928998442E+00 -0.43748662835E-01  0.13193165871E+00  0.19909813076E-01 0.  0.
         14    1    1    2    0    0  0.11245978330E-01  0.33440226589E-02 -0.17399236628E-01  0.20985422354E-01  0.00000000000E+00 0. -1.
     999901    1    3    3    0    0 -0.67382559256E-01  0.10594596176E+00  0.61147899462E-01  0.89101291894E+00  0.88000000000E+00 0. -1.
        -11    1    4    4    0    0  0.28313715173E-01 -0.36640376039E-01 -0.11492579451E-01  0.47712934584E-01  0.51100000000E-03 0.  1.
         11    1    4    4    0    0  0.27822865753E-01 -0.72649608383E-01 -0.32256083384E-01  0.84218724124E-01  0.51100000000E-03 0. -1.
</event>
<event>
 8    1  0.1199892E+005  0.1043930E+01  0.7957747E-01            NaN
         13   -1    0    0    0    0  0.00000000000E+00  0.00000000000E+00  0.74505805969E-08  0.10566000000E+00  0.10566000000E+00 0. -1.
     999900   -1    0    0    0    0 -0.00000000000E+00 -0.00000000000E+00 -0.74505805969E-08  0.93827000000E+00  0.93827000000E+00 0.  1.
     999902    2    1    2    0    0  0.20270108937E-02  0.17270059100E-02  0.23241221095E-01  0.10205367172E+01  0.10202685654E+01 0.  0.
     999903    2    3    3    0    0 -0.53522203892E-01 -0.11377352624E+00  0.31468143349E-01  0.13121463243E+00  0.20444904911E-01 0.  0.
         14    1    1    2    0    0 -0.20270108937E-02 -0.17270059100E-02 -0.23241221095E-01  0.23393282808E-01  0.00000000000E+00 0.  1.
     999901    1    3    3    0    0  0.55549214786E-01  0.11550053215E+00 -0.82269222544E-02  0.88932208476E+00  0.88000000000E+00 0. -1.
        -11    1    4    4    0    0 -0.47749563460E-01 -0.80757212724E-01  0.24720233490E-01  0.97021128020E-01  0.51100000000E-03 0. -1.
         11    1    4    4    0    0 -0.57726404322E-02 -0.33016313513E-01  0.67479098590E-02  0.34193504413E-01  0.51100000000E-03 0.  1.
</event>
<event>
 8    1  0.1199892E+005  0.1043930E+01  0.7957747E-01            NaN
         13   -1    0    0    0    0  0.00000000000E+00  0.00000000000E+00  0.74505805969E-08  0.10566000000E+00  0.10566000000E+00 0. -1.
     999900   -1    0    0    0    0 -0.00000000000E+00 -0.00000000000E+00 -0.74505805969E-08  0.93827000000E+00  0.93827000000E+00 0.  1.
     999902    2    1    2    0    0 -0.68137266034E-02  0.64237260171E-02 -0.22022935000E-01  0.10199988322E+01  0.10197180576E+01 0.  0.
     999903    2    3    3    0    0  0.98459523913E-01  0.27323696400E-01 -0.79327723951E-01  0.13162779211E+00  0.24333631756E-01 0.  0.
         14    1    1    2    0    0  0.68137266034E-02 -0.64237260171E-02  0.22022935000E-01  0.23931167798E-01  0.00000000000E+00 0. -1.
     999901    1    3    3    0    0 -0.10527325052E+00 -0.20899970383E-01  0.57304788950E-01  0.88837104009E+00  0.88000000000E+00 0. -1.
        -11    1    4    4    0    0  0.52928261209E-01  0.29824764446E-02 -0.45860268211E-01  0.70097940924E-01  0.51100000000E-03 0.  1.
         11    1    4    4    0    0  0.45531262704E-01  0.24341219955E-01 -0.33467455739E-01  0.61529851186E-01  0.51100000000E-03 0. -1.
</event>
<event>
 8    1  0.1199892E+005  0.1043930E+01  0.7957747E-01            NaN
         13   -1    0    0    0    0  0.00000000000E+00  0.00000000000E+00  0.74505805969E-08  0.10566000000E+00  0.10566000000E+00 0. -1.
     999900   -1    0    0    0    0 -0.00000000000E+00 -0.00000000000E+00 -0.74505805969E-08  0.93827000000E+00  0.93827000000E+00 0.  1.
     999902    2    1    2    0    0  0.23057178727E-01  0.23834623144E-02  0.17900020499E-02  0.10206809465E+01  0.10204161288E+01 0.  0.
     999903    2    3    3    0    0 -0.85165185736E-01 -0.94096686107E-01  0.10105709272E-01  0.12877868152E+00  0.19352732523E-01 0.  0.
         14    1    1    2    0    0 -0.23057178727E-01 -0.23834623144E-02 -0.17900020499E-02  0.23249053546E-01  0.00000000000E+00 0.  1.
     999901    1    3    3    0    0  0.10822236446E+00  0.96480148421E-01 -0.83157072218E-02  0.89190226493E+00  0.88000000000E+00 0. -1.
        -11    1    4    4    0    0 -0.29065077657E-01 -0.19383925268E-01  0.34754498711E-02  0.35112037406E-01  0.51100000000E-03 0.  1.
         11    1    4    4    0    0 -0.56100108079E-01 -0.74712760839E-01  0.66302594006E-02  0.93666644113E-01  0.51100000000E-03 0. -1.
</event>
<event>
 8    1  0.1199892E+005  0.1043930E+01  0.7957747E-01            NaN
         13   -1    0    0    0    0  0.00000000000E+00  0.00000000000E+00  0.74505805969E-08  0.10566000000E+00  0.10566000000E+00 0.  1.
     999900   -1    0    0    0    0 -0.00000000000E+00 -0.00000000000E+00 -0.74505805969E-08  0.93827000000E+00  0.93827000000E+00 0.  1.
     999902    2    1    2    0    0 -0.10586249186E-01 -0.19234789632E-01  0.88858548645E-02  0.10202444723E+01  0.10199694991E+01 0.  0.
     999903    2    3    3    0    0  0.11574542902E+00 -0.72366523296E-02 -0.52873734094E-01  0.12899933488E+00  0.19895305137E-01 0.  0.
         14    1    1    2    0    0  0.10586249186E-01  0.19234789632E-01 -0.88858548645E-02  0.23685527664E-01  0.00000000000E+00 0. -1.
     999901    1    3    3    0    0 -0.12633167820E+00 -0.11998137303E-01  0.61759588958E-01  0.89124513746E+00  0.88000000000E+00 0. -1.
        -11    1    4    4    0    0  0.81630605709E-01 -0.11721918810E-02 -0.45873339535E-01  0.93645898059E-01  0.51100000000E-03 0. -1.
         11    1    4    4    0    0  0.34114823308E-01 -0.60644604486E-02 -0.70003945586E-02  0.35353436818E-01  0.51100000000E-03 0.  1.
</event>
<event>
 8    1  0.1199892E+005  0.1043930E+01  0.7957747E-01            NaN
         13   -1    0    0    0    0  0.00000000000E+00  0.00000000000E+00  0.74505805969E-08  0.10566000000E+00  0.10566000000E+00 0. -1.
     999900   -1    0    0    0    0 -0.00000000000E+00 -0.00000000000E+00 -0.74505805969E-08  0.93827000000E+00  0.93827000000E+00 0.  1.
     999902    2    1    2    0    0  0.16657204300E-01 -0.20590905947E-03  0.17002175656E-01  0.10201270836E+01  0.10198493456E+01 0.  0.
     999903    2    3    3    0    0 -0.30318449861E-01  0.12471747878E+00 -0.12789005554E-02  0.12987612869E+00  0.19811998928E-01 0.  0.
         14    1    1    2    0    0 -0.16657204300E-01  0.20590905947E-03 -0.17002175656E-01  0.23802916432E-01  0.00000000000E+00 0.  1.
     999901    1    3    3    0    0  0.46975654161E-01 -0.12492338784E+00  0.18281076211E-01  0.89025095488E+00  0.88000000000E+00 0. -1.
        -11    1    4    4    0    0 -0.17069051242E-01  0.46714479002E-01  0.73777410606E-02  0.50282076756E-01  0.51100000000E-03 0.  1.
         11    1    4    4    0    0 -0.13249398619E-01  0.78002999779E-01 -0.86566416160E-02  0.79594051934E-01  0.51100000000E-03 0. -1.
</event>
<event>
 8    1  0.1199892E+005  0.1043930E+01  0.7957747E-01            NaN
         13   -1    0    0    0    0  0.00000000000E+00  0.00000000000E+00  0.74505805969E-08  0.10566000000E+00  0.10566000000E+00 0.  1.
     999900   -1    0    0    0    0 -0.00000000000E+00 -0.00000000000E+00 -0.74505805969E-08  0.93827000000E+00  0.93827000000E+00 0. -1.
     999902    2    1    2    0    0  0.22115756465E-02 -0.21490587676E-01  0.88409282096E-02  0.10205869403E+01  0.10203199519E+01 0.  0.
     999903    2    3    3    0    0 -0.68666566772E-01  0.10498767025E+00 -0.18347264469E-01  0.12830914799E+00  0.19725796499E-01 0.  0.
         14    1    1    2    0    0 -0.22115756465E-02  0.21490587676E-01 -0.88409282096E-02  0.23343059720E-01  0.00000000000E+00 0. -1.
     999901    1    3    3    0    0  0.70878142418E-01 -0.12647825792E+00  0.27188192679E-01  0.89227779229E+00  0.88000000000E+00 0. -1.
        -11    1    4    4    0    0 -0.15043837036E-01  0.38095415317E-01 -0.10041352317E-01  0.42174252552E-01  0.51100000000E-03 0. -1.
         11    1    4    4    0    0 -0.53622729736E-01  0.66892254929E-01 -0.83059121519E-02  0.86134895435E-01  0.51100000000E-03 0.  1.
</event>
<event>
 8    1  0.1199892E+005  0.1043930E+01  0.7957747E-01            NaN
         13   -1    0    0    0    0  0.00000000000E+00  0.00000000000E+00  0.74505805969E-08  0.10566000000E+00  0.10566000000E+00 0. -1.
     999900   -1    0    0    0    0 -0.00000000000E+00 -0.00000000000E+00 -0.74505805969E-08  0.93827000000E+00  0.93827000000E+00 0.  1.
     999902    2    1    2    0    0 -0.28379657297E-02  0.20931011307E-02  0.23633494789E-01  0.10200348708E+01  0.10197549512E+01 0.  0.
     999903    2    3    3    0    0  0.75117285976E-01 -0.43359751612E-01  0.98004031468E-01  0.13229957255E+00  0.19383291816E-01 0.  0.
         14    1    1    2    0    0  0.28379657297E-02 -0.20931011307E-02 -0.23633494789E-01  0.23895129164E-01  0.00000000000E+00 0.  1.
     999901    1    3    3    0    0 -0.77955251706E-01  0.45452852743E-01 -0.74370536680E-01  0.88773529828E+00  0.88000000000E+00 0.  1.
        -11    1    4    4    0    0  0.69307669027E-01 -0.34314951194E-01  0.79629594526E-01  0.11100541566E+00  0.51100000000E-03 0. -1.
         11    1    4    4    0    0  0.58096169489E-02 -0.90448004178E-02  0.18374436942E-01  0.21294156889E-01  0.51100000000E-03 0.  1.
</event>
<event>
 8    1  0.1199892E+005  0.1043930E+01  0.7957747E-01            NaN
         13   -1    0    0    0    0  0.00000000000E+00  0.00000000000E+00  0.74505805969E-08  0.10566000000E+00  0.10566000000E+00 0.  1.
     999900   -1    0    0    0    0 -0.00000000000E+00 -0.00000000000E+00 -0.74505805969E-08  0.93827000000E+00  0.93827000000E+00 0. -1.
     999902    2    1    2    0    0 -0.10820563401E-01 -0.13933393390E-01 -0.15487295265E-01  0.10204548992E+01  0.10201848464E+01 0.  0.
     999903    2    3    3    0    0  0.26174026596E-01  0.10654038208E+00  0.62550617964E-01  0.12805787646E+00  0.21220443757E-01 0.  0.
         14    1    1    2    0    0  0.10820563401E-01  0.13933393390E-01  0.15487295265E-01  0.23475100815E-01  0.00000000000E+00 0.  1.
     999901    1    3    3    0    0 -0.36994589997E-01 -0.12047377547E+00 -0.78037913229E-01  0.89239702272E+00  0.88000000000E+00 0.  1.
        -11    1    4    4    0    0  0.25798369472E-01  0.87430020787E-01  0.59067710268E-01  0.10862237302E+00  0.51100000000E-03 0.  1.
         11    1    4    4    0    0  0.37565712361E-03  0.19110361296E-01  0.34829076961E-02  0.19435503445E-01  0.51100000000E-03 0. -1.
</event>
<event>
 8    1  0.1199892E+005  0.1043930E+01  0.7957747E-01            NaN
         13   -1    0    0    0    0  0.00000000000E+00  0.00000000000E+00  0.74505805969E-08  0.10566000000E+00  0.10566000000E+00 0.  1.
     999900   -1    0    0    0    0 -0.00000000000E+00 -0.00000000000E+00 -0.74505805969E-08  0.93827000000E+00  0.93827000000E+00 0. -1.
     999902    2    1    2    0    0 -0.12277102385E-01 -0.19849462024E-01 -0.24432090828E-01  0.10101416078E+01  0.10095763529E+01 0.  0.
     999903    2    3    3    0    0  0.10240296965E+00  0.57171560593E-01 -0.67691040014E-02  0.11918945535E+00  0.20133304849E-01 0.  0.
         14    1    1    2    0    0  0.12277102385E-01  0.19849462024E-01  0.24432090828E-01  0.33788392205E-01  0.00000000000E+00 0.  1.
     999901    1    3    3    0    0 -0.11468007203E+00 -0.77021022617E-01 -0.17662986826E-01  0.89095215245E+00  0.88000000000E+00 0.  1.
        -11    1    4    4    0    0  0.39856028093E-01  0.14026730658E-01  0.39999317489E-02  0.42444230742E-01  0.51100000000E-03 0.  1.
         11    1    4    4    0    0  0.62546941553E-01  0.43144829935E-01 -0.10769035750E-01  0.76745224606E-01  0.51100000000E-03 0. -1.
</event>
<event>
 8    1  0.1199892E+005  0.1043930E+01  0.7957747E-01            NaN
         13   -1    0    0    0    0  0.00000000000E+00  0.00000000000E+00  0.74505805969E-08  0.10566000000E+00  0.10566000000E+00 0. -1.
     999900   -1    0    0    0    0 -0.00000000000E+00 -0.00000000000E+00 -0.74505805969E-08  0.93827000000E+00  0.93827000000E+00 0. -1.
     999902    2    1    2    0    0  0.16795366649E-01 -0.12012173627E-01 -0.75108124467E-03  0.10232674547E+01  0.10230588170E+01 0.  0.
     999903    2    3    3    0    0  0.12789635035E+00 -0.42464435626E-01  0.47065224253E-02  0.13574249487E+00  0.15593871746E-01 0.  0.
         14    1    1    2    0    0 -0.16795366649E-01  0.12012173627E-01  0.75108124467E-03  0.20662545321E-01  0.00000000000E+00 0.  1.
     999901    1    3    3    0    0 -0.11110098370E+00  0.30452261999E-01 -0.54576036700E-02  0.88752495981E+00  0.88000000000E+00 0. -1.
        -11    1    4    4    0    0  0.99456098147E-01 -0.32849515406E-01 -0.28486624250E-02  0.10478063810E+00  0.51100000000E-03 0.  1.
         11    1    4    4    0    0  0.28440252200E-01 -0.96149202202E-02  0.75551848504E-02  0.30961856779E-01  0.51100000000E-03 0. -1.
</event>
<event>
 8    1  0.1199892E+005  0.1043930E+01  0.7957747E-01            NaN
         13   -1    0    0    0    0  0.00000000000E+00  0.00000000000E+00  0.74505805969E-08  0.10566000000E+00  0.10566000000E+00 0. -1.
     999900   -1    0    0    0    0 -0.00000000000E+00 -0.00000000000E+00 -0.74505805969E-08  0.93827000000E+00  0.93827000000E+00 0. -1.
     999902    2    1    2    0    0 -0.19689027608E-01  0.90066530446E-02  0.95483502270E-02  0.10202667669E+01  0.10199923172E+01 0.  0.
     999903    2    3    3    0    0  0.30316866963E-01  0.87568965268E-01  0.91103736687E-01  0.13160265296E+00  0.20782957638E-01 0.  0.
         14    1    1    2    0    0  0.19689027608E-01 -0.90066530446E-02 -0.95483502270E-02  0.23663233069E-01  0.00000000000E+00 0. -1.
     999901    1    3    3    0    0 -0.50005894570E-01 -0.78562312223E-01 -0.81555386460E-01  0.88866411397E+00  0.88000000000E+00 0. -1.
        -11    1    4    4    0    0  0.15770795978E-01  0.61784645707E-01  0.50459763335E-01  0.81317336944E-01  0.51100000000E-03 0.  1.
         11    1    4    4    0    0  0.14546070984E-01  0.25784319561E-01  0.40643973352E-01  0.50285316019E-01  0.51100000000E-03 0. -1.
</event>
<event>
 8    1  0.1199892E+005  0.1043930E+01  0.7957747E-01            NaN
         13   -1    0    0    0    0  0.00000000000E+00  0.00000000000E+00  0.74505805969E-08  0.10566000000E+00  0.10566000000E+00 0.  1.
     999900   -1    0    0    0    0 -0.00000000000E+00 -0.00000000000E+00 -0.74505805969E-08  0.93827000000E+00  0.93827000000E+00 0.  1.
     999902    2    1    2    0    0 -0.15588976352E-01 -0.17005942239E-01 -0.77310823580E-02  0.10195991987E+01  0.10193088532E+01 0.  0.
     999903    2    3    3    0    0  0.56263227698E-01  0.10420330326E+00 -0.43129989325E-01  0.12768692558E+00  0.20490870731E-01 0.  0.
         14    1    1    2    0    0  0.15588976352E-01  0.17005942239E-01  0.77310823580E-02  0.24330801252E-01  0.00000000000E+00 0. -1.
     999901    1    3    3    0    0 -0.71852204049E-01 -0.12120924550E+00  0.35398906967E-01  0.89191227317E+00  0.88000000000E+00 0. -1.
        -11    1    4    4    0    0  0.22655248021E-01  0.39484836682E-01 -0.62085910197E-02  0.45946929322E-01  0.51100000000E-03 0.  1.
         11    1    4    4    0    0  0.33607979676E-01  0.64718466575E-01 -0.36921398306E-01  0.81739996254E-01  0.51100000000E-03 0. -1.
</event>
<event>
 8    1  0.1199892E+005  0.1043930E+01  0.7957747E-01            NaN
         13   -1    0    0    0    0  0.00000000000E+00  0.00000000000E+00  0.74505805969E-08  0.10566000000E+00  0.10566000000E+00 0. -1.
     999900   -1    0    0    0    0 -0.00000000000E+00 -0.00000000000E+00 -0.74505805969E-08  0.93827000000E+00  0.93827000000E+00 0.  1.
     999902    2    1    2    0    0  0.10448555853E-01  0.13227001747E-01  0.18452525814E-01  0.10189375691E+01  0.10186310166E+01 0.  0.
     999903    2    3    3    0    0 -0.47573665207E-01  0.17559090747E-01 -0.11473115815E+00  0.12701647458E+00  0.19959230354E-01 0.  0.
         14    1    1    2    0    0 -0.10448555853E-01 -0.13227001747E-01 -0.18452525814E-01  0.24992430925E-01  0.00000000000E+00 0.  1.
     999901    1    3    3    0    0  0.58022221060E-01 -0.43320890003E-02  0.13318368396E+00  0.89192109449E+00  0.88000000000E+00 0. -1.
        -11    1    4    4    0    0 -0.79622074307E-02  0.10155418878E-01 -0.41054886623E-01  0.43038286634E-01  0.51100000000E-03 0.  1.
         11    1    4    4    0    0 -0.39611457776E-01  0.74036718689E-02 -0.73676271522E-01  0.83978187946E-01  0.51100000000E-03 0. -1.
</event>
<event>
 8    1  0.1199892E+005  0.1043930E+01  0.7957747E-01            NaN
         13   -1    0    0    0    0  0.00000000000E+00  0.00000000000E+00  0.74505805969E-08  0.10566000000E+00  0.10566000000E+00 0. -1.
     999900   -1    0    0    0    0 -0.00000000000E+00 -0.00000000000E+00 -0.74505805969E-08  0.93827000000E+00  0.93827000000E+00 0.  1.
     999902    2    1    2    0    0 -0.10101173426E-01 -0.20855811751E-01  0.18123739343E-02  0.10206860053E+01  0.10204213043E+01 0.  0.
     999903    2    3    3    0    0  0.11034753097E+00 -0.65217437925E-01  0.19614515597E-01  0.13119583647E+00  0.19943081116E-01 0.  0.
         14    1    1    2    0    0  0.10101173426E-01  0.20855811751E-01 -0.18123739343E-02  0.23243994658E-01  0.00000000000E+00 0. -1.
     999901    1    3    3    0    0 -0.12044870440E+00  0.44361626174E-01 -0.17802141662E-01  0.88949016887E+00  0.88000000000E+00 0.  1.
        -11    1    4    4    0    0  0.10163756591E+00 -0.59255390483E-01  0.23429569324E-01  0.11996083505E+00  0.51100000000E-03 0. -1.
         11    1    4    4    0    0  0.87099650587E-02 -0.59620474428E-02 -0.38150537272E-02  0.11235001423E-01  0.51100000000E-03 0.  1.
</event>
<event>
 8    1  0.1199892E+005  0.1043930E+01  0.7957747E-01            NaN
         13   -1    0    0    0    0  0.00000000000E+00  0.00000000000E+00  0.74505805969E-08  0.10566000000E+00  0.10566000000E+00 0. -1.
     999900   -1    0    0    0    0 -0.00000000000E+00 -0.00000000000E+00 -0.74505805969E-08  0.93827000000E+00  0.93827000000E+00 0. -1.
     999902    2    1    2    0    0  0.15323566388E-01  0.15673135671E-01 -0.28663743481E-03  0.10220087539E+01  0.10217736305E+01 0.  0.
     999903    2    3    3    0    0  0.47134027369E-01  0.12326802523E+00  0.17011797064E-01  0.13471635481E+00  0.21035028750E-01 0.  0.
         14    1    1    2    0    0 -0.15323566388E-01 -0.15673135671E-01  0.28663743481E-03  0.21921246079E-01  0.00000000000E+00 0. -1.
     999901    1    3    3    0    0 -0.31810460980E-01 -0.10759488956E+00 -0.17298434498E-01  0.88729239911E+00  0.88000000000E+00 0.  1.
        -11    1    4    4    0    0  0.49914990433E-02  0.75332697568E-02  0.64099711481E-02  0.11091170680E-01  0.51100000000E-03 0.  1.
         11    1    4    4    0    0  0.42142528325E-01  0.11573475547E+00  0.10601825915E-01  0.12362518413E+00  0.51100000000E-03 0. -1.
</event>
<event>
 8    1  0.1199892E+005  0.1043930E+01  0.7957747E-01            NaN
         13   -1    0    0    0    0  0.00000000000E+00  0.00000000000E+00  0.74505805969E-08  0.10566000000E+00  0.10566000000E+00 0.  1.
     999900   -1    0    0    0    0 -0.00000000000E+00 -0.00000000000E+00 -0.74505805969E-08  0.93827000000E+00  0.93827000000E+00 0.  1.
     999902    2    1    2    0    0  0.23446025506E-01  0.11642449752E-03  0.27875956789E-02  0.10203185545E+01  0.10200453188E+01 0.  0.
     999903    2    3    3    0    0  0.26722090173E-01  0.10618713845E-02  0.12732556490E+00  0.13154336799E+00  0.19407743586E-01 0.  0.
         14    1    1    2    0    0 -0.23446025506E-01 -0.11642449752E-03 -0.27875956789E-02  0.23611445452E-01  0.00000000000E+00 0.  1.
     999901    1    3    3    0    0 -0.32760646672E-02 -0.94544688694E-03 -0.12453796922E+00  0.88877518656E+00  0.88000000000E+00 0.  1.
        -11    1    4    4    0    0  0.74185001219E-02 -0.65477095434E-02  0.21118475286E-01  0.23327189366E-01  0.51100000000E-03 0.  1.
         11    1    4    4    0    0  0.19303590051E-01  0.76095809279E-02  0.10620708961E+00  0.10821617862E+00  0.51100000000E-03 0. -1.
</event>
<event>
 8    1  0.1199892E+005  0.1043930E+01  0.7957747E-01            NaN
         13   -1    0    0    0    0  0.00000000000E+00  0.00000000000E+00  0.74505805969E-08  0.10566000000E+00  0.10566000000E+00 0. -1.
     999900   -1    0    0    0    0 -0.00000000000E+00 -0.00000000000E+00 -0.74505805969E-08  0.93827000000E+00  0.93827000000E+00 0.  1.
     999902    2    1    2    0    0  0.22085494297E-01 -0.93204012785E-02 -0.26313670925E-02  0.10198143820E+01  0.10195292103E+01 0.  0.
     999903    2    3    3    0    0 -0.83467122541E-01  0.14730681845E-01  0.93742622073E-01  0.12795802849E+00  0.20045556349E-01 0.  0.
         14    1    1    2    0    0 -0.22085494297E-01  0.93204012785E-02  0.26313670925E-02  0.24115617992E-01  0.00000000000E+00 0. -1.
     999901    1    3    3    0    0  0.10555261684E+00 -0.24051083123E-01 -0.96373989166E-01  0.89185635352E+00  0.88000000000E+00 0.  1.
        -11    1    4    4    0    0 -0.32970078979E-01  0.12681733943E-01  0.49329790460E-01  0.60675710392E-01  0.51100000000E-03 0.  1.
         11    1    4    4    0    0 -0.50497043562E-01  0.20489479021E-02  0.44412831613E-01  0.67282318100E-01  0.51100000000E-03 0. -1.
</event>
<event>
 8    1  0.1199892E+005  0.1043930E+01  0.7957747E-01            NaN
         13   -1    0    0    0    0  0.00000000000E+00  0.00000000000E+00  0.74505805969E-08  0.10566000000E+00  0.10566000000E+00 0. -1.
     999900   -1    0    0    0    0 -0.00000000000E+00 -0.00000000000E+00 -0.74505805969E-08  0.93827000000E+00  0.93827000000E+00 0. -1.
     999902    2    1    2    0    0  0.15511696146E-01  0.13155163837E-01 -0.96624072080E-02  0.10214126030E+01  0.10211643709E+01 0.  0.
     999903    2    3    3    0    0  0.83427937451E-01  0.41681599304E-01 -0.94636802829E-01  0.13425589689E+00  0.19259930738E-01 0.  0.
         14    1    1    2    0    0 -0.15511696146E-01 -0.13155163837E-01  0.96624072080E-02  0.22517396962E-01  0.00000000000E+00 0. -1.
     999901    1    3    3    0    0 -0.67916241306E-01 -0.28526435467E-01  0.84974395621E-01  0.88715670615E+00  0.88000000000E+00 0.  1.
        -11    1    4    4    0    0  0.55972090396E-01  0.28357563148E-01 -0.50256186326E-01  0.80392609586E-01  0.51100000000E-03 0. -1.
         11    1    4    4    0    0  0.27455847056E-01  0.13324036156E-01 -0.44380616502E-01  0.53863287304E-01  0.51100000000E-03 0.  1.
</event>
<event>
 8    1  0.1199892E+005  0.1043930E+01  0.7957747E-01            NaN
         13   -1    0    0    0    0  0.00000000000E+00  0.00000000000E+00  0.74505805969E-08  0.10566000000E+00  0.10566000000E+00 0.  1.
     999900   -1    0    0    0    0 -0.00000000000E+00 -0.00000000000E+00 -0.74505805969E-08  0.93827000000E+00  0.93827000000E+00 0.  1.
     999902    2    1    2    0    0  0.21362990797E-02  0.45236245786E-02  0.23637125802E-01  0.10197692742E+01  0.10194830219E+01 0.  0.
     999903    2    3    3    0    0  0.22436152935E-01 -0.69417940015E-01  0.10863504858E+00  0.13235500462E+00  0.19850494059E-01 0.  0.
         14    1    1    2    0    0 -0.21362990797E-02 -0.45236245786E-02 -0.23637125802E-01  0.24160725760E-01  0.00000000000E+00 0. -1.
     999901    1    3    3    0    0 -0.20299853855E-01  0.73941564594E-01 -0.84997922779E-01  0.88741426962E+00  0.88000000000E+00 0.  1.
        -11    1    4    4    0    0  0.18859002718E-01 -0.37224451078E-01  0.47972024615E-01  0.63583787307E-01  0.51100000000E-03 0. -1.
         11    1    4    4    0    0  0.35771502163E-02 -0.32193488937E-01  0.60663023966E-01  0.68771217317E-01  0.51100000000E-03 0.  1.
</event>
<event>
 8    1  0.1199892E+005  0.1043930E+01  0.7957747E-01            NaN
         13   -1    0    0    0    0  0.00000000000E+00  0.00000000000E+00  0.74505805969E-08  0.10566000000E+00  0.10566000000E+00 0. -1.
     999900   -1    0    0    0    0 -0.00000000000E+00 -0.00000000000E+00 -0.74505805969E-08  0.93827000000E+00  0.93827000000E+00 0. -1.
     999902    2    1    2    0    0 -0.13986128503E-01  0.10193129191E-01 -0.26643960328E-01  0.10121587505E+01  0.10116599843E+01 0.  0.
     999903    2    3    3    0    0  0.97171696499E-01  0.13702843250E-01 -0.73012917369E-01  0.12394793074E+00  0.20052354432E-01 0.  0.
         14    1    1    2    0    0  0.13986128503E-01 -0.10193129191E-01  0.26643960328E-01  0.31771249506E-01  0.00000000000E+00 0.  1.
     999901    1    3    3    0    0 -0.11115782500E+00 -0.35097140589E-02  0.46368957042E-01  0.88821081975E+00  0.88000000000E+00 0.  1.
        -11    1    4    4    0    0  0.34962388677E-01  0.12150140953E-01 -0.35480825419E-01  0.51275185427E-01  0.51100000000E-03 0.  1.
         11    1    4    4    0    0  0.62209307822E-01  0.15527022969E-02 -0.37532091951E-01  0.72672745313E-01  0.51100000000E-03 0. -1.
</event>
<event>
 8    1  0.1199892E+005  0.1043930E+01  0.7957747E-01            NaN
         13   -1    0    0    0    0  0.00000000000E+00  0.00000000000E+00  0.74505805969E-08  0.10566000000E+00  0.10566000000E+00 0.  1.
     999900   -1    0    0    0    0 -0.00000000000E+00 -0.00000000000E+00 -0.74505805969E-08  0.93827000000E+00  0.93827000000E+00 0.  1.
     999902    2    1    2    0    0 -0.13331308906E-01  0.53725959382E-02  0.18202729696E-01  0.10207367261E+01  0.10204731923E+01 0.  0.
     999903    2    3    3    0    0 -0.61296855121E-01 -0.11238870282E+00  0.24077374842E-01  0.13157817528E+00  0.18562630735E-01 0.  0.
         14    1    1    2    0    0  0.13331308906E-01 -0.53725959382E-02 -0.18202729696E-01  0.23193273866E-01  0.00000000000E+00 0. -1.
     999901    1    3    3    0    0  0.47965546215E-01  0.11776129876E+00 -0.58746451458E-02  0.88915855086E+00  0.88000000000E+00 0.  1.
        -11    1    4    4    0    0 -0.16503998817E-01 -0.48142135022E-01  0.12476588164E-01  0.52402037314E-01  0.51100000000E-03 0.  1.
         11    1    4    4    0    0 -0.44792856305E-01 -0.64246567799E-01  0.11600786678E-01  0.79176137961E-01  0.51100000000E-03 0. -1.
</event>
<event>
 8    1  0.1199892E+005  0.1043930E+01  0.7957747E-01            NaN
         13   -1    0    0    0    0  0.00000000000E+00  0.00000000000E+00  0.74505805969E-08  0.10566000000E+00  0.10566000000E+00 0.  1.
     999900   -1    0    0    0    0 -0.00000000000E+00 -0.00000000000E+00 -0.74505805969E-08  0.93827000000E+00  0.93827000000E+00 0.  1.
     999902    2    1    2    0    0 -0.13222972944E-01  0.17810872550E-01 -0.73013809341E-02  0.10205765343E+01  0.10203093051E+01 0.  0.
     999903    2    3    3    0    0  0.86310505431E-01  0.97060672882E-01 -0.66194697559E-02  0.13142642937E+00  0.18942317441E-01 0.  0.
         14    1    1    2    0    0  0.13222972944E-01 -0.17810872550E-01  0.73013809341E-02  0.23353465654E-01  0.00000000000E+00 0.  1.
     999901    1    3    3    0    0 -0.99533478375E-01 -0.79249800331E-01 -0.68191117825E-03  0.88915010497E+00  0.88000000000E+00 0.  1.
        -11    1    4    4    0    0  0.44810664505E-01  0.64132118331E-01 -0.55871876702E-02  0.78437249073E-01  0.51100000000E-03 0. -1.
         11    1    4    4    0    0  0.41499840926E-01  0.32928554550E-01 -0.10322820857E-02  0.52989180300E-01  0.51100000000E-03 0.  1.
</event>
<event>
 8    1  0.1199892E+005  0.1043930E+01  0.7957747E-01            NaN
         13   -1    0    0    0    0  0.00000000000E+00  0.00000000000E+00  0.74505805969E-08  0.10566000000E+00  0.10566000000E+00 0.  1.
     999900   -1    0    0    0    0 -0.00000000000E+00 -0.00000000000E+00 -0.74505805969E-08  0.93827000000E+00  0.93827000000E+00 0. -1.
     999902    2    1    2    0    0  0.64468475916E-03  0.10622594115E-01 -0.22358666908E-01  0.10191678291E+01  0.10188669681E+01 0.  0.
     999903    2    3    3    0    0  0.70105773850E-01 -0.10598757474E+00 -0.35883542024E-02  0.12856404565E+00  0.19174254123E-01 0.  0.
         14    1    1    2    0    0 -0.64468475916E-03 -0.10622594115E-01  0.22358666908E-01  0.24762170948E-01  0.00000000000E+00 0.  1.
     999901    1    3    3    0    0 -0.69461089091E-01  0.11661016885E+00 -0.18770312705E-01  0.89060378341E+00  0.88000000000E+00 0. -1.
        -11    1    4    4    0    0  0.36610511633E-01 -0.45148027910E-01  0.60640416566E-02  0.58444056228E-01  0.51100000000E-03 0. -1.
         11    1    4    4    0    0  0.33495262217E-01 -0.60839546828E-01 -0.96523958590E-02  0.70119989418E-01  0.51100000000E-03 0.  1.
</event>
<event>
 8    1  0.1199892E+005  0.1043930E+01  0.7957747E-01            NaN
         13   -1    0    0    0    0  0.00000000000E+00  0.00000000000E+00  0.74505805969E-08  0.10566000000E+00  0.10566000000E+00 0.  1.
     999900   -1    0    0    0    0 -0.00000000000E+00 -0.00000000000E+00 -0.74505805969E-08  0.93827000000E+00  0.93827000000E+00 0. -1.
     999902    2    1    2    0    0  0.89440749889E-02 -0.10415935410E-01 -0.19301679837E-01  0.10202436530E+01  0.10199686606E+01 0.  0.
     999903    2    3    3    0    0  0.13810935377E-01  0.12495175573E+00  0.20472028930E-01  0.12899169874E+00  0.20397822857E-01 0.  0.
         14    1    1    2    0    0 -0.89440749889E-02  0.10415935410E-01  0.19301679837E-01  0.23686346962E-01  0.00000000000E+00 0.  1.
     999901    1    3    3    0    0 -0.48668603886E-02 -0.13536769114E+00 -0.39773708768E-01  0.89125195430E+00  0.88000000000E+00 0.  1.
        -11    1    4    4    0    0  0.11476006991E-01  0.37581103193E-01  0.12442424923E-01  0.41220299764E-01  0.51100000000E-03 0.  1.
         11    1    4    4    0    0  0.23349283862E-02  0.87370652542E-01  0.80296040074E-02  0.87771398973E-01  0.51100000000E-03 0. -1.
</event>
<event>
 8    1  0.1199892E+005  0.1043930E+01  0.7957747E-01            NaN
         13   -1    0    0    0    0  0.00000000000E+00  0.00000000000E+00  0.74505805969E-08  0.10566000000E+00  0.10566000000E+00 0.  1.
     999900   -1    0    0    0    0 -0.00000000000E+00 -0.00000000000E+00 -0.74505805969E-08  0.93827000000E+00  0.93827000000E+00 0. -1.
     999902    2    1    2    0    0  0.20204666772E-01 -0.12849070391E-01  0.99427003598E-03  0.10199651144E+01  0.10196835386E+01 0.  0.
     999903    2    3    3    0    0 -0.16279325491E-01  0.67778100497E-01 -0.10665955150E+00  0.12899869097E+00  0.20137402990E-01 0.  0.
         14    1    1    2    0    0 -0.20204666772E-01  0.12849070391E-01 -0.99427003598E-03  0.23964885607E-01  0.00000000000E+00 0. -1.
     999901    1    3    3    0    0  0.36483992263E-01 -0.80627170888E-01  0.10765382154E+00  0.89096642342E+00  0.88000000000E+00 0.  1.
        -11    1    4    4    0    0 -0.15353260526E-01  0.64455544524E-01 -0.88771697957E-01  0.11077416354E+00  0.51100000000E-03 0. -1.
         11    1    4    4    0    0 -0.92606496525E-03  0.33225559733E-02 -0.17887853547E-01  0.18224527429E-01  0.51100000000E-03 0.  1.
</event>
<event>
 8    1  0.1199892E+005  0.1043930E+01  0.7957747E-01            NaN
         13   -1    0    0    0    0  0.00000000000E+00  0.00000000000E+00  0.74505805969E-08  0.10566000000E+00  0.10566000000E+00 0. -1.
     999900   -1    0    0    0    0 -0.00000000000E+00 -0.00000000000E+00 -0.74505805969E-08  0.93827000000E+00  0.93827000000E+00 0.  1.
     999902    2    1    2    0    0  0.76054821763E-02 -0.20820995730E-01 -0.86808195026E-02  0.10201242476E+01  0.10198464427E+01 0.  0.
     999903    2    3    3    0    0 -0.57823687130E-01  0.92006247837E-01  0.64095767640E-01  0.12753957665E+00  0.18690846676E-01 0.  0.
         14    1    1    2    0    0 -0.76054821763E-02  0.20820995730E-01  0.86808195026E-02  0.23805752447E-01  0.00000000000E+00 0. -1.
     999901    1    3    3    0    0  0.65429169306E-01 -0.11282724357E+00 -0.72776587142E-01  0.89258467090E+00  0.88000000000E+00 0.  1.
        -11    1    4    4    0    0 -0.26168785021E-01  0.44320741534E-01  0.19744185000E-01  0.55129188294E-01  0.51100000000E-03 0. -1.
         11    1    4    4    0    0 -0.31654902109E-01  0.47685506303E-01  0.44351582639E-01  0.72410388360E-01  0.51100000000E-03 0.  1.
</event>
<event>
 8    1  0.1199892E+005  0.1043930E+01  0.7957747E-01            NaN
         13   -1    0    0    0    0  0.00000000000E+00  0.00000000000E+00  0.74505805969E-08  0.10566000000E+00  0.10566000000E+00 0.  1.
     999900   -1    0    0    0    0 -0.00000000000E+00 -0.00000000000E+00 -0.74505805969E-08  0.93827000000E+00  0.93827000000E+00 0. -1.
     999902    2    1    2    0    0 -0.10595942751E-01 -0.13155240063E-01 -0.16624500081E-01  0.10202296129E+01  0.10199542905E+01 0.  0.
     999903    2    3    3    0    0  0.27421476690E-01  0.10008840340E-01  0.12302149720E+00  0.12810691770E+00  0.20615026574E-01 0.  0.
         14    1    1    2    0    0  0.10595942751E-01  0.13155240063E-01  0.16624500081E-01  0.23700387061E-01  0.00000000000E+00 0.  1.
     999901    1    3    3    0    0 -0.38017419441E-01 -0.23164080403E-01 -0.13964599728E+00  0.89212269524E+00  0.88000000000E+00 0. -1.
        -11    1    4    4    0    0 -0.18634928847E-03  0.62862221183E-02  0.11085952197E-01  0.12755813250E-01  0.51100000000E-03 0. -1.
         11    1    4    4    0    0  0.27607825978E-01  0.37226182213E-02  0.11193554500E+00  0.11535110445E+00  0.51100000000E-03 0.  1.
</event>
<event>
 8    1  0.1199892E+005  0.1043930E+01  0.7957747E-01            NaN
         13   -1    0    0    0    0  0.00000000000E+00  0.00000000000E+00  0.74505805969E-08  0.10566000000E+00  0.10566000000E+00 0. -1.
     999900   -1    0    0    0    0 -0.00000000000E+00 -0.00000000000E+00 -0.74505805969E-08  0.93827000000E+00  0.93827000000E+00 0. -1.
     999902    2    1    2    0    0  0.17572577848E-01  0.42211188652E-02 -0.17947748472E-01  0.10184597230E+01  0.10181411849E+01 0.  0.
     999903    2    3    3    0    0 -0.57112225245E-01  0.11321639793E+00 -0.71529090453E-02  0.12853033295E+00  0.19726209639E-01 0.  0.
         14    1    1    2    0    0 -0.17572577848E-01 -0.42211188652E-02  0.17947748472E-01  0.25470277029E-01  0.00000000000E+00 0. -1.
     999901    1    3    3    0    0  0.74684803093E-01 -0.10899527907E+00 -0.10794839427E-01  0.88992939002E+00  0.88000000000E+00 0. -1.
        -11    1    4    4    0    0 -0.28039696156E-01  0.67197670841E-01  0.41535148364E-02  0.72933286869E-01  0.51100000000E-03 0. -1.
         11    1    4    4    0    0 -0.29072529089E-01  0.46018727090E-01 -0.11306423882E-01  0.55597046078E-01  0.51100000000E-03 0.  1.
</event>
<event>
 8    1  0.1199892E+005  0.1043930E+01  0.7957747E-01            NaN
         13   -1    0    0    0    0  0.00000000000E+00  0.00000000000E+00  0.74505805969E-08  0.10566000000E+00  0.10566000000E+00 0.  1.
     999900   -1    0    0    0    0 -0.00000000000E+00 -0.00000000000E+00 -0.74505805969E-08  0.93827000000E+00  0.93827000000E+00 0. -1.
     999902    2    1    2    0    0  0.14600980504E-01 -0.63726401090E-02 -0.17913309267E-01  0.10199573943E+01  0.10196756349E+01 0.  0.
     999903    2    3    3    0    0  0.66428769536E-01 -0.11235120856E+00 -0.54275233906E-03  0.13191498941E+00  0.19123136873E-01 0.  0.
         14    1    1    2    0    0 -0.14600980504E-01  0.63726401090E-02  0.17913309267E-01  0.23972605668E-01  0.00000000000E+00 0.  1.
     999901    1    3    3    0    0 -0.51827789032E-01  0.10597856845E+00 -0.17370556928E-01  0.88804240492E+00  0.88000000000E+00 0. -1.
        -11    1    4    4    0    0  0.36871002237E-01 -0.69773141800E-01  0.82209932385E-02  0.79344867342E-01  0.51100000000E-03 0.  1.
         11    1    4    4    0    0  0.29557767299E-01 -0.42578066762E-01 -0.87637455776E-02  0.52570122070E-01  0.51100000000E-03 0. -1.
</event>
<event>
 8    1  0.1199892E+005  0.1043930E+01  0.7957747E-01            NaN
         13   -1    0    0    0    0  0.00000000000E+00  0.00000000000E+00  0.74505805969E-08  0.10566000000E+00  0.10566000000E+00 0. -1.
     999900   -1    0    0    0    0 -0.00000000000E+00 -0.00000000000E+00 -0.74505805969E-08  0.93827000000E+00  0.93827000000E+00 0.  1.
     999902    2    1    2    0    0 -0.67793469716E-02 -0.14847291454E-01 -0.17378375705E-01  0.10200886588E+01  0.10198100128E+01 0.  0.
     999903    2    3    3    0    0 -0.17888389738E-01 -0.79727092529E-02  0.12548714525E+00  0.12847146077E+00  0.19347713841E-01 0.  0.
         14    1    1    2    0    0  0.67793469716E-02  0.14847291454E-01  0.17378375705E-01  0.23841341217E-01  0.00000000000E+00 0. -1.
     999901    1    3    3    0    0  0.11109042766E-01 -0.68745822008E-02 -0.14286552095E+00  0.89161719801E+00  0.88000000000E+00 0.  1.
        -11    1    4    4    0    0 -0.20396870743E-01 -0.11263007626E-01  0.10919859763E+00  0.11165788159E+00  0.51100000000E-03 0. -1.
         11    1    4    4    0    0  0.25084810050E-02  0.32902983730E-02  0.16288547618E-01  0.16813579180E-01  0.51100000000E-03 0.  1.
</event>
<event>
 8    1  0.1199892E+005  0.1043930E+01  0.7957747E-01            NaN
         13   -1    0    0    0    0  0.00000000000E+00  0.00000000000E+00  0.74505805969E-08  0.10566000000E+00  0.10566000000E+00 0.  1.
     999900   -1    0    0    0    0 -0.00000000000E+00 -0.00000000000E+00 -0.74505805969E-08  0.93827000000E+00  0.93827000000E+00 0. -1.
     999902    2    1    2    0    0 -0.59054895486E-02  0.10624676311E-01  0.20165254910E-01  0.10203843834E+01  0.10201126869E+01 0.  0.
     999903    2    3    3    0    0 -0.18102957077E-01  0.38302030999E-01 -0.11986651876E+00  0.12879943975E+00  0.20653104577E-01 0.  0.
         14    1    1    2    0    0  0.59054895486E-02 -0.10624676311E-01 -0.20165254910E-01  0.23545616558E-01  0.00000000000E+00 0. -1.
     999901    1    3    3    0    0  0.12197467528E-01 -0.27677354688E-01  0.14003177367E+00  0.89158494369E+00  0.88000000000E+00 0.  1.
        -11    1    4    4    0    0 -0.18279315088E-01  0.22462330266E-01 -0.56634820652E-01  0.63611741623E-01  0.51100000000E-03 0.  1.
         11    1    4    4    0    0  0.17635801128E-03  0.15839700733E-01 -0.63231698103E-01  0.65187698130E-01  0.51100000000E-03 0. -1.
</event>
<event>
 8    1  0.1199892E+005  0.1043930E+01  0.7957747E-01            NaN
         13   -1    0    0    0    0  0.00000000000E+00  0.00000000000E+00  0.74505805969E-08  0.10566000000E+00  0.10566000000E+00 0. -1.
     999900   -1    0    0    0    0 -0.00000000000E+00 -0.00000000000E+00 -0.74505805969E-08  0.93827000000E+00  0.93827000000E+00 0.  1.
     999902    2    1    2    0    0  0.22297276652E-01 -0.73157030586E-02 -0.48551011082E-02  0.10199662761E+01  0.10196847279E+01 0.  0.
     999903    2    3    3    0    0  0.57208747789E-02  0.11692234213E+00  0.51235223195E-01  0.12931707833E+00  0.19856891875E-01 0.  0.
         14    1    1    2    0    0 -0.22297276652E-01  0.73157030586E-02  0.48551011082E-02  0.23963723920E-01  0.00000000000E+00 0. -1.
     999901    1    3    3    0    0  0.16576401873E-01 -0.12423804519E+00 -0.56090324303E-01  0.89064919775E+00  0.88000000000E+00 0. -1.
        -11    1    4    4    0    0  0.67551188936E-02  0.42603983862E-01  0.28053392076E-01  0.51458575574E-01  0.51100000000E-03 0.  1.
         11    1    4    4    0    0 -0.10342441147E-02  0.74318358267E-01  0.23181831119E-01  0.77858502756E-01  0.51100000000E-03 0. -1.
</event>
<event>
 8    1  0.1199892E+005  0.1043930E+01  0.7957747E-01            NaN
         13   -1    0    0    0    0  0.00000000000E+00  0.00000000000E+00  0.74505805969E-08  0.10566000000E+00  0.10566000000E+00 0. -1.
     999900   -1    0    0    0    0 -0.00000000000E+00 -0.00000000000E+00 -0.74505805969E-08  0.93827000000E+00  0.93827000000E+00 0. -1.
     999902    2    1    2    0    0  0.12710899403E-02 -0.19913163759E-01 -0.12942596395E-01  0.10201463804E+01  0.10198690979E+01 0.  0.
     999903    2    3    3    0    0 -0.64266714778E-01 -0.10498766871E+00 -0.46448035655E-01  0.13298490145E+00  0.19363439501E-01 0.  0.
         14    1    1    2    0    0 -0.12710899403E-02  0.19913163759E-01  0.12942596395E-01  0.23783619614E-01  0.00000000000E+00 0. -1.
     999901    1    3    3    0    0  0.65537804719E-01  0.85074504951E-01  0.33505439260E-01  0.88716147893E+00  0.88000000000E+00 0. -1.
        -11    1    4    4    0    0 -0.13179084550E-01 -0.11451482657E-01 -0.11104893442E-01  0.20697934775E-01  0.51100000000E-03 0. -1.
         11    1    4    4    0    0 -0.51087630229E-01 -0.93536186052E-01 -0.35343142213E-01  0.11228696668E+00  0.51100000000E-03 0.  1.
</event>
<event>
 8    1  0.1199892E+005  0.1043930E+01  0.7957747E-01            NaN
         13   -1    0    0    0    0  0.00000000000E+00  0.00000000000E+00  0.74505805969E-08  0.10566000000E+00  0.10566000000E+00 0.  1.
     999900   -1    0    0    0    0 -0.00000000000E+00 -0.00000000000E+00 -0.74505805969E-08  0.93827000000E+00  0.93827000000E+00 0.  1.
     999902    2    1    2    0    0 -0.20822371247E-01  0.12632973926E-01  0.16102080899E-02  0.10195218877E+01  0.10192296717E+01 0.  0.
     999903    2    3    3    0    0  0.10386603131E+00  0.16762754045E-01  0.70313955123E-01  0.12807112763E+00  0.19723566213E-01 0.  0.
         14    1    1    2    0    0  0.20822371247E-01 -0.12632973926E-01 -0.16102080899E-02  0.24408112271E-01  0.00000000000E+00 0.  1.
     999901    1    3    3    0    0 -0.12468840256E+00 -0.41297801190E-02 -0.68703747033E-01  0.89145076009E+00  0.88000000000E+00 0.  1.
        -11    1    4    4    0    0  0.68581603158E-01  0.12874796563E-01  0.35276521886E-01  0.78191372898E-01  0.51100000000E-03 0. -1.
         11    1    4    4    0    0  0.35284428156E-01  0.38879574823E-02  0.35037433236E-01  0.49879754736E-01  0.51100000000E-03 0.  1.
</event>
<event>
 8    1  0.1199892E+005  0.1043930E+01  0.7957747E-01            NaN
         13   -1    0    0    0    0  0.00000000000E+00  0.00000000000E+00  0.74505805969E-08  0.10566000000E+00  0.10566000000E+00 0.  1.
     999900   -1    0    0    0    0 -0.00000000000E+00 -0.00000000000E+00 -0.74505805969E-08  0.93827000000E+00  0.93827000000E+00 0. -1.
     999902    2    1    2    0    0  0.10664988618E-01  0.78764065189E-02  0.18094616458E-01  0.10214979937E+01  0.10212516616E+01 0.  0.
     999903    2    3    3    0    0 -0.89755411694E-01  0.41689962258E-01 -0.81214640724E-01  0.12959556523E+00  0.20127239692E-01 0.  0.
         14    1    1    2    0    0 -0.10664988618E-01 -0.78764065189E-02 -0.18094616458E-01  0.22432006300E-01  0.00000000000E+00 0. -1.
     999901    1    3    3    0    0  0.10042040031E+00 -0.33813555739E-01  0.99309257182E-01  0.89190242847E+00  0.88000000000E+00 0.  1.
        -11    1    4    4    0    0 -0.12805827056E-01  0.88051845030E-02 -0.22574721722E-01  0.27411670189E-01  0.51100000000E-03 0.  1.
         11    1    4    4    0    0 -0.76949584638E-01  0.32884777755E-01 -0.58639919001E-01  0.10218389504E+00  0.51100000000E-03 0. -1.
</event>
<event>
 8    1  0.1199892E+005  0.1043930E+01  0.7957747E-01            NaN
         13   -1    0    0    0    0  0.00000000000E+00  0.00000000000E+00  0.74505805969E-08  0.10566000000E+00  0.10566000000E+00 0. -1.
     999900   -1    0    0    0    0 -0.00000000000E+00 -0.00000000000E+00 -0.74505805969E-08  0.93827000000E+00  0.93827000000E+00 0.  1.
     999902    2    1    2    0    0  0.97447736152E-02  0.71751063464E-03  0.21451163939E-01  0.10203582400E+01  0.10200859327E+01 0.  0.
     999903    2    3    3    0    0  0.20777788126E-01 -0.21537983927E-01 -0.12315326569E+00  0.12821056417E+00  0.19380936108E-01 0.  0.
         14    1    1    2    0    0 -0.97447736152E-02 -0.71751063464E-03 -0.21451163939E-01  0.23571759983E-01  0.00000000000E+00 0.  1.
     999901    1    3    3    0    0 -0.11033014511E-01  0.22255494562E-01  0.14460442963E+00  0.89214767584E+00  0.88000000000E+00 0. -1.
        -11    1    4    4    0    0  0.10396124786E-01 -0.16585991439E-02 -0.65575071940E-01  0.66416726377E-01  0.51100000000E-03 0.  1.
         11    1    4    4    0    0  0.10381663340E-01 -0.19879384783E-01 -0.57578193749E-01  0.61793837795E-01  0.51100000000E-03 0. -1.
</event>
<event>
 8    1  0.1199892E+005  0.1043930E+01  0.7957747E-01            NaN
         13   -1    0    0    0    0  0.00000000000E+00  0.00000000000E+00  0.74505805969E-08  0.10566000000E+00  0.10566000000E+00 0.  1.
     999900   -1    0    0    0    0 -0.00000000000E+00 -0.00000000000E+00 -0.74505805969E-08  0.93827000000E+00  0.93827000000E+00 0.  1.
     999902    2    1    2    0    0 -0.13909717606E-01 -0.20048903586E-02  0.18325382482E-01  0.10208362893E+01  0.10205750390E+01 0.  0.
     999903    2    3    3    0    0  0.58877801012E-01 -0.20717730658E-01 -0.11047434498E+00  0.12829073696E+00  0.18923859970E-01 0.  0.
         14    1    1    2    0    0  0.13909717606E-01  0.20048903586E-02 -0.18325382482E-01  0.23093710667E-01  0.00000000000E+00 0. -1.
     999901    1    3    3    0    0 -0.72787518618E-01  0.18712840300E-01  0.12879972746E+00  0.89254555237E+00  0.88000000000E+00 0. -1.
        -11    1    4    4    0    0  0.33850497710E-01 -0.12263293921E-01 -0.44637201723E-01  0.57349677171E-01  0.51100000000E-03 0. -1.
         11    1    4    4    0    0  0.25027303302E-01 -0.84544367366E-02 -0.65837143259E-01  0.70941059793E-01  0.51100000000E-03 0.  1.
</event>
<event>
 8    1  0.1199892E+005  0.1043930E+01  0.7957747E-01            NaN
         13   -1    0    0    0    0  0.00000000000E+00  0.00000000000E+00  0.74505805969E-08  0.10566000000E+00  0.10566000000E+00 0. -1.
     999900   -1    0    0    0    0 -0.00000000000E+00 -0.00000000000E+00 -0.74505805969E-08  0.93827000000E+00  0.93827000000E+00 0.  1.
     999902    2    1    2    0    0  0.10784074873E-01  0.13888917038E-01 -0.17210461454E-01  0.10193251576E+01  0.10190281540E+01 0.  0.
     999903    2    3    3    0    0 -0.11980632594E+00 -0.36468485497E-01 -0.18888759351E-01  0.12826256861E+00  0.20273014210E-01 0.  0.
         14    1    1    2    0    0 -0.10784074873E-01 -0.13888917038E-01  0.17210461454E-01  0.24604842426E-01  0.00000000000E+00 0. -1.
     999901    1    3    3    0    0  0.13059040082E+00  0.50357402535E-01  0.16782978966E-02  0.89106258897E+00  0.88000000000E+00 0. -1.
        -11    1    4    4    0    0 -0.26030483571E-01  0.51668662829E-03 -0.30467276889E-02  0.26218251479E-01  0.51100000000E-03 0. -1.
         11    1    4    4    0    0 -0.93775842372E-01 -0.36985172125E-01 -0.15842031662E-01  0.10204431713E+00  0.51100000000E-03 0.  1.
</event>
<event>
 8    1  0.1199892E+005  0.1043930E+01  0.7957747E-01            NaN
         13   -1    0    0    0    0  0.00000000000E+00  0.00000000000E+00  0.74505805969E-08  0.10566000000E+00  0.10566000000E+00 0.  1.
     999900   -1    0    0    0    0 -0.00000000000E+00 -0.00000000000E+00 -0.74505805969E-08  0.93827000000E+00  0.93827000000E+00 0. -1.
     999902    2    1    2    0    0  0.72809764095E-02  0.19887430205E-02  0.18533197720E-01  0.10239188248E+01  0.10237232598E+01 0.  0.
     999903    2    3    3    0    0 -0.12379591351E-01 -0.13059621990E+00  0.16428669362E-01  0.13376729871E+00  0.20375526791E-01 0.  0.
         14    1    1    2    0    0 -0.72809764095E-02 -0.19887430205E-02 -0.18533197720E-01  0.20011175228E-01  0.00000000000E+00 0. -1.
     999901    1    3    3    0    0  0.19660567760E-01  0.13258496292E+00  0.21045283573E-02  0.89015152607E+00  0.88000000000E+00 0.  1.
        -11    1    4    4    0    0 -0.86216443638E-03 -0.70128126698E-01  0.31531900477E-03  0.70135996669E-01  0.51100000000E-03 0.  1.
         11    1    4    4    0    0 -0.11517426914E-01 -0.60468093202E-01  0.16113350358E-01  0.63631302037E-01  0.51100000000E-03 0. -1.
</event>
<event>
 8    1  0.1199892E+005  0.1043930E+01  0.7957747E-01            NaN
         13   -1    0    0    0    0  0.00000000000E+00  0.00000000000E+00  0.74505805969E-08  0.10566000000E+00  0.10566000000E+00 0. -1.
     999900   -1    0    0    0    0 -0.00000000000E+00 -0.00000000000E+00 -0.74505805969E-08  0.93827000000E+00  0.93827000000E+00 0.  1.
     999902    2    1    2    0    0 -0.69635459109E-02  0.19353979547E-01 -0.11677045281E-01  0.10202779201E+01  0.10200037321E+01 0.  0.
     999903    2    3    3    0    0  0.34841647166E-01  0.12287763458E+00 -0.31690766354E-01  0.13299816134E+00  0.19270516061E-01 0.  0.
         14    1    1    2    0    0  0.69635459109E-02 -0.19353979547E-01  0.11677045281E-01  0.23652079876E-01  0.00000000000E+00 0.  1.
     999901    1    3    3    0    0 -0.41805193077E-01 -0.10352365504E+00  0.20013721073E-01  0.88727975879E+00  0.88000000000E+00 0.  1.
        -11    1    4    4    0    0  0.17599871504E-01  0.57707966538E-01 -0.24802388863E-01  0.65233308158E-01  0.51100000000E-03 0.  1.
         11    1    4    4    0    0  0.17241775662E-01  0.65169668044E-01 -0.68883774910E-02  0.67764853180E-01  0.51100000000E-03 0. -1.
</event>
<event>
 8    1  0.1199892E+005  0.1043930E+01  0.7957747E-01            NaN
         13   -1    0    0    0    0  0.00000000000E+00  0.00000000000E+00  0.74505805969E-08  0.10566000000E+00  0.10566000000E+00 0. -1.
     999900   -1    0    0    0    0 -0.00000000000E+00 -0.00000000000E+00 -0.74505805969E-08  0.93827000000E+00  0.93827000000E+00 0.  1.
     999902    2    1    2    0    0 -0.10160574375E-01  0.20692014791E-01 -0.20609506130E-04  0.10208779465E+01  0.10206176485E+01 0.  0.
     999903    2    3    3    0    0  0.29622319692E-01 -0.48463874954E-01  0.11494372105E+00  0.12982126305E+00  0.20378231792E-01 0.  0.
         14    1    1    2    0    0  0.10160574375E-01 -0.20692014791E-01  0.20609506130E-04  0.23052053542E-01  0.00000000000E+00 0.  1.
     999901    1    3    3    0    0 -0.39782894067E-01  0.69155889745E-01 -0.11496433056E+00  0.89105668341E+00  0.88000000000E+00 0. -1.
        -11    1    4    4    0    0  0.30214439932E-01 -0.50107687617E-01  0.11105535503E+00  0.12552786838E+00  0.51100000000E-03 0.  1.
         11    1    4    4    0    0 -0.59212023998E-03  0.16438126627E-02  0.38883660248E-02  0.42933946699E-02  0.51100000000E-03 0. -1.
</event>
<event>
 8    1  0.1199892E+005  0.1043930E+01  0.7957747E-01            NaN
         13   -1    0    0    0    0  0.00000000000E+00  0.00000000000E+00  0.74505805969E-08  0.10566000000E+00  0.10566000000E+00 0.  1.
     999900   -1    0    0    0    0 -0.00000000000E+00 -0.00000000000E+00 -0.74505805969E-08  0.93827000000E+00  0.93827000000E+00 0. -1.
     999902    2    1    2    0    0  0.22437556189E-01 -0.22783184997E-02  0.53519141663E-02  0.10207507496E+01  0.10204875380E+01 0.  0.
     999903    2    3    3    0    0 -0.11429444459E+00 -0.12754309161E-01 -0.53240383278E-01  0.12820470390E+00  0.19391111967E-01 0.  0.
         14    1    1    2    0    0 -0.22437556189E-01  0.22783184997E-02 -0.53519141663E-02  0.23179250379E-01  0.00000000000E+00 0. -1.
     999901    1    3    3    0    0  0.13673200078E+00  0.10475990661E-01  0.58592297444E-01  0.89254604572E+00  0.88000000000E+00 0.  1.
        -11    1    4    4    0    0 -0.63538734603E-01  0.18694466737E-02 -0.33126833239E-01  0.71682032807E-01  0.51100000000E-03 0.  1.
         11    1    4    4    0    0 -0.50755709987E-01 -0.14623755835E-01 -0.20113550039E-01  0.56522671090E-01  0.51100000000E-03 0. -1.
</event>
<event>
 8    1  0.1199892E+005  0.1043930E+01  0.7957747E-01            NaN
         13   -1    0    0    0    0  0.00000000000E+00  0.00000000000E+00  0.74505805969E-08  0.10566000000E+00  0.10566000000E+00 0.  1.
     999900   -1    0    0    0    0 -0.00000000000E+00 -0.00000000000E+00 -0.74505805969E-08  0.93827000000E+00  0.93827000000E+00 0. -1.
     999902    2    1    2    0    0  0.74101181390E-02 -0.19063194403E-01 -0.12090240817E-01  0.10201710195E+01  0.10198943180E+01 0.  0.
     999903    2    3    3    0    0  0.99515146360E-01 -0.83308300548E-01  0.18692313411E-01  0.13250084678E+00  0.19066581253E-01 0.  0.
         14    1    1    2    0    0 -0.74101181390E-02  0.19063194403E-01  0.12090240817E-01  0.23758980506E-01  0.00000000000E+00 0.  1.
     999901    1    3    3    0    0 -0.92105028221E-01  0.64245106146E-01 -0.30782554228E-01  0.88767017272E+00  0.88000000000E+00 0. -1.
        -11    1    4    4    0    0  0.37258036973E-01 -0.38358775048E-01  0.15357270680E-01  0.55638690010E-01  0.51100000000E-03 0. -1.
         11    1    4    4    0    0  0.62257109386E-01 -0.44949525500E-01  0.33350427315E-02  0.76862156767E-01  0.51100000000E-03 0.  1.
</event>
<event>
 8    1  0.1199892E+005  0.1043930E+01  0.7957747E-01            NaN
         13   -1    0    0    0    0  0.00000000000E+00  0.00000000000E+00  0.74505805969E-08  0.10566000000E+00  0.10566000000E+00 0. -1.
     999900   -1    0    0    0    0 -0.00000000000E+00 -0.00000000000E+00 -0.74505805969E-08  0.93827000000E+00  0.93827000000E+00 0. -1.
     999902    2    1    2    0    0  0.20213852155E-01 -0.10152000437E-01  0.15253637598E-03  0.10213095181E+01  0.10210589825E+01 0.  0.
     999903    2    3    3    0    0 -0.45572877780E-01  0.11822420477E+00  0.17271229576E-01  0.12940066992E+00  0.19808791520E-01 0.  0.
         14    1    1    2    0    0 -0.20213852155E-01  0.10152000437E-01 -0.15253637598E-03  0.22620481850E-01  0.00000000000E+00 0.  1.
     999901    1    3    3    0    0  0.65786729935E-01 -0.12837620521E+00 -0.17118693200E-01  0.89190884823E+00  0.88000000000E+00 0.  1.
        -11    1    4    4    0    0 -0.30536341241E-01  0.77871767056E-01  0.18820427521E-02  0.83667696555E-01  0.51100000000E-03 0.  1.
         11    1    4    4    0    0 -0.15036536539E-01  0.40352437713E-01  0.15389186824E-01  0.45732973362E-01  0.51100000000E-03 0. -1.
</event>
<event>
 8    1  0.1199892E+005  0.1043930E+01  0.7957747E-01            NaN
         13   -1    0    0    0    0  0.00000000000E+00  0.00000000000E+00  0.74505805969E-08  0.10566000000E+00  0.10566000000E+00 0.  1.
     999900   -1    0    0    0    0 -0.00000000000E+00 -0.00000000000E+00 -0.74505805969E-08  0.93827000000E+00  0.93827000000E+00 0. -1.
     999902    2    1    2    0    0 -0.10974454414E-01 -0.11938057325E-01 -0.98380806315E-02  0.10249630895E+01  0.10247875835E+01 0.  0.
     999903    2    3    3    0    0  0.82227795143E-01 -0.72912944308E-01  0.73696293759E-01  0.13401831690E+00  0.21261651144E-01 0.  0.
         14    1    1    2    0    0  0.10974454414E-01  0.11938057325E-01  0.98380806315E-02  0.18966910473E-01  0.00000000000E+00 0. -1.
     999901    1    3    3    0    0 -0.93202249557E-01  0.60974886984E-01 -0.83534374390E-01  0.89094477263E+00  0.88000000000E+00 0. -1.
        -11    1    4    4    0    0  0.68232142883E-01 -0.50267587011E-01  0.61604497274E-01  0.10477514415E+00  0.51100000000E-03 0.  1.
         11    1    4    4    0    0  0.13995652260E-01 -0.22645357297E-01  0.12091796485E-01  0.29243172751E-01  0.51100000000E-03 0. -1.
</event>
<event>
 8    1  0.1199892E+005  0.1043930E+01  0.7957747E-01            NaN
         13   -1    0    0    0    0  0.00000000000E+00  0.00000000000E+00  0.74505805969E-08  0.10566000000E+00  0.10566000000E+00 0. -1.
     999900   -1    0    0    0    0 -0.00000000000E+00 -0.00000000000E+00 -0.74505805969E-08  0.93827000000E+00  0.93827000000E+00 0. -1.
     999902    2    1    2    0    0  0.24546847410E-02  0.21111192374E-01 -0.12015282946E-01  0.10195153539E+01  0.10192229795E+01 0.  0.
     999903    2    3    3    0    0  0.29898640830E-01  0.11508675056E+00 -0.55595740791E-01  0.13301446129E+00  0.21519099451E-01 0.  0.
         14    1    1    2    0    0 -0.24546847410E-02 -0.21111192374E-01  0.12015282946E-01  0.24414646114E-01  0.00000000000E+00 0. -1.
     999901    1    3    3    0    0 -0.27443956089E-01 -0.93975558186E-01  0.43580457845E-01  0.88650089259E+00  0.88000000000E+00 0.  1.
        -11    1    4    4    0    0  0.12830852653E-02  0.46493065686E-01 -0.21383745733E-01  0.51193526615E-01  0.51100000000E-03 0.  1.
         11    1    4    4    0    0  0.28615555564E-01  0.68593684873E-01 -0.34211995057E-01  0.81820934678E-01  0.51100000000E-03 0. -1.
</event>
<event>
 8    1  0.1199892E+005  0.1043930E+01  0.7957747E-01            NaN
         13   -1    0    0    0    0  0.00000000000E+00  0.00000000000E+00  0.74505805969E-08  0.10566000000E+00  0.10566000000E+00 0.  1.
     999900   -1    0    0    0    0 -0.00000000000E+00 -0.00000000000E+00 -0.74505805969E-08  0.93827000000E+00  0.93827000000E+00 0. -1.
     999902    2    1    2    0    0 -0.23337770760E-02 -0.20351955883E-01 -0.10423758362E-01  0.10209451493E+01  0.10206863840E+01 0.  0.
     999903    2    3    3    0    0 -0.12247509166E-01 -0.94845241746E-01 -0.91800009221E-01  0.13400116801E+00  0.19581878695E-01 0.  0.
         14    1    1    2    0    0  0.23337770760E-02  0.20351955883E-01  0.10423758362E-01  0.22984850708E-01  0.00000000000E+00 0.  1.
     999901    1    3    3    0    0  0.99137320900E-02  0.74493285863E-01  0.81376250860E-01  0.88694398128E+00  0.88000000000E+00 0.  1.
        -11    1    4    4    0    0  0.28139114124E-02 -0.17236709216E-01 -0.24998488970E-01  0.30499308415E-01  0.51100000000E-03 0.  1.
         11    1    4    4    0    0 -0.15061420578E-01 -0.77608532530E-01 -0.66801520251E-01  0.10350185960E+00  0.51100000000E-03 0. -1.
</event>
<event>
 8    1  0.1199892E+005  0.1043930E+01  0.7957747E-01            NaN
         13   -1    0    0    0    0  0.00000000000E+00  0.00000000000E+00  0.74505805969E-08  0.10566000000E+00  0.10566000000E+00 0.  1.
     999900   -1    0    0    0    0 -0.00000000000E+00 -0.00000000000E+00 -0.74505805969E-08  0.93827000000E+00  0.93827000000E+00 0.  1.
     999902    2    1    2    0    0  0.18110836290E-01 -0.19973890831E-01 -0.79775768019E-02  0.10158123821E+01  0.10154231606E+01 0.  0.
     999903    2    3    3    0    0  0.39708467681E-02 -0.12374579084E+00  0.29297988262E-01  0.12881857472E+00  0.20175844492E-01 0.  0.
         14    1    1    2    0    0 -0.18110836290E-01  0.19973890831E-01  0.79775768019E-02  0.28117617924E-01  0.00000000000E+00 0.  1.
     999901    1    3    3    0    0  0.14139989522E-01  0.10377190001E+00 -0.37275565064E-01  0.88699380736E+00  0.88000000000E+00 0.  1.
        -11    1    4    4    0    0 -0.30552607710E-02 -0.41517561157E-01  0.18598947077E-01  0.45598513750E-01  0.51100000000E-03 0. -1.
         11    1    4    4    0    0  0.70261075390E-02 -0.82228229688E-01  0.10699041185E-01  0.83220060971E-01  0.51100000000E-03 0.  1.
</event>
<event>
 8    1  0.1199892E+005  0.1043930E+01  0.7957747E-01            NaN
         13   -1    0    0    0    0  0.00000000000E+00  0.00000000000E+00  0.74505805969E-08  0.10566000000E+00  0.10566000000E+00 0.  1.
     999900   -1    0    0    0    0 -0.00000000000E+00 -0.00000000000E+00 -0.74505805969E-08  0.93827000000E+00  0.93827000000E+00 0.  1.
     999902    2    1    2    0    0 -0.19194416152E-01  0.98785251699E-02  0.80739916205E-02  0.10208822189E+01  0.10206220185E+01 0.  0.
     999903    2    3    3    0    0  0.32509524842E-01  0.10446367987E+00  0.71025376633E-01  0.13207260723E+00  0.20713276825E-01 0.  0.
         14    1    1    2    0    0  0.19194416152E-01 -0.98785251699E-02 -0.80739916205E-02  0.23047781057E-01  0.00000000000E+00 0.  1.
     999901    1    3    3    0    0 -0.51703940993E-01 -0.94585154699E-01 -0.62951385013E-01  0.88880961172E+00  0.88000000000E+00 0. -1.
        -11    1    4    4    0    0  0.84334931316E-02  0.16579515621E-01  0.42120327415E-02  0.19078953992E-01  0.51100000000E-03 0. -1.
         11    1    4    4    0    0  0.24076031710E-01  0.87884164248E-01  0.66813343892E-01  0.11299365324E+00  0.51100000000E-03 0.  1.
</event>
<event>
 8    1  0.1199892E+005  0.1043930E+01  0.7957747E-01            NaN
         13   -1    0    0    0    0  0.00000000000E+00  0.00000000000E+00  0.74505805969E-08  0.10566000000E+00  0.10566000000E+00 0. -1.
     999900   -1    0    0    0    0 -0.00000000000E+00 -0.00000000000E+00 -0.74505805969E-08  0.93827000000E+00  0.93827000000E+00 0. -1.
     999902    2    1    2    0    0  0.10867420415E-02  0.15252657934E-01  0.18235489347E-01  0.10201317300E+01  0.10198541018E+01 0.  0.
     999903    2    3    3    0    0 -0.27383756444E-01 -0.29879542943E-01  0.12413658819E+00  0.13217760532E+00  0.20454085605E-01 0.  0.
         14    1    1    2    0    0 -0.10867420415E-02 -0.15252657934E-01 -0.18235489347E-01  0.23798269980E-01  0.00000000000E+00 0.  1.
     999901    1    3    3    0    0  0.28470498486E-01  0.45132200876E-01 -0.10590109884E+00  0.88795412470E+00  0.88000000000E+00 0. -1.
        -11    1    4    4    0    0 -0.25689941428E-01 -0.23093095429E-01  0.75385721881E-01  0.82924859551E-01  0.51100000000E-03 0. -1.
         11    1    4    4    0    0 -0.16938150158E-02 -0.67864475136E-02  0.48750866305E-01  0.49252745767E-01  0.51100000000E-03 0.  1.
</event>
<event>
 8    1  0.1199892E+005  0.1043930E+01  0.7957747E-01            NaN
         13   -1    0    0    0    0  0.00000000000E+00  0.00000000000E+00  0.74505805969E-08  0.10566000000E+00  0.10566000000E+00 0.  1.
     999900   -1    0    0    0    0 -0.00000000000E+00 -0.00000000000E+00 -0.74505805969E-08  0.93827000000E+00  0.93827000000E+00 0. -1.
     999902    2    1    2    0    0  0.96703962458E-02  0.20960959116E-01  0.70078782276E-02  0.10198055575E+01  0.10195201745E+01 0.  0.
     999903    2    3    3    0    0  0.60458541318E-01 -0.10667959156E+00  0.33329364213E-01  0.12875877615E+00  0.20789551333E-01 0.  0.
         14    1    1    2    0    0 -0.96703962458E-02 -0.20960959116E-01 -0.70078782276E-02  0.24124442540E-01  0.00000000000E+00 0. -1.
     999901    1    3    3    0    0 -0.50788145072E-01  0.12764055067E+00 -0.26321485985E-01  0.89104678131E+00  0.88000000000E+00 0. -1.
        -11    1    4    4    0    0  0.30261658488E-01 -0.70416076766E-01  0.14811832900E-01  0.78063072937E-01  0.51100000000E-03 0. -1.
         11    1    4    4    0    0  0.30196882830E-01 -0.36263514790E-01  0.18517531312E-01  0.50695703215E-01  0.51100000000E-03 0.  1.
</event>
<event>
 8    1  0.1199892E+005  0.1043930E+01  0.7957747E-01            NaN
         13   -1    0    0    0    0  0.00000000000E+00  0.00000000000E+00  0.74505805969E-08  0.10566000000E+00  0.10566000000E+00 0. -1.
     999900   -1    0    0    0    0 -0.00000000000E+00 -0.00000000000E+00 -0.74505805969E-08  0.93827000000E+00  0.93827000000E+00 0. -1.
     999902    2    1    2    0    0  0.91645044697E-02 -0.20467340398E-01  0.71607560200E-02  0.10203890444E+01  0.10201174566E+01 0.  0.
     999903    2    3    3    0    0 -0.39609773185E-03  0.12634376183E+00 -0.63747684902E-02  0.12807289228E+00  0.19978113494E-01 0.  0.
         14    1    1    2    0    0 -0.91645044697E-02  0.20467340398E-01 -0.71607560200E-02  0.23540955629E-01  0.00000000000E+00 0.  1.
     999901    1    3    3    0    0  0.95606022015E-02 -0.14681110223E+00  0.13535524510E-01  0.89231615209E+00  0.88000000000E+00 0. -1.
        -11    1    4    4    0    0  0.21844178951E-02  0.30472453677E-01 -0.98476599532E-02  0.32102642293E-01  0.51100000000E-03 0.  1.
         11    1    4    4    0    0 -0.25805156269E-02  0.95871308150E-01  0.34728914630E-02  0.95970249992E-01  0.51100000000E-03 0. -1.
</event>
<event>
 8    1  0.1199892E+005  0.1043930E+01  0.7957747E-01            NaN
         13   -1    0    0    0    0  0.00000000000E+00  0.00000000000E+00  0.74505805969E-08  0.10566000000E+00  0.10566000000E+00 0.  1.
     999900   -1    0    0    0    0 -0.00000000000E+00 -0.00000000000E+00 -0.74505805969E-08  0.93827000000E+00  0.93827000000E+00 0.  1.
     999902    2    1    2    0    0 -0.12489076319E-01 -0.20384940040E-01  0.48101523056E-02  0.10195443408E+01  0.10192526687E+01 0.  0.
     999903    2    3    3    0    0  0.40064879428E-02 -0.13033644368E+00  0.13876358773E-01  0.13250227143E+00  0.18991000641E-01 0.  0.
         14    1    1    2    0    0  0.12489076319E-01  0.20384940040E-01 -0.48101523056E-02  0.24385659166E-01  0.00000000000E+00 0. -1.
     999901    1    3    3    0    0 -0.16495564262E-01  0.10995150364E+00 -0.90662064677E-02  0.88704206940E+00  0.88000000000E+00 0.  1.
        -11    1    4    4    0    0  0.74618111558E-02 -0.45421741654E-01 -0.18607924168E-02  0.46070998579E-01  0.51100000000E-03 0. -1.
         11    1    4    4    0    0 -0.34553232130E-02 -0.84914702023E-01  0.15737151190E-01  0.86431272851E-01  0.51100000000E-03 0.  1.
</event>
<event>
 8    1  0.1199892E+005  0.1043930E+01  0.7957747E-01            NaN
         13   -1    0    0    0    0  0.00000000000E+00  0.00000000000E+00  0.74505805969E-08  0.10566000000E+00  0.10566000000E+00 0.  1.
     999900   -1    0    0    0    0 -0.00000000000E+00 -0.00000000000E+00 -0.74505805969E-08  0.93827000000E+00  0.93827000000E+00 0. -1.
     999902    2    1    2    0    0 -0.13699231692E-01  0.69487838917E-03  0.28511580658E-01  0.10122904356E+01  0.10117958608E+01 0.  0.
     999903    2    3    3    0    0  0.48709821396E-01  0.13384588143E-01  0.11378037347E+00  0.12587818066E+00  0.18642668240E-01 0.  0.
         14    1    1    2    0    0  0.13699231692E-01 -0.69487838917E-03 -0.28511580658E-01  0.31639564417E-01  0.00000000000E+00 0. -1.
     999901    1    3    3    0    0 -0.62409053088E-01 -0.12689709754E-01 -0.85268792817E-01  0.88641225492E+00  0.88000000000E+00 0. -1.
        -11    1    4    4    0    0  0.33863090442E-01  0.16602970965E-01  0.69704639322E-01  0.79255065473E-01  0.51100000000E-03 0. -1.
         11    1    4    4    0    0  0.14846730954E-01 -0.32183828223E-02  0.44075734153E-01  0.46623115191E-01  0.51100000000E-03 0.  1.
</event>
<event>
 8    1  0.1199892E+005  0.1043930E+01  0.7957747E-01            NaN
         13   -1    0    0    0    0  0.00000000000E+00  0.00000000000E+00  0.74505805969E-08  0.10566000000E+00  0.10566000000E+00 0. -1.
     999900   -1    0    0    0    0 -0.00000000000E+00 -0.00000000000E+00 -0.74505805969E-08  0.93827000000E+00  0.93827000000E+00 0. -1.
     999902    2    1    2    0    0  0.66696920918E-02  0.11597242069E-01 -0.19220078507E-01  0.10205122240E+01  0.10202435038E+01 0.  0.
     999903    2    3    3    0    0  0.19300580105E-01 -0.12354784346E+00 -0.29504791012E-01  0.13004632974E+00  0.20122951368E-01 0.  0.
         14    1    1    2    0    0 -0.66696920918E-02 -0.11597242069E-01  0.19220078507E-01  0.23417776026E-01  0.00000000000E+00 0. -1.
     999901    1    3    3    0    0 -0.12630888013E-01  0.13514508553E+00  0.10284712505E-01  0.89046589423E+00  0.88000000000E+00 0. -1.
        -11    1    4    4    0    0  0.16426485780E-02 -0.68373619854E-01 -0.20618622126E-01  0.71435557572E-01  0.51100000000E-03 0.  1.
         11    1    4    4    0    0  0.17657931527E-01 -0.55174223604E-01 -0.88861688863E-02  0.58610772172E-01  0.51100000000E-03 0. -1.
</event>
<event>
 8    1  0.1199892E+005  0.1043930E+01  0.7957747E-01            NaN
         13   -1    0    0    0    0  0.00000000000E+00  0.00000000000E+00  0.74505805969E-08  0.10566000000E+00  0.10566000000E+00 0.  1.
     999900   -1    0    0    0    0 -0.00000000000E+00 -0.00000000000E+00 -0.74505805969E-08  0.93827000000E+00  0.93827000000E+00 0. -1.
     999902    2    1    2    0    0  0.19720542523E-01  0.10706673286E-01  0.55720155255E-02  0.10208090137E+01  0.10205471388E+01 0.  0.
     999903    2    3    3    0    0 -0.49637355450E-01  0.12714723391E-01 -0.11733906517E+00  0.12956175058E+00  0.19805548454E-01 0.  0.
         14    1    1    2    0    0 -0.19720542523E-01 -0.10706673286E-01 -0.55720155255E-02  0.23120986296E-01  0.00000000000E+00 0. -1.
     999901    1    3    3    0    0  0.69357897973E-01 -0.20080501045E-02  0.12291108070E+00  0.89124726313E+00  0.88000000000E+00 0.  1.
        -11    1    4    4    0    0 -0.34058238856E-01 -0.40112289955E-03 -0.64727881735E-01  0.73144270647E-01  0.51100000000E-03 0. -1.
         11    1    4    4    0    0 -0.15579116594E-01  0.13115846290E-01 -0.52611183438E-01  0.56417479929E-01  0.51100000000E-03 0.  1.
</event>
<event>
 8    1  0.1199892E+005  0.1043930E+01  0.7957747E-01            NaN
         13   -1    0    0    0    0  0.00000000000E+00  0.00000000000E+00  0.74505805969E-08  0.10566000000E+00  0.10566000000E+00 0. -1.
     999900   -1    0    0    0    0 -0.00000000000E+00 -0.00000000000E+00 -0.74505805969E-08  0.93827000000E+00  0.93827000000E+00 0. -1.
     999902    2    1    2    0    0 -0.18195115175E-01 -0.12281782023E-01  0.90781807760E-02  0.10201746269E+01  0.10198980104E+01 0.  0.
     999903    2    3    3    0    0 -0.79777748028E-01  0.67096682746E-01  0.78096081214E-01  0.13177334822E+00  0.19969063196E-01 0.  0.
         14    1    1    2    0    0  0.18195115175E-01  0.12281782023E-01 -0.90781807760E-02  0.23755373120E-01  0.00000000000E+00 0. -1.
     999901    1    3    3    0    0  0.61582632853E-01 -0.79378464769E-01 -0.69017900438E-01  0.88840127866E+00  0.88000000000E+00 0.  1.
        -11    1    4    4    0    0 -0.67613675469E-01  0.63880769468E-01  0.64216065570E-01  0.11303241135E+00  0.51100000000E-03 0. -1.
         11    1    4    4    0    0 -0.12164072559E-01  0.32159132778E-02  0.13880015644E-01  0.18740936869E-01  0.51100000000E-03 0.  1.
</event>
<event>
 8    1  0.1199892E+005  0.1043930E+01  0.7957747E-01            NaN
         13   -1    0    0    0    0  0.00000000000E+00  0.00000000000E+00  0.74505805969E-08  0.10566000000E+00  0.10566000000E+00 0. -1.
     999900   -1    0    0    0    0 -0.00000000000E+00 -0.00000000000E+00 -0.74505805969E-08  0.93827000000E+00  0.93827000000E+00 0. -1.
     999902    2    1    2    0    0 -0.23756219361E-01  0.29902707977E-02  0.37202487829E-02  0.10196990296E+01  0.10194110903E+01 0.  0.
     999903    2    3    3    0    0  0.80941746745E-01 -0.96202433712E-01  0.12917882766E-01  0.12791124470E+00  0.19696197819E-01 0.  0.
         14    1    1    2    0    0  0.23756219361E-01 -0.29902707977E-02 -0.37202487829E-02  0.24230970447E-01  0.00000000000E+00 0. -1.
     999901    1    3    3    0    0 -0.10469796611E+00  0.99192704509E-01 -0.91976339827E-02  0.89178778485E+00  0.88000000000E+00 0. -1.
        -11    1    4    4    0    0  0.31545205362E-01 -0.28066539016E-01 -0.27089687869E-02  0.42313475709E-01  0.51100000000E-03 0.  1.
         11    1    4    4    0    0  0.49396541383E-01 -0.68135894696E-01  0.15626851552E-01  0.85597768996E-01  0.51100000000E-03 0. -1.
</event>
<event>
 8    1  0.1199892E+005  0.1043930E+01  0.7957747E-01            NaN
         13   -1    0    0    0    0  0.00000000000E+00  0.00000000000E+00  0.74505805969E-08  0.10566000000E+00  0.10566000000E+00 0. -1.
     999900   -1    0    0    0    0 -0.00000000000E+00 -0.00000000000E+00 -0.74505805969E-08  0.93827000000E+00  0.93827000000E+00 0.  1.
     999902    2    1    2    0    0 -0.64290403211E-02  0.23353908198E-01 -0.43153159609E-02  0.10193259447E+01  0.10190289603E+01 0.  0.
     999903    2    3    3    0    0 -0.35833842754E-01 -0.11328503980E+00 -0.41658466414E-01  0.12751354544E+00  0.20167099842E-01 0.  0.
         14    1    1    2    0    0  0.64290403211E-02 -0.23353908198E-01  0.43153159609E-02  0.24604055345E-01  0.00000000000E+00 0.  1.
     999901    1    3    3    0    0  0.29404802433E-01  0.13663894800E+00  0.37343150453E-01  0.89181239922E+00  0.88000000000E+00 0. -1.
        -11    1    4    4    0    0 -0.22047483161E-01 -0.62336104312E-01 -0.33429218052E-01  0.74092207115E-01  0.51100000000E-03 0.  1.
         11    1    4    4    0    0 -0.13786359593E-01 -0.50948935489E-01 -0.82292483625E-02  0.53421338320E-01  0.51100000000E-03 0. -1.
</event>
<event>
 8    1  0.1199892E+005  0.1043930E+01  0.7957747E-01            NaN
         13   -1    0    0    0    0  0.00000000000E+00  0.00000000000E+00  0.74505805969E-08  0.10566000000E+00  0.10566000000E+00 0.  1.
     999900   -1    0    0    0    0 -0.00000000000E+00 -0.00000000000E+00 -0.74505805969E-08  0.93827000000E+00  0.93827000000E+00 0.  1.
     999902    2    1    2    0    0  0.22326258756E-01  0.55705942570E-02  0.56120279777E-02  0.10202448104E+01  0.10199698451E+01 0.  0.
     999903    2    3    3    0    0  0.11252388287E+00  0.67321873629E-01  0.12202940126E-01  0.13345719654E+00  0.21634525070E-01 0.  0.
         14    1    1    2    0    0 -0.22326258756E-01 -0.55705942570E-02 -0.56120279777E-02  0.23685189643E-01  0.00000000000E+00 0.  1.
     999901    1    3    3    0    0 -0.90197624114E-01 -0.61751279372E-01 -0.65909121483E-02  0.88678761382E+00  0.88000000000E+00 0. -1.
        -11    1    4    4    0    0  0.94045420171E-01  0.47374472086E-01  0.55054994237E-02  0.10544881842E+00  0.51100000000E-03 0. -1.
         11    1    4    4    0    0  0.18478462699E-01  0.19947401542E-01  0.66974407023E-02  0.28008378121E-01  0.51100000000E-03 0.  1.
</event>
<event>
 8    1  0.1199892E+005  0.1043930E+01  0.7957747E-01            NaN
         13   -1    0    0    0    0  0.00000000000E+00  0.00000000000E+00  0.74505805969E-08  0.10566000000E+00  0.10566000000E+00 0.  1.
     999900   -1    0    0    0    0 -0.00000000000E+00 -0.00000000000E+00 -0.74505805969E-08  0.93827000000E+00  0.93827000000E+00 0. -1.
     999902    2    1    2    0    0 -0.20826857350E-01 -0.58752221942E-02 -0.10578064105E-01  0.10198432471E+01  0.10195587659E+01 0.  0.
     999903    2    3    3    0    0 -0.58477305101E-02  0.39127319986E-01 -0.12355963747E+00  0.13135327029E+00  0.20531792036E-01 0.  0.
         14    1    1    2    0    0  0.20826857350E-01  0.58752221942E-02  0.10578064105E-01  0.24086752856E-01  0.00000000000E+00 0. -1.
     999901    1    3    3    0    0 -0.14979126840E-01 -0.45002542180E-01  0.11298157336E+00  0.88848997685E+00  0.88000000000E+00 0.  1.
        -11    1    4    4    0    0 -0.50860857127E-02  0.40076072503E-01 -0.10136714213E+00  0.10912157660E+00  0.51100000000E-03 0.  1.
         11    1    4    4    0    0 -0.76164479739E-03 -0.94875251720E-03 -0.22192495340E-01  0.22231693695E-01  0.51100000000E-03 0. -1.
</event>
<event>
 8    1  0.1199892E+005  0.1043930E+01  0.7957747E-01            NaN
         13   -1    0    0    0    0  0.00000000000E+00  0.00000000000E+00  0.74505805969E-08  0.10566000000E+00  0.10566000000E+00 0. -1.
     999900   -1    0    0    0    0 -0.00000000000E+00 -0.00000000000E+00 -0.74505805969E-08  0.93827000000E+00  0.93827000000E+00 0. -1.
     999902    2    1    2    0    0  0.48070689504E-02  0.16832506777E-01  0.18434378801E-01  0.10185082078E+01  0.10181908966E+01 0.  0.
     999903    2    3    3    0    0 -0.49116576068E-01  0.87663911294E-01 -0.78202057043E-01  0.12875349549E+00  0.19091922068E-01 0.  0.
         14    1    1    2    0    0 -0.48070689504E-02 -0.16832506777E-01 -0.18434378801E-01  0.25421792189E-01  0.00000000000E+00 0. -1.
     999901    1    3    3    0    0  0.53923645018E-01 -0.70831404516E-01  0.96636435844E-01  0.88975471232E+00  0.88000000000E+00 0.  1.
        -11    1    4    4    0    0 -0.10890219961E-01  0.29889449649E-01 -0.15835403937E-01  0.35538672316E-01  0.51100000000E-03 0. -1.
         11    1    4    4    0    0 -0.38226356107E-01  0.57774461645E-01 -0.62366653106E-01  0.93214823178E-01  0.51100000000E-03 0.  1.
</event>
<event>
 8    1  0.1199892E+005  0.1043930E+01  0.7957747E-01            NaN
         13   -1    0    0    0    0  0.00000000000E+00  0.00000000000E+00  0.74505805969E-08  0.10566000000E+00  0.10566000000E+00 0.  1.
     999900   -1    0    0    0    0 -0.00000000000E+00 -0.00000000000E+00 -0.74505805969E-08  0.93827000000E+00  0.93827000000E+00 0.  1.
     999902    2    1    2    0    0  0.23595485590E-01 -0.53950330181E-02  0.28537121723E-03  0.10197239107E+01  0.10194365695E+01 0.  0.
     999903    2    3    3    0    0 -0.52906451321E-01  0.11131716686E+00  0.29486790423E-01  0.12824928582E+00  0.19692746755E-01 0.  0.
         14    1    1    2    0    0 -0.23595485590E-01  0.53950330181E-02 -0.28537121723E-03  0.24206089280E-01  0.00000000000E+00 0.  1.
     999901    1    3    3    0    0  0.76501936911E-01 -0.11671219988E+00 -0.29201419206E-01  0.89147462490E+00  0.88000000000E+00 0. -1.
        -11    1    4    4    0    0 -0.13449551853E-01  0.39936326025E-01  0.18218676478E-01  0.45912763749E-01  0.51100000000E-03 0.  1.
         11    1    4    4    0    0 -0.39456899467E-01  0.71380840838E-01  0.11268113945E-01  0.82336522074E-01  0.51100000000E-03 0. -1.
</event>
<event>
 8    1  0.1199892E+005  0.1043930E+01  0.7957747E-01            NaN
         13   -1    0    0    0    0  0.00000000000E+00  0.00000000000E+00  0.74505805969E-08  0.10566000000E+00  0.10566000000E+00 0. -1.
     999900   -1    0    0    0    0 -0.00000000000E+00 -0.00000000000E+00 -0.74505805969E-08  0.93827000000E+00  0.93827000000E+00 0.  1.
     999902    2    1    2    0    0  0.12456323394E-01 -0.18388205716E-01 -0.10297687218E-01  0.10194488141E+01  0.10191548244E+01 0.  0.
     999903    2    3    3    0    0 -0.54914054890E-03  0.12592261626E+00 -0.30343253487E-02  0.12757017219E+00  0.20202347940E-01 0.  0.
         14    1    1    2    0    0 -0.12456323394E-01  0.18388205716E-01  0.10297687218E-01  0.24481185919E-01  0.00000000000E+00 0. -1.
     999901    1    3    3    0    0  0.13005463943E-01 -0.14431082197E+00 -0.72633618694E-02  0.89187864189E+00  0.88000000000E+00 0. -1.
        -11    1    4    4    0    0  0.39949467882E-02  0.58120795655E-01 -0.10523242035E-01  0.59202924179E-01  0.51100000000E-03 0.  1.
         11    1    4    4    0    0 -0.45440873371E-02  0.67801820603E-01  0.74889166862E-02  0.68367248014E-01  0.51100000000E-03 0. -1.
</event>
<event>
 8    1  0.1199892E+005  0.1043930E+01  0.7957747E-01            NaN
         13   -1    0    0    0    0  0.00000000000E+00  0.00000000000E+00  0.74505805969E-08  0.10566000000E+00  0.10566000000E+00 0. -1.
     999900   -1    0    0    0    0 -0.00000000000E+00 -0.00000000000E+00 -0.74505805969E-08  0.93827000000E+00  0.93827000000E+00 0.  1.
     999902    2    1    2    0    0 -0.42785199108E-03 -0.15187935676E-03 -0.22782144337E-01  0.10211433323E+01  0.10208890600E+01 0.  0.
     999903    2    3    3    0    0 -0.10307195649E+00  0.78544467916E-01  0.50723458290E-02  0.13125300203E+00  0.20212872025E-01 0.  0.
         14    1    1    2    0    0  0.42785199108E-03  0.15187935676E-03  0.22782144337E-01  0.22786667709E-01  0.00000000000E+00 0. -1.
     999901    1    3    3    0    0  0.10264410450E+00 -0.78696347273E-01 -0.27854490166E-01  0.88989033026E+00  0.88000000000E+00 0.  1.
        -11    1    4    4    0    0 -0.60822130868E-01  0.38971562902E-01 -0.53320809696E-02  0.72434843320E-01  0.51100000000E-03 0.  1.
         11    1    4    4    0    0 -0.42249825623E-01  0.39572905015E-01  0.10404426799E-01  0.58818158714E-01  0.51100000000E-03 0. -1.
</event>
<event>
 8    1  0.1199892E+005  0.1043930E+01  0.7957747E-01            NaN
         13   -1    0    0    0    0  0.00000000000E+00  0.00000000000E+00  0.74505805969E-08  0.10566000000E+00  0.10566000000E+00 0. -1.
     999900   -1    0    0    0    0 -0.00000000000E+00 -0.00000000000E+00 -0.74505805969E-08  0.93827000000E+00  0.93827000000E+00 0. -1.
     999902    2    1    2    0    0 -0.35822270315E-02 -0.23051510201E-01  0.10637318534E-01  0.10182910254E+01  0.10179681996E+01 0.  0.
     999903    2    3    3    0    0  0.30408350823E-01 -0.10694608598E+00 -0.61355380009E-01  0.13072322074E+00  0.31015232989E-01 0.  0.
         14    1    1    2    0    0  0.35822270315E-02  0.23051510201E-01 -0.10637318534E-01  0.25638974602E-01  0.00000000000E+00 0.  1.
     999901    1    3    3    0    0 -0.33990577854E-01  0.83894575780E-01  0.71992698543E-01  0.88756780466E+00  0.88000000000E+00 0.  1.
        -11    1    4    4    0    0  0.21053020186E-02 -0.42771283683E-01 -0.10524272352E-01  0.44100299704E-01  0.51100000000E-03 0.  1.
         11    1    4    4    0    0  0.28303048804E-01 -0.64174802298E-01 -0.50831107656E-01  0.86622921032E-01  0.51100000000E-03 0. -1.
</event>
<event>
 8    1  0.1199892E+005  0.1043930E+01  0.7957747E-01            NaN
         13   -1    0    0    0    0  0.00000000000E+00  0.00000000000E+00  0.74505805969E-08  0.10566000000E+00  0.10566000000E+00 0. -1.
     999900   -1    0    0    0    0 -0.00000000000E+00 -0.00000000000E+00 -0.74505805969E-08  0.93827000000E+00  0.93827000000E+00 0. -1.
     999902    2    1    2    0    0 -0.89617197305E-02 -0.22433307339E-01  0.54890815151E-03  0.10197666600E+01  0.10194803450E+01 0.  0.
     999903    2    3    3    0    0  0.73396975651E-01  0.73403985678E-01  0.72149950246E-01  0.12786170395E+00  0.19176518679E-01 0.  0.
         14    1    1    2    0    0  0.89617197305E-02  0.22433307339E-01 -0.54890815151E-03  0.24163339977E-01  0.00000000000E+00 0.  1.
     999901    1    3    3    0    0 -0.82358695381E-01 -0.95837293016E-01 -0.71601042094E-01  0.89190495607E+00  0.88000000000E+00 0.  1.
        -11    1    4    4    0    0  0.52800157608E-01  0.39773344109E-01  0.44172267909E-01  0.79506137614E-01  0.51100000000E-03 0.  1.
         11    1    4    4    0    0  0.20596818042E-01  0.33630641569E-01  0.27977682337E-01  0.48355566337E-01  0.51100000000E-03 0. -1.
</event>
<event>
 8    1  0.1199892E+005  0.1043930E+01  0.7957747E-01            NaN
         13   -1    0    0    0    0  0.00000000000E+00  0.00000000000E+00  0.74505805969E-08  0.10566000000E+00  0.10566000000E+00 0.  1.
     999900   -1    0    0    0    0 -0.00000000000E+00 -0.00000000000E+00 -0.74505805969E-08  0.93827000000E+00  0.93827000000E+00 0. -1.
     999902    2    1    2    0    0 -0.73682455322E-03  0.70642683204E-02  0.21079543765E-01  0.10216860354E+01  0.10214438609E+01 0.  0.
     999903    2    3    3    0    0 -0.11438882782E-01 -0.12877287062E+00 -0.39242431712E-02  0.13084853519E+00  0.19815126258E-01 0.  0.
         14    1    1    2    0    0  0.73682455322E-03 -0.70642683204E-02 -0.21079543765E-01  0.22243964635E-01  0.00000000000E+00 0. -1.
     999901    1    3    3    0    0  0.10702058228E-01  0.13583713894E+00  0.25003786936E-01  0.89083750018E+00  0.88000000000E+00 0.  1.
        -11    1    4    4    0    0 -0.16070670191E-01 -0.82822953269E-01 -0.62820106641E-02  0.84602794325E-01  0.51100000000E-03 0. -1.
         11    1    4    4    0    0  0.46317874092E-02 -0.45949917351E-01  0.23577674929E-02  0.46245740861E-01  0.51100000000E-03 0.  1.
</event>
<event>
 8    1  0.1199892E+005  0.1043930E+01  0.7957747E-01            NaN
         13   -1    0    0    0    0  0.00000000000E+00  0.00000000000E+00  0.74505805969E-08  0.10566000000E+00  0.10566000000E+00 0.  1.
     999900   -1    0    0    0    0 -0.00000000000E+00 -0.00000000000E+00 -0.74505805969E-08  0.93827000000E+00  0.93827000000E+00 0. -1.
     999902    2    1    2    0    0 -0.96786110871E-02 -0.40187358649E-02  0.21256927229E-01  0.10202301539E+01  0.10199548442E+01 0.  0.
     999903    2    3    3    0    0  0.50834523111E-01  0.20680210281E-01 -0.11330669429E+00  0.12760523513E+00  0.20805509478E-01 0.  0.
         14    1    1    2    0    0  0.96786110871E-02  0.40187358649E-02 -0.21256927229E-01  0.23699846113E-01  0.00000000000E+00 0. -1.
     999901    1    3    3    0    0 -0.60513134198E-01 -0.24698946146E-01  0.13456362152E+00  0.89262491876E+00  0.88000000000E+00 0.  1.
        -11    1    4    4    0    0  0.79011390534E-02  0.83145179361E-02 -0.41263386329E-01  0.42830916161E-01  0.51100000000E-03 0.  1.
         11    1    4    4    0    0  0.42933384057E-01  0.12365692345E-01 -0.72043307960E-01  0.84774318969E-01  0.51100000000E-03 0. -1.
</event>
<event>
 8    1  0.1199892E+005  0.1043930E+01  0.7957747E-01            NaN
         13   -1    0    0    0    0  0.00000000000E+00  0.00000000000E+00  0.74505805969E-08  0.10566000000E+00  0.10566000000E+00 0. -1.
     999900   -1    0    0    0    0 -0.00000000000E+00 -0.00000000000E+00 -0.74505805969E-08  0.93827000000E+00  0.93827000000E+00 0. -1.
     999902    2    1    2    0    0 -0.17055429933E-01 -0.15957190204E-01 -0.35230827171E-02  0.10203094217E+01  0.10200359720E+01 0.  0.
     999903    2    3    3    0    0  0.20966730518E-01 -0.41162775538E-01  0.12054039231E+00  0.13043709820E+00  0.18704879872E-01 0.  0.
         14    1    1    2    0    0  0.17055429933E-01  0.15957190204E-01  0.35230827171E-02  0.23620578343E-01  0.00000000000E+00 0. -1.
     999901    1    3    3    0    0 -0.38022160451E-01  0.25205585334E-01 -0.12406347502E+00  0.88987232346E+00  0.88000000000E+00 0. -1.
        -11    1    4    4    0    0  0.19081308268E-01 -0.28404344494E-01  0.65474786217E-01  0.73879035338E-01  0.51100000000E-03 0. -1.
         11    1    4    4    0    0  0.18854222503E-02 -0.12758431044E-01  0.55065606090E-01  0.56558062863E-01  0.51100000000E-03 0.  1.
</event>
<event>
 8    1  0.1199892E+005  0.1043930E+01  0.7957747E-01            NaN
         13   -1    0    0    0    0  0.00000000000E+00  0.00000000000E+00  0.74505805969E-08  0.10566000000E+00  0.10566000000E+00 0.  1.
     999900   -1    0    0    0    0 -0.00000000000E+00 -0.00000000000E+00 -0.74505805969E-08  0.93827000000E+00  0.93827000000E+00 0.  1.
     999902    2    1    2    0    0 -0.15555162851E-01 -0.50644951414E-02  0.17283193852E-01  0.10201325003E+01  0.10198548903E+01 0.  0.
     999903    2    3    3    0    0  0.93992878561E-01 -0.74233188580E-01 -0.42717172326E-01  0.12862527909E+00  0.19351436684E-01 0.  0.
         14    1    1    2    0    0  0.15555162851E-01  0.50644951414E-02 -0.17283193852E-01  0.23797499703E-01  0.00000000000E+00 0. -1.
     999901    1    3    3    0    0 -0.10954804141E+00  0.69168693438E-01  0.60000366178E-01  0.89150722121E+00  0.88000000000E+00 0. -1.
        -11    1    4    4    0    0  0.64756440490E-01 -0.47120992688E-01 -0.37421228319E-01  0.88399061006E-01  0.51100000000E-03 0.  1.
         11    1    4    4    0    0  0.29236438071E-01 -0.27112195891E-01 -0.52959440065E-02  0.40226218080E-01  0.51100000000E-03 0. -1.
</event>
<event>
 8    1  0.1199892E+005  0.1043930E+01  0.7957747E-01            NaN
         13   -1    0    0    0    0  0.00000000000E+00  0.00000000000E+00  0.74505805969E-08  0.10566000000E+00  0.10566000000E+00 0.  1.
     999900   -1    0    0    0    0 -0.00000000000E+00 -0.00000000000E+00 -0.74505805969E-08  0.93827000000E+00  0.93827000000E+00 0. -1.
     999902    2    1    2    0    0 -0.10687838251E-01 -0.15573535655E-01 -0.13277039207E-01  0.10208422398E+01  0.10205811256E+01 0.  0.
     999903    2    3    3    0    0  0.77620935639E-01  0.55021145926E-01  0.83758906739E-01  0.12831883767E+00  0.19945763803E-01 0.  0.
         14    1    1    2    0    0  0.10687838251E-01  0.15573535655E-01  0.13277039207E-01  0.23087760164E-01  0.00000000000E+00 0. -1.
     999901    1    3    3    0    0 -0.88308773890E-01 -0.70594681581E-01 -0.97035945946E-01  0.89252340217E+00  0.88000000000E+00 0. -1.
        -11    1    4    4    0    0  0.21374118994E-01  0.12585475554E-01  0.33869748989E-01  0.41984141949E-01  0.51100000000E-03 0. -1.
         11    1    4    4    0    0  0.56246816646E-01  0.42435670372E-01  0.49889157750E-01  0.86334695718E-01  0.51100000000E-03 0.  1.
</event>
<event>
 8    1  0.1199892E+005  0.1043930E+01  0.7957747E-01            NaN
         13   -1    0    0    0    0  0.00000000000E+00  0.00000000000E+00  0.74505805969E-08  0.10566000000E+00  0.10566000000E+00 0.  1.
     999900   -1    0    0    0    0 -0.00000000000E+00 -0.00000000000E+00 -0.74505805969E-08  0.93827000000E+00  0.93827000000E+00 0.  1.
     999902    2    1    2    0    0  0.50125108530E-02  0.23065894365E-01 -0.66472852828E-02  0.10194076194E+01  0.10191126274E+01 0.  0.
     999903    2    3    3    0    0  0.49766046387E-01 -0.97718077396E-01 -0.63635074475E-01  0.12820660119E+00  0.19027029754E-01 0.  0.
         14    1    1    2    0    0 -0.50125108530E-02 -0.23065894365E-01  0.66472852828E-02  0.24522380584E-01  0.00000000000E+00 0.  1.
     999901    1    3    3    0    0 -0.44753535534E-01  0.12078397176E+00  0.56987789192E-01  0.89120101823E+00  0.88000000000E+00 0. -1.
        -11    1    4    4    0    0  0.36624736189E-01 -0.81119459246E-01 -0.43832652447E-01  0.99213408927E-01  0.51100000000E-03 0. -1.
         11    1    4    4    0    0  0.13141310198E-01 -0.16598618149E-01 -0.19802422028E-01  0.28993192259E-01  0.51100000000E-03 0.  1.
</event>
<event>
 8    1  0.1199892E+005  0.1043930E+01  0.7957747E-01            NaN
         13   -1    0    0    0    0  0.00000000000E+00  0.00000000000E+00  0.74505805969E-08  0.10566000000E+00  0.10566000000E+00 0.  1.
     999900   -1    0    0    0    0 -0.00000000000E+00 -0.00000000000E+00 -0.74505805969E-08  0.93827000000E+00  0.93827000000E+00 0.  1.
     999902    2    1    2    0    0 -0.84606276754E-02 -0.20004357654E-01  0.52978407025E-02  0.10215732636E+01  0.10213286000E+01 0.  0.
     999903    2    3    3    0    0 -0.12620435577E+00 -0.36779557432E-01  0.98408467581E-02  0.13356108366E+00  0.21481283550E-01 0.  0.
         14    1    1    2    0    0  0.84606276754E-02  0.20004357654E-01 -0.52978407025E-02  0.22356736388E-01  0.00000000000E+00 0. -1.
     999901    1    3    3    0    0  0.11774372810E+00  0.16775199778E-01 -0.45430060556E-02  0.88801217995E+00  0.88000000000E+00 0.  1.
        -11    1    4    4    0    0 -0.65982820753E-01 -0.28784741212E-01 -0.16750722961E-03  0.71990160028E-01  0.51100000000E-03 0. -1.
         11    1    4    4    0    0 -0.60221535021E-01 -0.79948162201E-02  0.10008353988E-01  0.61570923635E-01  0.51100000000E-03 0.  1.
</event>
<event>
 8    1  0.1199892E+005  0.1043930E+01  0.7957747E-01            NaN
         13   -1    0    0    0    0  0.00000000000E+00  0.00000000000E+00  0.74505805969E-08  0.10566000000E+00  0.10566000000E+00 0. -1.
     999900   -1    0    0    0    0 -0.00000000000E+00 -0.00000000000E+00 -0.74505805969E-08  0.93827000000E+00  0.93827000000E+00 0. -1.
     999902    2    1    2    0    0  0.53577510379E-02 -0.12603298175E-01  0.19309779374E-01  0.10202568887E+01  0.10199822070E+01 0.  0.
     999903    2    3    3    0    0 -0.18625772128E-01 -0.47258038358E-01 -0.11663584960E+00  0.12882131923E+00  0.20267444352E-01 0.  0.
         14    1    1    2    0    0 -0.53577510379E-02  0.12603298175E-01 -0.19309779374E-01  0.23673111340E-01  0.00000000000E+00 0.  1.
     999901    1    3    3    0    0  0.23983523166E-01  0.34654740183E-01  0.13594562897E+00  0.89143556943E+00  0.88000000000E+00 0.  1.
        -11    1    4    4    0    0 -0.44555146051E-02 -0.36397325658E-01 -0.73745804896E-01  0.82360923903E-01  0.51100000000E-03 0.  1.
         11    1    4    4    0    0 -0.14170257523E-01 -0.10860712700E-01 -0.42890044703E-01  0.46460395331E-01  0.51100000000E-03 0. -1.
</event>
<event>
 8    1  0.1199892E+005  0.1043930E+01  0.7957747E-01            NaN
         13   -1    0    0    0    0  0.00000000000E+00  0.00000000000E+00  0.74505805969E-08  0.10566000000E+00  0.10566000000E+00 0. -1.
     999900   -1    0    0    0    0 -0.00000000000E+00 -0.00000000000E+00 -0.74505805969E-08  0.93827000000E+00  0.93827000000E+00 0.  1.
     999902    2    1    2    0    0  0.26454317399E-02  0.19086710300E-01  0.13468917733E-01  0.10204201603E+01  0.10201492983E+01 0.  0.
     999903    2    3    3    0    0  0.73513898033E-01  0.10314389576E+00  0.35955366483E-01  0.13329356822E+00  0.20770905460E-01 0.  0.
         14    1    1    2    0    0 -0.26454317399E-02 -0.19086710300E-01 -0.13468917733E-01  0.23509839729E-01  0.00000000000E+00 0.  1.
     999901    1    3    3    0    0 -0.70868466293E-01 -0.84057185462E-01 -0.22486448751E-01  0.88712659205E+00  0.88000000000E+00 0.  1.
        -11    1    4    4    0    0  0.55657399335E-01  0.73646183930E-01  0.16748853961E-01  0.93820529406E-01  0.51100000000E-03 0. -1.
         11    1    4    4    0    0  0.17856498698E-01  0.29497711832E-01  0.19206512523E-01  0.39473038816E-01  0.51100000000E-03 0.  1.
</event>
<event>
 8    1  0.1199892E+005  0.1043930E+01  0.7957747E-01            NaN
         13   -1    0    0    0    0  0.00000000000E+00  0.00000000000E+00  0.74505805969E-08  0.10566000000E+00  0.10566000000E+00 0.  1.
     999900   -1    0    0    0    0 -0.00000000000E+00 -0.00000000000E+00 -0.74505805969E-08  0.93827000000E+00  0.93827000000E+00 0. -1.
     999902    2    1    2    0    0  0.19027218038E-01 -0.11305944517E-01  0.71052286974E-02  0.10206847062E+01  0.10204199752E+01 0.  0.
     999903    2    3    3    0    0 -0.47405527845E-01 -0.51079895166E-01 -0.10805815753E+00  0.12980992131E+00  0.17821630126E-01 0.  0.
         14    1    1    2    0    0 -0.19027218038E-01  0.11305944517E-01 -0.71052286974E-02  0.23245293772E-01  0.00000000000E+00 0.  1.
     999901    1    3    3    0    0  0.66432745884E-01  0.39773950648E-01  0.11516338623E+00  0.89087478492E+00  0.88000000000E+00 0.  1.
        -11    1    4    4    0    0 -0.23638191237E-01 -0.37963151720E-01 -0.69692716469E-01  0.82808820927E-01  0.51100000000E-03 0.  1.
         11    1    4    4    0    0 -0.23767336608E-01 -0.13116743445E-01 -0.38365441065E-01  0.47001100382E-01  0.51100000000E-03 0. -1.
</event>
<event>
 8    1  0.1199892E+005  0.1043930E+01  0.7957747E-01            NaN
         13   -1    0    0    0    0  0.00000000000E+00  0.00000000000E+00  0.74505805969E-08  0.10566000000E+00  0.10566000000E+00 0.  1.
     999900   -1    0    0    0    0 -0.00000000000E+00 -0.00000000000E+00 -0.74505805969E-08  0.93827000000E+00  0.93827000000E+00 0.  1.
     999902    2    1    2    0    0  0.10156745403E-01 -0.26216297193E-04 -0.20970366458E-01  0.10206294328E+01  0.10203634267E+01 0.  0.
     999903    2    3    3    0    0  0.98306308846E-01 -0.39247468037E-01 -0.78847607575E-01  0.13346629829E+00  0.19794278256E-01 0.  0.
         14    1    1    2    0    0 -0.10156745403E-01  0.26216297193E-04  0.20970366458E-01  0.23300567244E-01  0.00000000000E+00 0.  1.
     999901    1    3    3    0    0 -0.88149563443E-01  0.39221251740E-01  0.57877241117E-01  0.88716313447E+00  0.88000000000E+00 0.  1.
        -11    1    4    4    0    0  0.73480675188E-01 -0.30914582437E-01 -0.69164187316E-01  0.10554177827E+00  0.51100000000E-03 0. -1.
         11    1    4    4    0    0  0.24825633659E-01 -0.83328856006E-02 -0.96834202592E-02  0.27924520012E-01  0.51100000000E-03 0.  1.
</event>
<event>
 8    1  0.1199892E+005  0.1043930E+01  0.7957747E-01            NaN
         13   -1    0    0    0    0  0.00000000000E+00  0.00000000000E+00  0.74505805969E-08  0.10566000000E+00  0.10566000000E+00 0.  1.
     999900   -1    0    0    0    0 -0.00000000000E+00 -0.00000000000E+00 -0.74505805969E-08  0.93827000000E+00  0.93827000000E+00 0.  1.
     999902    2    1    2    0    0  0.13853356472E-01 -0.16774065934E-01 -0.87883670025E-02  0.10204668338E+01  0.10201970588E+01 0.  0.
     999903    2    3    3    0    0 -0.59312146356E-02  0.12540255311E+00  0.18675599786E-01  0.12841308557E+00  0.19497766176E-01 0.  0.
         14    1    1    2    0    0 -0.13853356472E-01  0.16774065934E-01  0.87883670025E-02  0.23463166199E-01  0.00000000000E+00 0. -1.
     999901    1    3    3    0    0  0.19784571107E-01 -0.14217661904E+00 -0.27463966789E-01  0.89205374823E+00  0.88000000000E+00 0. -1.
        -11    1    4    4    0    0  0.50335251681E-03  0.11317648209E+00  0.17686432798E-01  0.11455234824E+00  0.51100000000E-03 0. -1.
         11    1    4    4    0    0 -0.64345671524E-02  0.12226071020E-01  0.98916698788E-03  0.13860737331E-01  0.51100000000E-03 0.  1.
</event>
<event>
 8    1  0.1199892E+005  0.1043930E+01  0.7957747E-01            NaN
         13   -1    0    0    0    0  0.00000000000E+00  0.00000000000E+00  0.74505805969E-08  0.10566000000E+00  0.10566000000E+00 0. -1.
     999900   -1    0    0    0    0 -0.00000000000E+00 -0.00000000000E+00 -0.74505805969E-08  0.93827000000E+00  0.93827000000E+00 0. -1.
     999902    2    1    2    0    0  0.32792211822E-02 -0.11084199104E-01  0.16437147614E-01  0.10238354091E+01  0.10236381941E+01 0.  0.
     999903    2    3    3    0    0 -0.83687158495E-03 -0.11037170448E+00  0.77025650124E-01  0.13617223111E+00  0.20671532244E-01 0.  0.
         14    1    1    2    0    0 -0.32792211822E-02  0.11084199104E-01 -0.16437147614E-01  0.20094590889E-01  0.00000000000E+00 0.  1.
     999901    1    3    3    0    0  0.41160927671E-02  0.99287505372E-01 -0.60588502510E-01  0.88766317800E+00  0.88000000000E+00 0. -1.
        -11    1    4    4    0    0 -0.92567003200E-02 -0.36176044818E-01  0.30235005011E-01  0.48050071473E-01  0.51100000000E-03 0. -1.
         11    1    4    4    0    0  0.84198287350E-02 -0.74195659658E-01  0.46790645113E-01  0.88122159637E-01  0.51100000000E-03 0.  1.
</event>
<event>
 8    1  0.1199892E+005  0.1043930E+01  0.7957747E-01            NaN
         13   -1    0    0    0    0  0.00000000000E+00  0.00000000000E+00  0.74505805969E-08  0.10566000000E+00  0.10566000000E+00 0. -1.
     999900   -1    0    0    0    0 -0.00000000000E+00 -0.00000000000E+00 -0.74505805969E-08  0.93827000000E+00  0.93827000000E+00 0.  1.
     999902    2    1    2    0    0 -0.11345192985E-02 -0.13326480961E-01  0.19334950916E-01  0.10204199478E+01  0.10201490809E+01 0.  0.
     999903    2    3    3    0    0  0.33685443162E-01 -0.60454933463E-01 -0.10745566120E+00  0.12940402191E+00  0.20228042465E-01 0.  0.
         14    1    1    2    0    0  0.11345192985E-02  0.13326480961E-01 -0.19334950916E-01  0.23510052228E-01  0.00000000000E+00 0.  1.
     999901    1    3    3    0    0 -0.34819962460E-01  0.47128452503E-01  0.12679061211E+00  0.89101592586E+00  0.88000000000E+00 0. -1.
        -11    1    4    4    0    0  0.21615655476E-01 -0.38522625301E-01 -0.49941429170E-01  0.66675607911E-01  0.51100000000E-03 0.  1.
         11    1    4    4    0    0  0.12069787686E-01 -0.21932308162E-01 -0.57514232027E-01  0.62728413998E-01  0.51100000000E-03 0. -1.
</event>
<event>
 8    1  0.1199892E+005  0.1043930E+01  0.7957747E-01            NaN
         13   -1    0    0    0    0  0.00000000000E+00  0.00000000000E+00  0.74505805969E-08  0.10566000000E+00  0.10566000000E+00 0. -1.
     999900   -1    0    0    0    0 -0.00000000000E+00 -0.00000000000E+00 -0.74505805969E-08  0.93827000000E+00  0.93827000000E+00 0.  1.
     999902    2    1    2    0    0  0.15473441282E-01  0.95264348673E-02 -0.14399483017E-01  0.10207454047E+01  0.10204820703E+01 0.  0.
     999903    2    3    3    0    0 -0.63475352121E-01  0.91728064554E-01  0.63930902279E-01  0.12994482707E+00  0.18850455253E-01 0.  0.
         14    1    1    2    0    0 -0.15473441282E-01 -0.95264348673E-02  0.14399483017E-01  0.23184595264E-01  0.00000000000E+00 0. -1.
     999901    1    3    3    0    0  0.78948793403E-01 -0.82201629687E-01 -0.78330385296E-01  0.89080057766E+00  0.88000000000E+00 0. -1.
        -11    1    4    4    0    0 -0.38215972918E-01  0.43659096205E-01  0.25290715472E-01  0.63296592938E-01  0.51100000000E-03 0.  1.
         11    1    4    4    0    0 -0.25259379202E-01  0.48068968350E-01  0.38640186807E-01  0.66648234135E-01  0.51100000000E-03 0. -1.
</event>
<event>
 8    1  0.1199892E+005  0.1043930E+01  0.7957747E-01            NaN
         13   -1    0    0    0    0  0.00000000000E+00  0.00000000000E+00  0.74505805969E-08  0.10566000000E+00  0.10566000000E+00 0.  1.
     999900   -1    0    0    0    0 -0.00000000000E+00 -0.00000000000E+00 -0.74505805969E-08  0.93827000000E+00  0.93827000000E+00 0. -1.
     999902    2    1    2    0    0 -0.86283674546E-02  0.21502141502E-01  0.20551985749E-02  0.10206702783E+01  0.10204052147E+01 0.  0.
     999903    2    3    3    0    0  0.66725858152E-01 -0.93052194421E-01  0.54981663962E-01  0.12848074350E+00  0.19320120253E-01 0.  0.
         14    1    1    2    0    0  0.86283674546E-02 -0.21502141502E-01 -0.20551985749E-02  0.23259721737E-01  0.00000000000E+00 0. -1.
     999901    1    3    3    0    0 -0.75354225607E-01  0.11455433592E+00 -0.52926465387E-01  0.89218953476E+00  0.88000000000E+00 0. -1.
        -11    1    4    4    0    0  0.53911122201E-01 -0.70141007753E-01  0.50434249900E-01  0.10183341666E+00  0.51100000000E-03 0. -1.
         11    1    4    4    0    0  0.12814735951E-01 -0.22911186668E-01  0.45474140619E-02  0.26647326840E-01  0.51100000000E-03 0.  1.
</event>
<event>
 8    1  0.1199892E+005  0.1043930E+01  0.7957747E-01            NaN
         13   -1    0    0    0    0  0.00000000000E+00  0.00000000000E+00  0.74505805969E-08  0.10566000000E+00  0.10566000000E+00 0.  1.
     999900   -1    0    0    0    0 -0.00000000000E+00 -0.00000000000E+00 -0.74505805969E-08  0.93827000000E+00  0.93827000000E+00 0.  1.
     999902    2    1    2    0    0 -0.21773245091E-01  0.69193512183E-02 -0.61799377772E-02  0.10202626543E+01  0.10199881080E+01 0.  0.
     999903    2    3    3    0    0  0.61638143444E-01  0.89001932980E-01  0.68016581682E-01  0.12942028131E+00  0.20068608031E-01 0.  0.
         14    1    1    2    0    0  0.21773245091E-01 -0.69193512183E-02  0.61799377772E-02  0.23667345732E-01  0.00000000000E+00 0.  1.
     999901    1    3    3    0    0 -0.83411388534E-01 -0.82082581761E-01 -0.74196519459E-01  0.89084237296E+00  0.88000000000E+00 0.  1.
        -11    1    4    4    0    0  0.35901537700E-01  0.43226584592E-01  0.24864649467E-01  0.61448921380E-01  0.51100000000E-03 0.  1.
         11    1    4    4    0    0  0.25736605744E-01  0.45775348388E-01  0.43151932215E-01  0.67971359925E-01  0.51100000000E-03 0. -1.
</event>
<event>
 8    1  0.1199892E+005  0.1043930E+01  0.7957747E-01            NaN
         13   -1    0    0    0    0  0.00000000000E+00  0.00000000000E+00  0.74505805969E-08  0.10566000000E+00  0.10566000000E+00 0. -1.
     999900   -1    0    0    0    0 -0.00000000000E+00 -0.00000000000E+00 -0.74505805969E-08  0.93827000000E+00  0.93827000000E+00 0. -1.
     999902    2    1    2    0    0 -0.37929001589E-02  0.21917740161E-01  0.88763516179E-02  0.10199808237E+01  0.10196996213E+01 0.  0.
     999903    2    3    3    0    0  0.94326486692E-01  0.59420644817E-01  0.66607265057E-01  0.13185541576E+00  0.22825945439E-01 0.  0.
         14    1    1    2    0    0  0.37929001589E-02 -0.21917740161E-01 -0.88763516179E-02  0.23949176258E-01  0.00000000000E+00 0.  1.
     999901    1    3    3    0    0 -0.98119386851E-01 -0.37502904656E-01 -0.57730913439E-01  0.88812540798E+00  0.88000000000E+00 0. -1.
        -11    1    4    4    0    0  0.71156468836E-01  0.43873915905E-01  0.37794993991E-01  0.91743589672E-01  0.51100000000E-03 0.  1.
         11    1    4    4    0    0  0.23170017856E-01  0.15546728912E-01  0.28812271066E-01  0.40111826090E-01  0.51100000000E-03 0. -1.
</event>
<event>
 8    1  0.1600786E+005  0.1043930E+01  0.7957747E-01            NaN
         13   -1    0    0    0    0  0.00000000000E+00  0.00000000000E+00  0.74505805969E-08  0.10566000000E+00  0.10566000000E+00 0. -1.
     999900   -1    0    0    0    0 -0.00000000000E+00 -0.00000000000E+00 -0.74505805969E-08  0.93827000000E+00  0.93827000000E+00 0. -1.
     999902    2    1    2    0    0 -0.44791146751E-02  0.14478667750E-01  0.19431654324E-01  0.10192868777E+01  0.10189889379E+01 0.  0.
     999903    2    3    3    0    0 -0.27880306183E-01  0.50940600868E-01 -0.11269928573E+00  0.12836843379E+00  0.20126338517E-01 0.  0.
         14    1    1    2    0    0  0.44791146751E-02 -0.14478667750E-01 -0.19431654324E-01  0.24643122323E-01  0.00000000000E+00 0. -1.
     999901    1    3    3    0    0  0.23401191508E-01 -0.36461933118E-01  0.13213094005E+00  0.89091844388E+00  0.88000000000E+00 0.  1.
        -11    1    4    4    0    0 -0.19008027979E-01  0.14493914214E-01 -0.41727713874E-01  0.48092014961E-01  0.51100000000E-03 0. -1.
         11    1    4    4    0    0 -0.88722782044E-02  0.36446686654E-01 -0.70971571852E-01  0.80276418833E-01  0.51100000000E-03 0.  1.
</event>
<event>
 8    1  0.1199892E+005  0.1043930E+01  0.7957747E-01            NaN
         13   -1    0    0    0    0  0.00000000000E+00  0.00000000000E+00  0.74505805969E-08  0.10566000000E+00  0.10566000000E+00 0. -1.
     999900   -1    0    0    0    0 -0.00000000000E+00 -0.00000000000E+00 -0.74505805969E-08  0.93827000000E+00  0.93827000000E+00 0.  1.
     999902    2    1    2    0    0  0.85687046640E-02  0.29706592678E-01 -0.37649302592E-02  0.10127839080E+01  0.10123048776E+01 0.  0.
     999903    2    3    3    0    0  0.66763588891E-01  0.30806026268E-02 -0.10351958005E+00  0.12483876438E+00  0.20038630776E-01 0.  0.
         14    1    1    2    0    0 -0.85687046640E-02 -0.29706592678E-01  0.37649302592E-02  0.31146092018E-01  0.00000000000E+00 0. -1.
     999901    1    3    3    0    0 -0.58194884227E-01  0.26625990051E-01  0.99754649790E-01  0.88794514360E+00  0.88000000000E+00 0. -1.
        -11    1    4    4    0    0  0.46415142341E-01  0.99184031936E-02 -0.61873390945E-01  0.77982804441E-01  0.51100000000E-03 0.  1.
         11    1    4    4    0    0  0.20348446550E-01 -0.68378005668E-02 -0.41646189105E-01  0.46855959936E-01  0.51100000000E-03 0. -1.
</event>
<event>
 8    1  0.1199892E+005  0.1043930E+01  0.7957747E-01            NaN
         13   -1    0    0    0    0  0.00000000000E+00  0.00000000000E+00  0.74505805969E-08  0.10566000000E+00  0.10566000000E+00 0.  1.
     999900   -1    0    0    0    0 -0.00000000000E+00 -0.00000000000E+00 -0.74505805969E-08  0.93827000000E+00  0.93827000000E+00 0.  1.
     999902    2    1    2    0    0 -0.90344409102E-02  0.20755517181E-01  0.54627116417E-02  0.10206436556E+01  0.10203779780E+01 0.  0.
     999903    2    3    3    0    0 -0.58012607838E-01 -0.10120738533E+00 -0.52350208995E-01  0.12900687743E+00  0.17141544000E-01 0.  0.
         14    1    1    2    0    0  0.90344409102E-02 -0.20755517181E-01 -0.54627116417E-02  0.23286344378E-01  0.00000000000E+00 0.  1.
     999901    1    3    3    0    0  0.48978166927E-01  0.12196290251E+00  0.57812920637E-01  0.89163677819E+00  0.88000000000E+00 0. -1.
        -11    1    4    4    0    0 -0.73897630780E-02 -0.97121493303E-02 -0.11397447796E-01  0.16706207835E-01  0.51100000000E-03 0.  1.
         11    1    4    4    0    0 -0.50622844760E-01 -0.91495235997E-01 -0.40952761199E-01  0.11230066960E+00  0.51100000000E-03 0. -1.
</event>
<event>
 8    1  0.1199892E+005  0.1043930E+01  0.7957747E-01            NaN
         13   -1    0    0    0    0  0.00000000000E+00  0.00000000000E+00  0.74505805969E-08  0.10566000000E+00  0.10566000000E+00 0. -1.
     999900   -1    0    0    0    0 -0.00000000000E+00 -0.00000000000E+00 -0.74505805969E-08  0.93827000000E+00  0.93827000000E+00 0. -1.
     999902    2    1    2    0    0  0.15124574566E-01 -0.78513701388E-02 -0.16525393923E-01  0.10201921523E+01  0.10199159486E+01 0.  0.
     999903    2    3    3    0    0 -0.12622911987E+00  0.10980806274E-01  0.63855057391E-02  0.12841839898E+00  0.19903308847E-01 0.  0.
         14    1    1    2    0    0 -0.15124574566E-01  0.78513701388E-02  0.16525393923E-01  0.23737847694E-01  0.00000000000E+00 0. -1.
     999901    1    3    3    0    0  0.14135369444E+00 -0.18832176413E-01 -0.22910899662E-01  0.89177375333E+00  0.88000000000E+00 0. -1.
        -11    1    4    4    0    0 -0.95532235827E-01  0.14374111605E-01 -0.11845913488E-02  0.96616186761E-01  0.51100000000E-03 0.  1.
         11    1    4    4    0    0 -0.30696884043E-01 -0.33933053308E-02  0.75700970878E-02  0.31802212218E-01  0.51100000000E-03 0. -1.
</event>
<event>
 8    1  0.1199892E+005  0.1043930E+01  0.7957747E-01            NaN
         13   -1    0    0    0    0  0.00000000000E+00  0.00000000000E+00  0.74505805969E-08  0.10566000000E+00  0.10566000000E+00 0. -1.
     999900   -1    0    0    0    0 -0.00000000000E+00 -0.00000000000E+00 -0.74505805969E-08  0.93827000000E+00  0.93827000000E+00 0. -1.
     999902    2    1    2    0    0 -0.16248795655E-01  0.26370950300E-02 -0.16188681788E-01  0.10208421017E+01  0.10205809843E+01 0.  0.
     999903    2    3    3    0    0 -0.12337153955E+00  0.36390158826E-01 -0.30092712314E-01  0.13359474405E+00  0.19929974196E-01 0.  0.
         14    1    1    2    0    0  0.16248795655E-01 -0.26370950300E-02  0.16188681788E-01  0.23087898312E-01  0.00000000000E+00 0. -1.
     999901    1    3    3    0    0  0.10712274390E+00 -0.33753063796E-01  0.13904030526E-01  0.88724735764E+00  0.88000000000E+00 0.  1.
        -11    1    4    4    0    0 -0.58253190551E-01  0.73769684504E-02 -0.16781512229E-01  0.61071549404E-01  0.51100000000E-03 0. -1.
         11    1    4    4    0    0 -0.65118349002E-01  0.29013190376E-01 -0.13311200085E-01  0.72523194643E-01  0.51100000000E-03 0.  1.
</event>
<event>
 8    1  0.1199892E+005  0.1043930E+01  0.7957747E-01            NaN
         13   -1    0    0    0    0  0.00000000000E+00  0.00000000000E+00  0.74505805969E-08  0.10566000000E+00  0.10566000000E+00 0. -1.
     999900   -1    0    0    0    0 -0.00000000000E+00 -0.00000000000E+00 -0.74505805969E-08  0.93827000000E+00  0.93827000000E+00 0.  1.
     999902    2    1    2    0    0 -0.54782373199E-02 -0.13301463593E-01 -0.18394333888E-01  0.10205785217E+01  0.10203113385E+01 0.  0.
     999903    2    3    3    0    0 -0.48153596578E-02 -0.77308489056E-01  0.10245256862E+00  0.13001616426E+00  0.20196137833E-01 0.  0.
         14    1    1    2    0    0  0.54782373199E-02  0.13301463593E-01  0.18394333888E-01  0.23351478262E-01  0.00000000000E+00 0. -1.
     999901    1    3    3    0    0 -0.66287766218E-03  0.64007025462E-01 -0.12084690250E+00  0.89056235748E+00  0.88000000000E+00 0.  1.
        -11    1    4    4    0    0 -0.71154969797E-02 -0.42266981253E-01  0.70647612851E-01  0.82634583100E-01  0.51100000000E-03 0. -1.
         11    1    4    4    0    0  0.23001373219E-02 -0.35041507802E-01  0.31804955766E-01  0.47381581158E-01  0.51100000000E-03 0.  1.
</event>
<event>
 8    1  0.1199892E+005  0.1043930E+01  0.7957747E-01            NaN
         13   -1    0    0    0    0  0.00000000000E+00  0.00000000000E+00  0.74505805969E-08  0.10566000000E+00  0.10566000000E+00 0.  1.
     999900   -1    0    0    0    0 -0.00000000000E+00 -0.00000000000E+00 -0.74505805969E-08  0.93827000000E+00  0.93827000000E+00 0.  1.
     999902    2    1    2    0    0 -0.19897196237E-01 -0.27218334771E-03 -0.12456151159E-01  0.10204538801E+01  0.10201838037E+01 0.  0.
     999903    2    3    3    0    0  0.12100471029E+00 -0.36999977619E-01  0.65200161502E-02  0.12828664635E+00  0.20095142826E-01 0.  0.
         14    1    1    2    0    0  0.19897196237E-01  0.27218334771E-03  0.12456151159E-01  0.23476119857E-01  0.00000000000E+00 0.  1.
     999901    1    3    3    0    0 -0.14090190652E+00  0.36727794271E-01 -0.18976167309E-01  0.89216723380E+00  0.88000000000E+00 0. -1.
        -11    1    4    4    0    0  0.73345218252E-01 -0.31526242016E-01  0.83878016688E-02  0.80274786290E-01  0.51100000000E-03 0. -1.
         11    1    4    4    0    0  0.47659492033E-01 -0.54737356027E-02 -0.18677855186E-02  0.48011860056E-01  0.51100000000E-03 0.  1.
</event>
<event>
 8    1  0.1199892E+005  0.1043930E+01  0.7957747E-01            NaN
         13   -1    0    0    0    0  0.00000000000E+00  0.00000000000E+00  0.74505805969E-08  0.10566000000E+00  0.10566000000E+00 0.  1.
     999900   -1    0    0    0    0 -0.00000000000E+00 -0.00000000000E+00 -0.74505805969E-08  0.93827000000E+00  0.93827000000E+00 0. -1.
     999902    2    1    2    0    0 -0.13612854459E-01  0.42031811920E-02 -0.19454188837E-01  0.10198168915E+01  0.10195317799E+01 0.  0.
     999903    2    3    3    0    0  0.46780413416E-01  0.85656206264E-01 -0.85500259806E-01  0.13153539017E+00  0.21584061006E-01 0.  0.
         14    1    1    2    0    0  0.13612854459E-01 -0.42031811920E-02  0.19454188837E-01  0.24113108509E-01  0.00000000000E+00 0.  1.
     999901    1    3    3    0    0 -0.60393267875E-01 -0.81453025072E-01  0.66046070969E-01  0.88828150132E+00  0.88000000000E+00 0.  1.
        -11    1    4    4    0    0  0.14079710235E-01  0.14636154068E-01 -0.27465983124E-01  0.34162795497E-01  0.51100000000E-03 0. -1.
         11    1    4    4    0    0  0.32700703181E-01  0.71020052195E-01 -0.58034276682E-01  0.97372594673E-01  0.51100000000E-03 0.  1.
</event>
<event>
 8    1  0.1199892E+005  0.1043930E+01  0.7957747E-01            NaN
         13   -1    0    0    0    0  0.00000000000E+00  0.00000000000E+00  0.74505805969E-08  0.10566000000E+00  0.10566000000E+00 0.  1.
     999900   -1    0    0    0    0 -0.00000000000E+00 -0.00000000000E+00 -0.74505805969E-08  0.93827000000E+00  0.93827000000E+00 0.  1.
     999902    2    1    2    0    0 -0.18770549675E-01 -0.11256559475E-01  0.14835947644E-02  0.10219927094E+01  0.10217572380E+01 0.  0.
     999903    2    3    3    0    0  0.12263429185E-01  0.12206012857E+00  0.39835813022E-01  0.13058520448E+00  0.20409236797E-01 0.  0.
         14    1    1    2    0    0  0.18770549675E-01  0.11256559475E-01 -0.14835947644E-02  0.21937290620E-01  0.00000000000E+00 0.  1.
     999901    1    3    3    0    0 -0.31033978860E-01 -0.13331668805E+00 -0.38352218258E-01  0.89140750490E+00  0.88000000000E+00 0. -1.
        -11    1    4    4    0    0  0.34190635401E-02  0.30781486984E-01  0.99323710945E-03  0.30990927340E-01  0.51100000000E-03 0.  1.
         11    1    4    4    0    0  0.88443656446E-02  0.91278641587E-01  0.38842575913E-01  0.99594277136E-01  0.51100000000E-03 0. -1.
</event>
<event>
 8    1  0.1199892E+005  0.1043930E+01  0.7957747E-01            NaN
         13   -1    0    0    0    0  0.00000000000E+00  0.00000000000E+00  0.74505805969E-08  0.10566000000E+00  0.10566000000E+00 0. -1.
     999900   -1    0    0    0    0 -0.00000000000E+00 -0.00000000000E+00 -0.74505805969E-08  0.93827000000E+00  0.93827000000E+00 0. -1.
     999902    2    1    2    0    0  0.16959711978E-01  0.16843289377E-01 -0.91702984785E-03  0.10200099421E+01  0.10197294312E+01 0.  0.
     999903    2    3    3    0    0 -0.94851406702E-01  0.86856531940E-01 -0.15564020934E-02  0.13017625582E+00  0.20064613080E-01 0.  0.
         14    1    1    2    0    0 -0.16959711978E-01 -0.16843289377E-01  0.91702984785E-03  0.23920057926E-01  0.00000000000E+00 0.  1.
     999901    1    3    3    0    0  0.11181111868E+00 -0.70013242564E-01  0.63937224559E-03  0.88983368625E+00  0.88000000000E+00 0. -1.
        -11    1    4    4    0    0 -0.90970255122E-02  0.16597596082E-01  0.32459638070E-02  0.19210243905E-01  0.51100000000E-03 0. -1.
         11    1    4    4    0    0 -0.85754381190E-01  0.70258935859E-01 -0.48023659004E-02  0.11096601192E+00  0.51100000000E-03 0.  1.
</event>
<event>
 8    1  0.1199892E+005  0.1043930E+01  0.7957747E-01            NaN
         13   -1    0    0    0    0  0.00000000000E+00  0.00000000000E+00  0.74505805969E-08  0.10566000000E+00  0.10566000000E+00 0.  1.
     999900   -1    0    0    0    0 -0.00000000000E+00 -0.00000000000E+00 -0.74505805969E-08  0.93827000000E+00  0.93827000000E+00 0.  1.
     999902    2    1    2    0    0  0.10195780806E-01 -0.14815964322E-01  0.16657019555E-01  0.10194162682E+01  0.10191214868E+01 0.  0.
     999903    2    3    3    0    0 -0.10529935990E+00 -0.14112279284E-01  0.72387665240E-01  0.13012130728E+00  0.20111412343E-01 0.  0.
         14    1    1    2    0    0 -0.10195780806E-01  0.14815964322E-01 -0.16657019555E-01  0.24513731774E-01  0.00000000000E+00 0.  1.
     999901    1    3    3    0    0  0.11549514071E+00 -0.70368503874E-03 -0.55730645685E-01  0.88929496095E+00  0.88000000000E+00 0. -1.
        -11    1    4    4    0    0 -0.80539628308E-01 -0.13067597282E-01  0.44993578186E-01  0.93177663770E-01  0.51100000000E-03 0. -1.
         11    1    4    4    0    0 -0.24759731594E-01 -0.10446820014E-02  0.27394087054E-01  0.36943643508E-01  0.51100000000E-03 0.  1.
</event>
<event>
 8    1  0.1199892E+005  0.1043930E+01  0.7957747E-01            NaN
         13   -1    0    0    0    0  0.00000000000E+00  0.00000000000E+00  0.74505805969E-08  0.10566000000E+00  0.10566000000E+00 0.  1.
     999900   -1    0    0    0    0 -0.00000000000E+00 -0.00000000000E+00 -0.74505805969E-08  0.93827000000E+00  0.93827000000E+00 0.  1.
     999902    2    1    2    0    0  0.33966930720E-02  0.25808980285E-02  0.23481430583E-01  0.10200642056E+01  0.10197849810E+01 0.  0.
     999903    2    3    3    0    0 -0.30475079761E-01  0.54762419628E-02  0.12800617655E+00  0.13322650767E+00  0.20124646541E-01 0.  0.
         14    1    1    2    0    0 -0.33966930720E-02 -0.25808980285E-02 -0.23481430583E-01  0.23865794365E-01  0.00000000000E+00 0. -1.
     999901    1    3    3    0    0  0.33871772833E-01 -0.28953439343E-02 -0.10452474597E+00  0.88683769796E+00  0.88000000000E+00 0.  1.
        -11    1    4    4    0    0 -0.18196732677E-01  0.13105175143E-01  0.75020430262E-01  0.78301933395E-01  0.51100000000E-03 0. -1.
         11    1    4    4    0    0 -0.12278347085E-01 -0.76289331800E-02  0.52985746288E-01  0.54924574275E-01  0.51100000000E-03 0.  1.
</event>
<event>
 8    1  0.1199892E+005  0.1043930E+01  0.7957747E-01            NaN
         13   -1    0    0    0    0  0.00000000000E+00  0.00000000000E+00  0.74505805969E-08  0.10566000000E+00  0.10566000000E+00 0. -1.
     999900   -1    0    0    0    0 -0.00000000000E+00 -0.00000000000E+00 -0.74505805969E-08  0.93827000000E+00  0.93827000000E+00 0. -1.
     999902    2    1    2    0    0  0.20726767189E-01 -0.10684000471E-02 -0.13410887800E-01  0.10192198347E+01  0.10189202516E+01 0.  0.
     999903    2    3    3    0    0  0.10575047635E-01  0.10576451942E+00 -0.73406158026E-01  0.13067283959E+00  0.19722113760E-01 0.  0.
         14    1    1    2    0    0 -0.20726767189E-01  0.10684000471E-02  0.13410887800E-01  0.24710165283E-01  0.00000000000E+00 0. -1.
     999901    1    3    3    0    0  0.10151719554E-01 -0.10683291947E+00  0.59995270226E-01  0.88854699512E+00  0.88000000000E+00 0.  1.
        -11    1    4    4    0    0  0.14165217995E-01  0.55729782545E-01 -0.33335869794E-01  0.66468063002E-01  0.51100000000E-03 0.  1.
         11    1    4    4    0    0 -0.35901703596E-02  0.50034736874E-01 -0.40070288232E-01  0.64204776592E-01  0.51100000000E-03 0. -1.
</event>
<event>
 8    1  0.1199892E+005  0.1043930E+01  0.7957747E-01            NaN
         13   -1    0    0    0    0  0.00000000000E+00  0.00000000000E+00  0.74505805969E-08  0.10566000000E+00  0.10566000000E+00 0. -1.
     999900   -1    0    0    0    0 -0.00000000000E+00 -0.00000000000E+00 -0.74505805969E-08  0.93827000000E+00  0.93827000000E+00 0. -1.
     999902    2    1    2    0    0  0.19589614432E-01  0.10332281094E-01 -0.58478350441E-02  0.10210235336E+01  0.10207665502E+01 0.  0.
     999903    2    3    3    0    0 -0.12044649028E+00  0.14243350837E-01 -0.38472668624E-01  0.12934546009E+00  0.23235140420E-01 0.  0.
         14    1    1    2    0    0 -0.19589614432E-01 -0.10332281094E-01  0.58478350441E-02  0.22906466356E-01  0.00000000000E+00 0. -1.
     999901    1    3    3    0    0  0.14003610472E+00 -0.39110697432E-02  0.32624833580E-01  0.89167807355E+00  0.88000000000E+00 0.  1.
        -11    1    4    4    0    0 -0.50698829756E-01  0.16113595034E-01 -0.22519666309E-01  0.57770371084E-01  0.51100000000E-03 0. -1.
         11    1    4    4    0    0 -0.69747660527E-01 -0.18702441963E-02 -0.15953002315E-01  0.71575089006E-01  0.51100000000E-03 0.  1.
</event>
<event>
 8    1  0.1199892E+005  0.1043930E+01  0.7957747E-01            NaN
         13   -1    0    0    0    0  0.00000000000E+00  0.00000000000E+00  0.74505805969E-08  0.10566000000E+00  0.10566000000E+00 0.  1.
     999900   -1    0    0    0    0 -0.00000000000E+00 -0.00000000000E+00 -0.74505805969E-08  0.93827000000E+00  0.93827000000E+00 0.  1.
     999902    2    1    2    0    0  0.99177438350E-02  0.20947011636E-01  0.64358020140E-02  0.10198767572E+01  0.10195930764E+01 0.  0.
     999903    2    3    3    0    0 -0.51798818004E-01 -0.63052767537E-01  0.98610765441E-01  0.12894403207E+00  0.15611255747E-01 0.  0.
         14    1    1    2    0    0 -0.99177438350E-02 -0.20947011636E-01 -0.64358020140E-02  0.24053242750E-01  0.00000000000E+00 0. -1.
     999901    1    3    3    0    0  0.61716561839E-01  0.83999779172E-01 -0.92174963427E-01  0.89093272518E+00  0.88000000000E+00 0.  1.
        -11    1    4    4    0    0 -0.17907336189E-01 -0.29123204785E-01  0.31741358894E-01  0.46654139492E-01  0.51100000000E-03 0.  1.
         11    1    4    4    0    0 -0.33891481815E-01 -0.33929562752E-01  0.66869406548E-01  0.82289892582E-01  0.51100000000E-03 0. -1.
</event>
<event>
 8    1  0.1199892E+005  0.1043930E+01  0.7957747E-01            NaN
         13   -1    0    0    0    0  0.00000000000E+00  0.00000000000E+00  0.74505805969E-08  0.10566000000E+00  0.10566000000E+00 0.  1.
     999900   -1    0    0    0    0 -0.00000000000E+00 -0.00000000000E+00 -0.74505805969E-08  0.93827000000E+00  0.93827000000E+00 0.  1.
     999902    2    1    2    0    0 -0.85429301429E-03  0.19750227557E-01 -0.16493841130E-01  0.10181841634E+01  0.10178586064E+01 0.  0.
     999903    2    3    3    0    0  0.97876444330E-01 -0.16635981652E-01  0.76646716562E-01  0.12703497379E+00  0.20164601819E-01 0.  0.
         14    1    1    2    0    0  0.85429301429E-03 -0.19750227557E-01  0.16493841130E-01  0.25745836563E-01  0.00000000000E+00 0.  1.
     999901    1    3    3    0    0 -0.98730737344E-01  0.36386209209E-01 -0.93140557692E-01  0.89114918964E+00  0.88000000000E+00 0.  1.
        -11    1    4    4    0    0  0.92727567437E-01 -0.17371848045E-01  0.77029326682E-01  0.12179475012E+00  0.51100000000E-03 0. -1.
         11    1    4    4    0    0  0.51488768925E-02  0.73586639380E-03 -0.38261012000E-03  0.52402236696E-02  0.51100000000E-03 0.  1.
</event>
<event>
 8    1  0.1199892E+005  0.1043930E+01  0.7957747E-01            NaN
         13   -1    0    0    0    0  0.00000000000E+00  0.00000000000E+00  0.74505805969E-08  0.10566000000E+00  0.10566000000E+00 0.  1.
     999900   -1    0    0    0    0 -0.00000000000E+00 -0.00000000000E+00 -0.74505805969E-08  0.93827000000E+00  0.93827000000E+00 0.  1.
     999902    2    1    2    0    0  0.97330694574E-02  0.35577111513E-02 -0.21077039326E-01  0.10204431625E+01  0.10201728365E+01 0.  0.
     999903    2    3    3    0    0 -0.40088920768E-01  0.56801066871E-01  0.10590199441E+00  0.12834408691E+00  0.20578859473E-01 0.  0.
         14    1    1    2    0    0 -0.97330694574E-02 -0.35577111513E-02  0.21077039326E-01  0.23486837515E-01  0.00000000000E+00 0.  1.
     999901    1    3    3    0    0  0.49821990225E-01 -0.53243355720E-01 -0.12697903374E+00  0.89209907558E+00  0.88000000000E+00 0.  1.
        -11    1    4    4    0    0 -0.15288430889E-01  0.27755970516E-01  0.65388152564E-01  0.72663619749E-01  0.51100000000E-03 0. -1.
         11    1    4    4    0    0 -0.24800489879E-01  0.29045096355E-01  0.40513841850E-01  0.55680467158E-01  0.51100000000E-03 0.  1.
</event>
<event>
 8    1  0.1199892E+005  0.1043930E+01  0.7957747E-01            NaN
         13   -1    0    0    0    0  0.00000000000E+00  0.00000000000E+00  0.74505805969E-08  0.10566000000E+00  0.10566000000E+00 0.  1.
     999900   -1    0    0    0    0 -0.00000000000E+00 -0.00000000000E+00 -0.74505805969E-08  0.93827000000E+00  0.93827000000E+00 0. -1.
     999902    2    1    2    0    0 -0.23135529528E-01 -0.61817197512E-02 -0.83689048289E-02  0.10185626006E+01  0.10182466628E+01 0.  0.
     999903    2    3    3    0    0  0.22247008076E-02  0.12283955342E+00  0.30292780021E-01  0.12795362011E+00  0.18972906966E-01 0.  0.
         14    1    1    2    0    0  0.23135529528E-01  0.61817197512E-02  0.83689048289E-02  0.25367399427E-01  0.00000000000E+00 0.  1.
     999901    1    3    3    0    0 -0.25360230336E-01 -0.12902127317E+00 -0.38661684850E-01  0.89060898047E+00  0.88000000000E+00 0.  1.
        -11    1    4    4    0    0  0.46463187869E-02  0.85951597438E-01  0.29436851826E-01  0.90972824222E-01  0.51100000000E-03 0. -1.
         11    1    4    4    0    0 -0.24216179793E-02  0.36887955982E-01  0.85592819443E-03  0.36980795885E-01  0.51100000000E-03 0.  1.
</event>
<event>
 8    1  0.1199892E+005  0.1043930E+01  0.7957747E-01            NaN
         13   -1    0    0    0    0  0.00000000000E+00  0.00000000000E+00  0.74505805969E-08  0.10566000000E+00  0.10566000000E+00 0. -1.
     999900   -1    0    0    0    0 -0.00000000000E+00 -0.00000000000E+00 -0.74505805969E-08  0.93827000000E+00  0.93827000000E+00 0. -1.
     999902    2    1    2    0    0  0.32711531242E-02  0.14842573113E-01 -0.11849264973E-01  0.10246580645E+01  0.10244768136E+01 0.  0.
     999903    2    3    3    0    0  0.11417204326E+00  0.69571160410E-01 -0.21105041944E-01  0.13596245002E+00  0.12843799940E-01 0.  0.
         14    1    1    2    0    0 -0.32711531242E-02 -0.14842573113E-01  0.11849264973E-01  0.19271935548E-01  0.00000000000E+00 0. -1.
     999901    1    3    3    0    0 -0.11090089014E+00 -0.54728587297E-01  0.92557769717E-02  0.88869561443E+00  0.88000000000E+00 0.  1.
        -11    1    4    4    0    0  0.63181464537E-01  0.31322626493E-01 -0.92433732765E-02  0.71124577060E-01  0.51100000000E-03 0.  1.
         11    1    4    4    0    0  0.50990578724E-01  0.38248533918E-01 -0.11861668668E-01  0.64837872961E-01  0.51100000000E-03 0. -1.
</event>
<event>
 8    1  0.1199892E+005  0.1043930E+01  0.7957747E-01            NaN
         13   -1    0    0    0    0  0.00000000000E+00  0.00000000000E+00  0.74505805969E-08  0.10566000000E+00  0.10566000000E+00 0.  1.
     999900   -1    0    0    0    0 -0.00000000000E+00 -0.00000000000E+00 -0.74505805969E-08  0.93827000000E+00  0.93827000000E+00 0. -1.
     999902    2    1    2    0    0  0.10153998878E-01 -0.21939630416E-01 -0.60752608141E-02  0.10190029089E+01  0.10186979771E+01 0.  0.
     999903    2    3    3    0    0  0.48368628840E-01 -0.11203106233E+00  0.46281108666E-01  0.13203165038E+00  0.19998312387E-01 0.  0.
         14    1    1    2    0    0 -0.10153998878E-01  0.21939630416E-01  0.60752608141E-02  0.24927091085E-01  0.00000000000E+00 0.  1.
     999901    1    3    3    0    0 -0.38214629962E-01  0.90091431917E-01 -0.52356369481E-01  0.88697125854E+00  0.88000000000E+00 0. -1.
        -11    1    4    4    0    0  0.22465966141E-01 -0.29077637449E-01  0.13909059721E-01  0.39293150772E-01  0.51100000000E-03 0. -1.
         11    1    4    4    0    0  0.25902662698E-01 -0.82953424885E-01  0.32372048945E-01  0.92738499604E-01  0.51100000000E-03 0.  1.
</event>
<event>
 8    1  0.1199892E+005  0.1043930E+01  0.7957747E-01            NaN
         13   -1    0    0    0    0  0.00000000000E+00  0.00000000000E+00  0.74505805969E-08  0.10566000000E+00  0.10566000000E+00 0.  1.
     999900   -1    0    0    0    0 -0.00000000000E+00 -0.00000000000E+00 -0.74505805969E-08  0.93827000000E+00  0.93827000000E+00 0. -1.
     999902    2    1    2    0    0 -0.60547699271E-02  0.29319655460E-01 -0.35366043030E-02  0.10137835242E+01  0.10133351982E+01 0.  0.
     999903    2    3    3    0    0  0.37944781214E-01 -0.10756336238E+00  0.35561628289E-01  0.12125812236E+00  0.20717612919E-01 0.  0.
         14    1    1    2    0    0  0.60547699271E-02 -0.29319655460E-01  0.35366043030E-02  0.30146475834E-01  0.00000000000E+00 0.  1.
     999901    1    3    3    0    0 -0.43999551142E-01  0.13688301784E+00 -0.39098232592E-01  0.89252540180E+00  0.88000000000E+00 0. -1.
        -11    1    4    4    0    0  0.19419307033E-01 -0.80882519706E-01  0.29174505365E-01  0.88150464343E-01  0.51100000000E-03 0.  1.
         11    1    4    4    0    0  0.18525474182E-01 -0.26680842671E-01  0.63871229242E-02  0.33107658020E-01  0.51100000000E-03 0. -1.
</event>
<event>
 8    1  0.1199892E+005  0.1043930E+01  0.7957747E-01            NaN
         13   -1    0    0    0    0  0.00000000000E+00  0.00000000000E+00  0.74505805969E-08  0.10566000000E+00  0.10566000000E+00 0. -1.
     999900   -1    0    0    0    0 -0.00000000000E+00 -0.00000000000E+00 -0.74505805969E-08  0.93827000000E+00  0.93827000000E+00 0. -1.
     999902    2    1    2    0    0 -0.21418010483E-01 -0.98664348692E-02 -0.21638306784E-02  0.10202496311E+01  0.10199747790E+01 0.  0.
     999903    2    3    3    0    0 -0.44115800784E-01 -0.33210045780E-01  0.11798179937E+00  0.13148920987E+00  0.17905203427E-01 0.  0.
         14    1    1    2    0    0  0.21418010483E-01  0.98664348692E-02  0.21638306784E-02  0.23680368943E-01  0.00000000000E+00 0.  1.
     999901    1    3    3    0    0  0.22697790301E-01  0.23343610911E-01 -0.12014563005E+00  0.88876042119E+00  0.88000000000E+00 0. -1.
        -11    1    4    4    0    0 -0.29166282341E-01 -0.13996418618E-01  0.80871227782E-01  0.87103320050E-01  0.51100000000E-03 0.  1.
         11    1    4    4    0    0 -0.14949518443E-01 -0.19213627162E-01  0.37110571585E-01  0.44385889816E-01  0.51100000000E-03 0. -1.
</event>
<event>
 8    1  0.1199892E+005  0.1043930E+01  0.7957747E-01            NaN
         13   -1    0    0    0    0  0.00000000000E+00  0.00000000000E+00  0.74505805969E-08  0.10566000000E+00  0.10566000000E+00 0. -1.
     999900   -1    0    0    0    0 -0.00000000000E+00 -0.00000000000E+00 -0.74505805969E-08  0.93827000000E+00  0.93827000000E+00 0. -1.
     999902    2    1    2    0    0  0.75039368708E-03  0.24608284883E-01 -0.74195707848E-02  0.10182165637E+01  0.10178918360E+01 0.  0.
     999903    2    3    3    0    0  0.12271971339E+00 -0.57944105891E-03  0.23686385975E-01  0.12890305485E+00  0.31535517450E-01 0.  0.
         14    1    1    2    0    0 -0.75039368708E-03 -0.24608284883E-01  0.74195707848E-02  0.25713436297E-01  0.00000000000E+00 0. -1.
     999901    1    3    3    0    0 -0.12196931971E+00  0.25187725941E-01 -0.31105956760E-01  0.88931350886E+00  0.88000000000E+00 0. -1.
        -11    1    4    4    0    0  0.40336836867E-01 -0.65817020638E-02  0.21699277452E-01  0.46276332757E-01  0.51100000000E-03 0. -1.
         11    1    4    4    0    0  0.82382876528E-01  0.60022610048E-02  0.19871085230E-02  0.82626722091E-01  0.51100000000E-03 0.  1.
</event>
<event>
 8    1  0.1199892E+005  0.1043930E+01  0.7957747E-01            NaN
         13   -1    0    0    0    0  0.00000000000E+00  0.00000000000E+00  0.74505805969E-08  0.10566000000E+00  0.10566000000E+00 0.  1.
     999900   -1    0    0    0    0 -0.00000000000E+00 -0.00000000000E+00 -0.74505805969E-08  0.93827000000E+00  0.93827000000E+00 0.  1.
     999902    2    1    2    0    0  0.67191932168E-04 -0.18104612222E-01 -0.14580067328E-01  0.10206843582E+01  0.10204196192E+01 0.  0.
     999903    2    3    3    0    0  0.58359766474E-01  0.10099947075E+00  0.49736709431E-01  0.12842853470E+00  0.20332063973E-01 0.  0.
         14    1    1    2    0    0 -0.67191932168E-04  0.18104612222E-01  0.14580067328E-01  0.23245641780E-01  0.00000000000E+00 0.  1.
     999901    1    3    3    0    0 -0.58292574542E-01 -0.11910408298E+00 -0.64316776759E-01  0.89225582352E+00  0.88000000000E+00 0. -1.
        -11    1    4    4    0    0  0.25673875974E-01  0.32683930167E-01  0.93689732602E-02  0.42607815945E-01  0.51100000000E-03 0. -1.
         11    1    4    4    0    0  0.32685890500E-01  0.68315540587E-01  0.40367736171E-01  0.85820718757E-01  0.51100000000E-03 0.  1.
</event>
<event>
 8    1  0.1199892E+005  0.1043930E+01  0.7957747E-01            NaN
         13   -1    0    0    0    0  0.00000000000E+00  0.00000000000E+00  0.74505805969E-08  0.10566000000E+00  0.10566000000E+00 0.  1.
     999900   -1    0    0    0    0 -0.00000000000E+00 -0.00000000000E+00 -0.74505805969E-08  0.93827000000E+00  0.93827000000E+00 0. -1.
     999902    2    1    2    0    0  0.45293138960E-02  0.10201871050E-01 -0.21336342588E-01  0.10198502913E+01  0.10195659784E+01 0.  0.
     999903    2    3    3    0    0 -0.54387132400E-01  0.70743562421E-01  0.90593336846E-01  0.12874721240E+00  0.20151432339E-01 0.  0.
         14    1    1    2    0    0 -0.45293138960E-02 -0.10201871050E-01  0.21336342588E-01  0.24079708726E-01  0.00000000000E+00 0.  1.
     999901    1    3    3    0    0  0.58916446296E-01 -0.60541691371E-01 -0.11192967943E+00  0.89110307887E+00  0.88000000000E+00 0. -1.
        -11    1    4    4    0    0 -0.47534563082E-01  0.69930622691E-01  0.84006969150E-01  0.11919420566E+00  0.51100000000E-03 0.  1.
         11    1    4    4    0    0 -0.68525693184E-02  0.81293973026E-03  0.65863676967E-02  0.95530067364E-02  0.51100000000E-03 0. -1.
</event>
<event>
 8    1  0.1199892E+005  0.1043930E+01  0.7957747E-01            NaN
         13   -1    0    0    0    0  0.00000000000E+00  0.00000000000E+00  0.74505805969E-08  0.10566000000E+00  0.10566000000E+00 0.  1.
     999900   -1    0    0    0    0 -0.00000000000E+00 -0.00000000000E+00 -0.74505805969E-08  0.93827000000E+00  0.93827000000E+00 0. -1.
     999902    2    1    2    0    0  0.99941343919E-02 -0.69017807217E-02  0.20759647990E-01  0.10198783829E+01  0.10195947409E+01 0.  0.
     999903    2    3    3    0    0  0.74618909884E-01 -0.20277550020E-01  0.10703702835E+00  0.13319971555E+00  0.17495086116E-01 0.  0.
         14    1    1    2    0    0 -0.99941343919E-02  0.69017807217E-02 -0.20759647990E-01  0.24051617078E-01  0.00000000000E+00 0.  1.
     999901    1    3    3    0    0 -0.64624775492E-01  0.13375769298E-01 -0.86277380356E-01  0.88667866737E+00  0.88000000000E+00 0. -1.
        -11    1    4    4    0    0  0.30861422092E-01 -0.16746921965E-01  0.52969208744E-01  0.63552222344E-01  0.51100000000E-03 0. -1.
         11    1    4    4    0    0  0.43757487792E-01 -0.35306280547E-02  0.54067819602E-01  0.69647493206E-01  0.51100000000E-03 0.  1.
</event>
<event>
 8    1  0.1199892E+005  0.1043930E+01  0.7957747E-01            NaN
         13   -1    0    0    0    0  0.00000000000E+00  0.00000000000E+00  0.74505805969E-08  0.10566000000E+00  0.10566000000E+00 0. -1.
     999900   -1    0    0    0    0 -0.00000000000E+00 -0.00000000000E+00 -0.74505805969E-08  0.93827000000E+00  0.93827000000E+00 0.  1.
     999902    2    1    2    0    0  0.20354120192E-01 -0.10767800981E-01 -0.70477695049E-02  0.10198487458E+01  0.10195643960E+01 0.  0.
     999903    2    3    3    0    0 -0.24604136370E-01 -0.78223400740E-01  0.98572543200E-01  0.12983349135E+00  0.20394245611E-01 0.  0.
         14    1    1    2    0    0 -0.20354120192E-01  0.10767800981E-01  0.70477695049E-02  0.24081254156E-01  0.00000000000E+00 0. -1.
     999901    1    3    3    0    0  0.44958256561E-01  0.67455599759E-01 -0.10562031270E+00  0.89001525449E+00  0.88000000000E+00 0.  1.
        -11    1    4    4    0    0 -0.20218947093E-02 -0.14305387819E-01  0.74610943084E-02  0.16268411974E-01  0.51100000000E-03 0.  1.
         11    1    4    4    0    0 -0.22582241660E-01 -0.63918012920E-01  0.91111448892E-01  0.11356507938E+00  0.51100000000E-03 0. -1.
</event>
<event>
 8    1  0.1199892E+005  0.1043930E+01  0.7957747E-01            NaN
         13   -1    0    0    0    0  0.00000000000E+00  0.00000000000E+00  0.74505805969E-08  0.10566000000E+00  0.10566000000E+00 0.  1.
     999900   -1    0    0    0    0 -0.00000000000E+00 -0.00000000000E+00 -0.74505805969E-08  0.93827000000E+00  0.93827000000E+00 0.  1.
     999902    2    1    2    0    0 -0.23314362672E-02 -0.22243928316E-01  0.60531453548E-02  0.10207595768E+01  0.10204965679E+01 0.  0.
     999903    2    3    3    0    0  0.67611406916E-01  0.10161869699E+00 -0.33840513145E-01  0.12844491525E+00  0.21336682030E-01 0.  0.
         14    1    1    2    0    0  0.23314362672E-02  0.22243928316E-01 -0.60531453548E-02  0.23170423187E-01  0.00000000000E+00 0. -1.
     999901    1    3    3    0    0 -0.69942843184E-01 -0.12386262530E+00  0.39893658500E-01  0.89231466157E+00  0.88000000000E+00 0. -1.
        -11    1    4    4    0    0  0.28924531220E-01  0.26450261878E-01 -0.76318674573E-02  0.39934338377E-01  0.51100000000E-03 0.  1.
         11    1    4    4    0    0  0.38686875696E-01  0.75168435109E-01 -0.26208645688E-01  0.88510576869E-01  0.51100000000E-03 0. -1.
</event>
<event>
 8    1  0.1199892E+005  0.1043930E+01  0.7957747E-01            NaN
         13   -1    0    0    0    0  0.00000000000E+00  0.00000000000E+00  0.74505805969E-08  0.10566000000E+00  0.10566000000E+00 0. -1.
     999900   -1    0    0    0    0 -0.00000000000E+00 -0.00000000000E+00 -0.74505805969E-08  0.93827000000E+00  0.93827000000E+00 0. -1.
     999902    2    1    2    0    0 -0.20058203754E-01  0.75756535790E-02 -0.11773127841E-01  0.10194692436E+01  0.10191757503E+01 0.  0.
     999903    2    3    3    0    0  0.46591791073E-01  0.10897294600E+00  0.47309452545E-01  0.12918031070E+00  0.20086573072E-01 0.  0.
         14    1    1    2    0    0  0.20058203754E-01 -0.75756535790E-02  0.11773127841E-01  0.24460756410E-01  0.00000000000E+00 0. -1.
     999901    1    3    3    0    0 -0.66649994827E-01 -0.10139729242E+00 -0.59082580386E-01  0.89028893289E+00  0.88000000000E+00 0. -1.
        -11    1    4    4    0    0  0.12674577565E-01  0.47157392797E-01  0.11829687334E-01  0.50246066863E-01  0.51100000000E-03 0.  1.
         11    1    4    4    0    0  0.33917213509E-01  0.61815553202E-01  0.35479765211E-01  0.78934243838E-01  0.51100000000E-03 0. -1.
</event>
<event>
 8    1  0.1199892E+005  0.1043930E+01  0.7957747E-01            NaN
         13   -1    0    0    0    0  0.00000000000E+00  0.00000000000E+00  0.74505805969E-08  0.10566000000E+00  0.10566000000E+00 0. -1.
     999900   -1    0    0    0    0 -0.00000000000E+00 -0.00000000000E+00 -0.74505805969E-08  0.93827000000E+00  0.93827000000E+00 0. -1.
     999902    2    1    2    0    0  0.13598521373E-01 -0.13501013199E-01  0.13545020239E-01  0.10204637537E+01  0.10201939070E+01 0.  0.
     999903    2    3    3    0    0 -0.47177893324E-01 -0.35912461034E-01  0.11636565046E+00  0.13211240005E+00  0.19931461637E-01 0.  0.
         14    1    1    2    0    0 -0.13598521373E-01  0.13501013199E-01 -0.13545020239E-01  0.23466246274E-01  0.00000000000E+00 0.  1.
     999901    1    3    3    0    0  0.60776414697E-01  0.22411447835E-01 -0.10282063023E+00  0.88835135368E+00  0.88000000000E+00 0. -1.
        -11    1    4    4    0    0 -0.58142053941E-02 -0.62037476136E-02  0.35797076567E-01  0.36796511799E-01  0.51100000000E-03 0. -1.
         11    1    4    4    0    0 -0.41363687930E-01 -0.29708713420E-01  0.80568573897E-01  0.95315888251E-01  0.51100000000E-03 0.  1.
</event>
<event>
 8    1  0.1199892E+005  0.1043930E+01  0.7957747E-01            NaN
         13   -1    0    0    0    0  0.00000000000E+00  0.00000000000E+00  0.74505805969E-08  0.10566000000E+00  0.10566000000E+00 0.  1.
     999900   -1    0    0    0    0 -0.00000000000E+00 -0.00000000000E+00 -0.74505805969E-08  0.93827000000E+00  0.93827000000E+00 0.  1.
     999902    2    1    2    0    0  0.29030118674E-02  0.13171137617E-01 -0.18554814653E-01  0.10209912230E+01  0.10207335058E+01 0.  0.
     999903    2    3    3    0    0  0.12334317330E+00  0.36391180642E-01  0.20175224331E-01  0.13164032553E+00  0.19603040621E-01 0.  0.
         14    1    1    2    0    0 -0.29030118674E-02 -0.13171137617E-01  0.18554814653E-01  0.22938777013E-01  0.00000000000E+00 0.  1.
     999901    1    3    3    0    0 -0.12044016143E+00 -0.23220043025E-01 -0.38730038984E-01  0.88935089745E+00  0.88000000000E+00 0.  1.
        -11    1    4    4    0    0  0.38921672605E-01  0.21135996480E-01  0.65577130327E-02  0.44776016647E-01  0.51100000000E-03 0. -1.
         11    1    4    4    0    0  0.84421500693E-01  0.15255184163E-01  0.13617511299E-01  0.86864308885E-01  0.51100000000E-03 0.  1.
</event>
<event>
 8    1  0.1199892E+005  0.1043930E+01  0.7957747E-01            NaN
         13   -1    0    0    0    0  0.00000000000E+00  0.00000000000E+00  0.74505805969E-08  0.10566000000E+00  0.10566000000E+00 0. -1.
     999900   -1    0    0    0    0 -0.00000000000E+00 -0.00000000000E+00 -0.74505805969E-08  0.93827000000E+00  0.93827000000E+00 0.  1.
     999902    2    1    2    0    0 -0.14870763864E-01  0.16006464240E-01 -0.34252080547E-02  0.10218148793E+01  0.10215755326E+01 0.  0.
     999903    2    3    3    0    0 -0.72236804065E-01 -0.92357956068E-01  0.55738339455E-01  0.13134644326E+00  0.19924300744E-01 0.  0.
         14    1    1    2    0    0  0.14870763864E-01 -0.16006464240E-01  0.34252080547E-02  0.22115120745E-01  0.00000000000E+00 0.  1.
     999901    1    3    3    0    0  0.57366040201E-01  0.10836442031E+00 -0.59163547510E-01  0.89046843600E+00  0.88000000000E+00 0. -1.
        -11    1    4    4    0    0 -0.30096341261E-01 -0.41441025126E-01  0.35143683483E-01  0.62116728266E-01  0.51100000000E-03 0. -1.
         11    1    4    4    0    0 -0.42140462804E-01 -0.50916930942E-01  0.20594655973E-01  0.69229714989E-01  0.51100000000E-03 0.  1.
</event>
<event>
 8    1  0.1199892E+005  0.1043930E+01  0.7957747E-01            NaN
         13   -1    0    0    0    0  0.00000000000E+00  0.00000000000E+00  0.74505805969E-08  0.10566000000E+00  0.10566000000E+00 0. -1.
     999900   -1    0    0    0    0 -0.00000000000E+00 -0.00000000000E+00 -0.74505805969E-08  0.93827000000E+00  0.93827000000E+00 0.  1.
     999902    2    1    2    0    0  0.14085122043E-01 -0.47348749960E-02  0.19039218226E-01  0.10197783637E+01  0.10194923293E+01 0.  0.
     999903    2    3    3    0    0 -0.17880564063E-01  0.12698484443E+00  0.25380968996E-02  0.12924808542E+00  0.15929857600E-01 0.  0.
         14    1    1    2    0    0 -0.14085122043E-01  0.47348749960E-02 -0.19039218226E-01  0.24151636277E-01  0.00000000000E+00 0.  1.
     999901    1    3    3    0    0  0.31965686106E-01 -0.13171971942E+00  0.16501121326E-01  0.89053027831E+00  0.88000000000E+00 0.  1.
        -11    1    4    4    0    0 -0.24146526418E-02  0.53581455166E-01  0.70298615733E-02  0.54096977363E-01  0.51100000000E-03 0. -1.
         11    1    4    4    0    0 -0.15465911421E-01  0.73403389261E-01 -0.44917646736E-02  0.75151108055E-01  0.51100000000E-03 0.  1.
</event>
<event>
 8    1  0.1199892E+005  0.1043930E+01  0.7957747E-01            NaN
         13   -1    0    0    0    0  0.00000000000E+00  0.00000000000E+00  0.74505805969E-08  0.10566000000E+00  0.10566000000E+00 0.  1.
     999900   -1    0    0    0    0 -0.00000000000E+00 -0.00000000000E+00 -0.74505805969E-08  0.93827000000E+00  0.93827000000E+00 0. -1.
     999902    2    1    2    0    0  0.27194925085E-02  0.83410264527E-02  0.21958452737E-01  0.10202838162E+01  0.10200097664E+01 0.  0.
     999903    2    3    3    0    0 -0.58081090047E-01 -0.11391901928E+00  0.83924862617E-02  0.12965018497E+00  0.19692147270E-01 0.  0.
         14    1    1    2    0    0 -0.27194925085E-02 -0.83410264527E-02 -0.21958452737E-01  0.23646183802E-01  0.00000000000E+00 0. -1.
     999901    1    3    3    0    0  0.60800582555E-01  0.12226004573E+00  0.13565966475E-01  0.89063363122E+00  0.88000000000E+00 0. -1.
        -11    1    4    4    0    0 -0.48107369676E-01 -0.80759283226E-01 -0.56579179064E-04  0.94003431674E-01  0.51100000000E-03 0. -1.
         11    1    4    4    0    0 -0.99737203712E-02 -0.33159736052E-01  0.84490654408E-02  0.35646753301E-01  0.51100000000E-03 0.  1.
</event>
<event>
 8    1  0.1199892E+005  0.1043930E+01  0.7957747E-01            NaN
         13   -1    0    0    0    0  0.00000000000E+00  0.00000000000E+00  0.74505805969E-08  0.10566000000E+00  0.10566000000E+00 0.  1.
     999900   -1    0    0    0    0 -0.00000000000E+00 -0.00000000000E+00 -0.74505805969E-08  0.93827000000E+00  0.93827000000E+00 0.  1.
     999902    2    1    2    0    0 -0.67403196401E-02  0.21770570951E-01 -0.57560605698E-02  0.10204242156E+01  0.10201534482E+01 0.  0.
     999903    2    3    3    0    0  0.97485169226E-02 -0.12324577356E+00 -0.27222357824E-01  0.12814487376E+00  0.19887122062E-01 0.  0.
         14    1    1    2    0    0  0.67403196401E-02 -0.21770570951E-01  0.57560605698E-02  0.23505784430E-01  0.00000000000E+00 0.  1.
     999901    1    3    3    0    0 -0.16488836563E-01  0.14501634451E+00  0.21466297255E-01  0.89227934181E+00  0.88000000000E+00 0. -1.
        -11    1    4    4    0    0  0.45401217770E-02 -0.10436941839E+00 -0.29155063373E-01  0.10846136198E+00  0.51100000000E-03 0. -1.
         11    1    4    4    0    0  0.52083951455E-02 -0.18876355166E-01  0.19327055488E-02  0.19683511783E-01  0.51100000000E-03 0.  1.
</event>
<event>
 8    1  0.1199892E+005  0.1043930E+01  0.7957747E-01            NaN
         13   -1    0    0    0    0  0.00000000000E+00  0.00000000000E+00  0.74505805969E-08  0.10566000000E+00  0.10566000000E+00 0. -1.
     999900   -1    0    0    0    0 -0.00000000000E+00 -0.00000000000E+00 -0.74505805969E-08  0.93827000000E+00  0.93827000000E+00 0.  1.
     999902    2    1    2    0    0  0.70063769909E-02  0.21097856969E-01  0.59407336429E-02  0.10209191069E+01  0.10206597482E+01 0.  0.
     999903    2    3    3    0    0  0.83736388067E-02  0.45198064575E-01 -0.12141586128E+00  0.13142352413E+00  0.20429108056E-01 0.  0.
         14    1    1    2    0    0 -0.70063769909E-02 -0.21097856969E-01 -0.59407336429E-02  0.23010893147E-01  0.00000000000E+00 0.  1.
     999901    1    3    3    0    0 -0.13672618157E-02 -0.24100207606E-01  0.12735659492E+00  0.88949558272E+00  0.88000000000E+00 0. -1.
        -11    1    4    4    0    0  0.12197201821E-01  0.30180464071E-01 -0.62121094043E-01  0.70135038247E-01  0.51100000000E-03 0.  1.
         11    1    4    4    0    0 -0.38235630145E-02  0.15017600504E-01 -0.59294767239E-01  0.61288485884E-01  0.51100000000E-03 0. -1.
</event>
<event>
 8    1  0.1199892E+005  0.1043930E+01  0.7957747E-01            NaN
         13   -1    0    0    0    0  0.00000000000E+00  0.00000000000E+00  0.74505805969E-08  0.10566000000E+00  0.10566000000E+00 0.  1.
     999900   -1    0    0    0    0 -0.00000000000E+00 -0.00000000000E+00 -0.74505805969E-08  0.93827000000E+00  0.93827000000E+00 0. -1.
     999902    2    1    2    0    0  0.97457327761E-02  0.18815790765E-02  0.22540243730E-01  0.10193011098E+01  0.10190035182E+01 0.  0.
     999903    2    3    3    0    0 -0.27425839550E-01 -0.95224927944E-01 -0.78434090930E-01  0.12744505873E+00  0.16443016681E-01 0.  0.
         14    1    1    2    0    0 -0.97457327761E-02 -0.18815790765E-02 -0.22540243730E-01  0.24628890242E-01  0.00000000000E+00 0. -1.
     999901    1    3    3    0    0  0.37171572326E-01  0.97106507021E-01  0.10097433466E+00  0.89185605103E+00  0.88000000000E+00 0.  1.
        -11    1    4    4    0    0 -0.97793225265E-02 -0.14431328469E-01 -0.17624549057E-01  0.24794843031E-01  0.51100000000E-03 0. -1.
         11    1    4    4    0    0 -0.17646517024E-01 -0.80793599475E-01 -0.60809541873E-01  0.10265021570E+00  0.51100000000E-03 0.  1.
</event>
<event>
 8    1  0.1199892E+005  0.1043930E+01  0.7957747E-01            NaN
         13   -1    0    0    0    0  0.00000000000E+00  0.00000000000E+00  0.74505805969E-08  0.10566000000E+00  0.10566000000E+00 0. -1.
     999900   -1    0    0    0    0 -0.00000000000E+00 -0.00000000000E+00 -0.74505805969E-08  0.93827000000E+00  0.93827000000E+00 0.  1.
     999902    2    1    2    0    0 -0.15471715334E-01 -0.53388425025E-02 -0.14356742195E-01  0.10221586137E+01  0.10219267284E+01 0.  0.
     999903    2    3    3    0    0 -0.56363464688E-01  0.74558794879E-01 -0.93826463419E-01  0.13403069262E+00  0.20614734558E-01 0.  0.
         14    1    1    2    0    0  0.15471715334E-01  0.53388425025E-02  0.14356742195E-01  0.21771386292E-01  0.00000000000E+00 0. -1.
     999901    1    3    3    0    0  0.40891749354E-01 -0.79897637382E-01  0.79469721224E-01  0.88812792109E+00  0.88000000000E+00 0. -1.
        -11    1    4    4    0    0 -0.17859423048E-01  0.34960102891E-01 -0.49684034931E-01  0.63324025723E-01  0.51100000000E-03 0. -1.
         11    1    4    4    0    0 -0.38504041640E-01  0.39598691988E-01 -0.44142428488E-01  0.70706666897E-01  0.51100000000E-03 0.  1.
</event>
<event>
 8    1  0.1199892E+005  0.1043930E+01  0.7957747E-01            NaN
         13   -1    0    0    0    0  0.00000000000E+00  0.00000000000E+00  0.74505805969E-08  0.10566000000E+00  0.10566000000E+00 0.  1.
     999900   -1    0    0    0    0 -0.00000000000E+00 -0.00000000000E+00 -0.74505805969E-08  0.93827000000E+00  0.93827000000E+00 0.  1.
     999902    2    1    2    0    0 -0.25523548203E-02 -0.19049538435E-01 -0.14060553919E-01  0.10201161678E+01  0.10198381720E+01 0.  0.
     999903    2    3    3    0    0 -0.98943950549E-01 -0.37265037340E-01  0.73530867341E-01  0.13034349948E+00  0.20101021040E-01 0.  0.
         14    1    1    2    0    0  0.25523548203E-02  0.19049538435E-01  0.14060553919E-01  0.23813832245E-01  0.00000000000E+00 0. -1.
     999901    1    3    3    0    0  0.96391595729E-01  0.18215498906E-01 -0.87591421260E-01  0.88977266827E+00  0.88000000000E+00 0.  1.
        -11    1    4    4    0    0 -0.81064650505E-01 -0.31053952385E-01  0.68954675328E-01  0.11086403335E+00  0.51100000000E-03 0.  1.
         11    1    4    4    0    0 -0.17879300045E-01 -0.62110849556E-02  0.45761920135E-02  0.19479466131E-01  0.51100000000E-03 0. -1.
</event>
<event>
 8    1  0.1199892E+005  0.1043930E+01  0.7957747E-01            NaN
         13   -1    0    0    0    0  0.00000000000E+00  0.00000000000E+00  0.74505805969E-08  0.10566000000E+00  0.10566000000E+00 0.  1.
     999900   -1    0    0    0    0 -0.00000000000E+00 -0.00000000000E+00 -0.74505805969E-08  0.93827000000E+00  0.93827000000E+00 0.  1.
     999902    2    1    2    0    0 -0.13152810441E-01 -0.18444389502E-01 -0.61985044078E-02  0.10204435489E+01  0.10201732319E+01 0.  0.
     999903    2    3    3    0    0  0.73203087411E-01 -0.26572758687E-02 -0.10640748972E+00  0.13041635003E+00  0.17891823999E-01 0.  0.
         14    1    1    2    0    0  0.13152810441E-01  0.18444389502E-01  0.61985044078E-02  0.23486451062E-01  0.00000000000E+00 0.  1.
     999901    1    3    3    0    0 -0.86355897852E-01 -0.15787113634E-01  0.10020898531E+00  0.89002719890E+00  0.88000000000E+00 0. -1.
        -11    1    4    4    0    0  0.10093442340E-01  0.57031320994E-02 -0.13695311930E-01  0.17950654135E-01  0.51100000000E-03 0.  1.
         11    1    4    4    0    0  0.63109645071E-01 -0.83604079682E-02 -0.92712177791E-01  0.11246569590E+00  0.51100000000E-03 0. -1.
</event>
<event>
 8    1  0.1199892E+005  0.1043930E+01  0.7957747E-01            NaN
         13   -1    0    0    0    0  0.00000000000E+00  0.00000000000E+00  0.74505805969E-08  0.10566000000E+00  0.10566000000E+00 0.  1.
     999900   -1    0    0    0    0 -0.00000000000E+00 -0.00000000000E+00 -0.74505805969E-08  0.93827000000E+00  0.93827000000E+00 0. -1.
     999902    2    1    2    0    0  0.61082142719E-02 -0.13828577729E-01  0.18652380317E-01  0.10199206032E+01  0.10196379679E+01 0.  0.
     999903    2    3    3    0    0  0.54716802944E-01  0.10374684699E-01  0.11842495481E+00  0.13261954976E+00  0.21492148518E-01 0.  0.
         14    1    1    2    0    0 -0.61082142719E-02  0.13828577729E-01 -0.18652380317E-01  0.24009396808E-01  0.00000000000E+00 0. -1.
     999901    1    3    3    0    0 -0.48608588672E-01 -0.24203262428E-01 -0.99772574497E-01  0.88730105343E+00  0.88000000000E+00 0. -1.
        -11    1    4    4    0    0  0.25826520105E-01  0.60013205172E-02  0.80407407123E-01  0.84667805156E-01  0.51100000000E-03 0. -1.
         11    1    4    4    0    0  0.28890282840E-01  0.43733641817E-02  0.38017547691E-01  0.47951744601E-01  0.51100000000E-03 0.  1.
</event>
<event>
 8    1  0.1199892E+005  0.1043930E+01  0.7957747E-01            NaN
         13   -1    0    0    0    0  0.00000000000E+00  0.00000000000E+00  0.74505805969E-08  0.10566000000E+00  0.10566000000E+00 0. -1.
     999900   -1    0    0    0    0 -0.00000000000E+00 -0.00000000000E+00 -0.74505805969E-08  0.93827000000E+00  0.93827000000E+00 0.  1.
     999902    2    1    2    0    0  0.11725382724E-01 -0.66302814796E-02  0.18117217892E-01  0.10213539327E+01  0.10211043908E+01 0.  0.
     999903    2    3    3    0    0  0.85995814329E-01  0.63281698873E-01 -0.73042159861E-01  0.13078455627E+00  0.19224711887E-01 0.  0.
         14    1    1    2    0    0 -0.11725382724E-01  0.66302814796E-02 -0.18117217892E-01  0.22576067343E-01  0.00000000000E+00 0.  1.
     999901    1    3    3    0    0 -0.74270431604E-01 -0.69911980353E-01  0.91159377753E-01  0.89056937639E+00  0.88000000000E+00 0. -1.
        -11    1    4    4    0    0  0.54256203422E-01  0.36600338134E-01 -0.55289310405E-01  0.85676655673E-01  0.51100000000E-03 0.  1.
         11    1    4    4    0    0  0.31739610907E-01  0.26681360739E-01 -0.17752849456E-01  0.45107900596E-01  0.51100000000E-03 0. -1.
</event>
<event>
 8    1  0.1199892E+005  0.1043930E+01  0.7957747E-01            NaN
         13   -1    0    0    0    0  0.00000000000E+00  0.00000000000E+00  0.74505805969E-08  0.10566000000E+00  0.10566000000E+00 0. -1.
     999900   -1    0    0    0    0 -0.00000000000E+00 -0.00000000000E+00 -0.74505805969E-08  0.93827000000E+00  0.93827000000E+00 0. -1.
     999902    2    1    2    0    0  0.75225993233E-02  0.17440960989E-01 -0.15512306264E-01  0.10194063733E+01  0.10191113510E+01 0.  0.
     999903    2    3    3    0    0  0.54915139977E-01 -0.11296382440E+00  0.14732611910E-01  0.12802193545E+00  0.19901454273E-01 0.  0.
         14    1    1    2    0    0 -0.75225993233E-02 -0.17440960989E-01  0.15512306264E-01  0.24523626698E-01  0.00000000000E+00 0. -1.
     999901    1    3    3    0    0 -0.47392540654E-01  0.13040478539E+00 -0.30244918174E-01  0.89138443785E+00  0.88000000000E+00 0.  1.
        -11    1    4    4    0    0  0.16822239013E-01 -0.55828689983E-01  0.10250922441E-01  0.59204500526E-01  0.51100000000E-03 0. -1.
         11    1    4    4    0    0  0.38092900964E-01 -0.57135134416E-01  0.44816894695E-02  0.68817434928E-01  0.51100000000E-03 0.  1.
</event>
<event>
 8    1  0.1199892E+005  0.1043930E+01  0.7957747E-01            NaN
         13   -1    0    0    0    0  0.00000000000E+00  0.00000000000E+00  0.74505805969E-08  0.10566000000E+00  0.10566000000E+00 0. -1.
     999900   -1    0    0    0    0 -0.00000000000E+00 -0.00000000000E+00 -0.74505805969E-08  0.93827000000E+00  0.93827000000E+00 0.  1.
     999902    2    1    2    0    0 -0.18179483497E-01 -0.21943055564E-02  0.16663887247E-01  0.10191712897E+01  0.10188705139E+01 0.  0.
     999903    2    3    3    0    0 -0.12403614532E+00  0.14867845783E-01 -0.34844636645E-01  0.13116798009E+00  0.19618157746E-01 0.  0.
         14    1    1    2    0    0  0.18179483497E-01  0.21943055564E-02 -0.16663887247E-01  0.24758710290E-01  0.00000000000E+00 0.  1.
     999901    1    3    3    0    0  0.10585666183E+00 -0.17062151339E-01  0.51508523891E-01  0.88800330962E+00  0.88000000000E+00 0. -1.
        -11    1    4    4    0    0 -0.79104355119E-01  0.50292528019E-02 -0.13301703914E-01  0.80374055706E-01  0.51100000000E-03 0.  1.
         11    1    4    4    0    0 -0.44931790203E-01  0.98385929809E-02 -0.21542932731E-01  0.50793924385E-01  0.51100000000E-03 0. -1.
</event>
<event>
 8    1  0.1199892E+005  0.1043930E+01  0.7957747E-01            NaN
         13   -1    0    0    0    0  0.00000000000E+00  0.00000000000E+00  0.74505805969E-08  0.10566000000E+00  0.10566000000E+00 0. -1.
     999900   -1    0    0    0    0 -0.00000000000E+00 -0.00000000000E+00 -0.74505805969E-08  0.93827000000E+00  0.93827000000E+00 0.  1.
     999902    2    1    2    0    0 -0.21892910569E-01 -0.40846900387E-02 -0.99278401553E-02  0.10195466812E+01  0.10192550657E+01 0.  0.
     999903    2    3    3    0    0 -0.10806787987E+00 -0.71845206243E-01  0.16277615859E-01  0.13235767156E+00  0.20327127738E-01 0.  0.
         14    1    1    2    0    0  0.21892910569E-01  0.40846900387E-02  0.99278401553E-02  0.24383318807E-01  0.00000000000E+00 0.  1.
     999901    1    3    3    0    0  0.86174969303E-01  0.67760516204E-01 -0.26205456014E-01  0.88718900963E+00  0.88000000000E+00 0.  1.
        -11    1    4    4    0    0 -0.67727105498E-01 -0.37931300240E-01  0.17756062696E-01  0.79632174657E-01  0.51100000000E-03 0.  1.
         11    1    4    4    0    0 -0.40340774374E-01 -0.33913906002E-01 -0.14784468374E-02  0.52725496902E-01  0.51100000000E-03 0. -1.
</event>
<event>
 8    1  0.1199892E+005  0.1043930E+01  0.7957747E-01            NaN
         13   -1    0    0    0    0  0.00000000000E+00  0.00000000000E+00  0.74505805969E-08  0.10566000000E+00  0.10566000000E+00 0.  1.
     999900   -1    0    0    0    0 -0.00000000000E+00 -0.00000000000E+00 -0.74505805969E-08  0.93827000000E+00  0.93827000000E+00 0. -1.
     999902    2    1    2    0    0 -0.57632004924E-02  0.17129743599E-01  0.15504882896E-01  0.10201173145E+01  0.10198393459E+01 0.  0.
     999903    2    3    3    0    0 -0.11573276066E+00 -0.33201551863E-01 -0.43552018133E-01  0.12988461404E+00  0.21836202626E-01 0.  0.
         14    1    1    2    0    0  0.57632004924E-02 -0.17129743599E-01 -0.15504882896E-01  0.23812685470E-01  0.00000000000E+00 0. -1.
     999901    1    3    3    0    0  0.10996956016E+00  0.50331295462E-01  0.59056901030E-01  0.89023270049E+00  0.88000000000E+00 0.  1.
        -11    1    4    4    0    0 -0.91185001750E-01 -0.26360217459E-01 -0.24409576240E-01  0.98008439136E-01  0.51100000000E-03 0. -1.
         11    1    4    4    0    0 -0.24547758906E-01 -0.68413344033E-02 -0.19142441894E-01  0.31876174902E-01  0.51100000000E-03 0.  1.
</event>
<event>
 8    1  0.1199892E+005  0.1043930E+01  0.7957747E-01            NaN
         13   -1    0    0    0    0  0.00000000000E+00  0.00000000000E+00  0.74505805969E-08  0.10566000000E+00  0.10566000000E+00 0. -1.
     999900   -1    0    0    0    0 -0.00000000000E+00 -0.00000000000E+00 -0.74505805969E-08  0.93827000000E+00  0.93827000000E+00 0. -1.
     999902    2    1    2    0    0 -0.11236233780E-02 -0.14358274660E-01 -0.19243438533E-01  0.10198939332E+01  0.10196106622E+01 0.  0.
     999903    2    3    3    0    0  0.26516490627E-01 -0.11159603730E+00  0.59689722022E-01  0.13059668131E+00  0.18325677001E-01 0.  0.
         14    1    1    2    0    0  0.11236233780E-02  0.14358274660E-01  0.19243438533E-01  0.24036066802E-01  0.00000000000E+00 0. -1.
     999901    1    3    3    0    0 -0.27640114005E-01  0.97237762639E-01 -0.78933160555E-01  0.88929725189E+00  0.88000000000E+00 0.  1.
        -11    1    4    4    0    0  0.22713531542E-02 -0.47762927852E-01  0.22633347838E-01  0.52905442797E-01  0.51100000000E-03 0.  1.
         11    1    4    4    0    0  0.24245137473E-01 -0.63833109446E-01  0.37056374184E-01  0.77691238511E-01  0.51100000000E-03 0. -1.
</event>
<event>
 8    1  0.1199892E+005  0.1043930E+01  0.7957747E-01            NaN
         13   -1    0    0    0    0  0.00000000000E+00  0.00000000000E+00  0.74505805969E-08  0.10566000000E+00  0.10566000000E+00 0.  1.
     999900   -1    0    0    0    0 -0.00000000000E+00 -0.00000000000E+00 -0.74505805969E-08  0.93827000000E+00  0.93827000000E+00 0.  1.
     999902    2    1    2    0    0 -0.60691099830E-03 -0.12111659409E-01 -0.20898646281E-01  0.10197677557E+01  0.10194814670E+01 0.  0.
     999903    2    3    3    0    0  0.10525982242E+00  0.50972645283E-02 -0.76021974004E-01  0.13154340700E+00  0.20462528498E-01 0.  0.
         14    1    1    2    0    0  0.60691099830E-03  0.12111659409E-01  0.20898646281E-01  0.24162244329E-01  0.00000000000E+00 0.  1.
     999901    1    3    3    0    0 -0.10586673342E+00 -0.17208923937E-01  0.55123327722E-01  0.88822434867E+00  0.88000000000E+00 0. -1.
        -11    1    4    4    0    0  0.84408249945E-01  0.95590095167E-02 -0.67781874625E-01  0.10867737101E+00  0.51100000000E-03 0. -1.
         11    1    4    4    0    0  0.20851572477E-01 -0.44617449884E-02 -0.82400993788E-02  0.22866035989E-01  0.51100000000E-03 0.  1.
</event>
<event>
 8    1  0.1199892E+005  0.1043930E+01  0.7957747E-01            NaN
         13   -1    0    0    0    0  0.00000000000E+00  0.00000000000E+00  0.74505805969E-08  0.10566000000E+00  0.10566000000E+00 0.  1.
     999900   -1    0    0    0    0 -0.00000000000E+00 -0.00000000000E+00 -0.74505805969E-08  0.93827000000E+00  0.93827000000E+00 0. -1.
     999902    2    1    2    0    0 -0.19416381262E-02  0.23916129349E-01  0.22972427021E-02  0.10198254667E+01  0.10195405603E+01 0.  0.
     999903    2    3    3    0    0 -0.88150140882E-01 -0.79446529171E-01  0.45011163639E-01  0.12856780240E+00  0.20529895951E-01 0.  0.
         14    1    1    2    0    0  0.19416381262E-02 -0.23916129349E-01 -0.22972427021E-02  0.24104533301E-01  0.00000000000E+00 0. -1.
     999901    1    3    3    0    0  0.86208502756E-01  0.10336265852E+00 -0.42713920937E-01  0.89125766430E+00  0.88000000000E+00 0. -1.
        -11    1    4    4    0    0 -0.34543830668E-01 -0.42340988445E-01  0.14230579164E-01  0.56469514290E-01  0.51100000000E-03 0. -1.
         11    1    4    4    0    0 -0.53606310214E-01 -0.37105540726E-01  0.30780584475E-01  0.72098288114E-01  0.51100000000E-03 0.  1.
</event>
<event>
 8    1  0.1199892E+005  0.1043930E+01  0.7957747E-01            NaN
         13   -1    0    0    0    0  0.00000000000E+00  0.00000000000E+00  0.74505805969E-08  0.10566000000E+00  0.10566000000E+00 0. -1.
     999900   -1    0    0    0    0 -0.00000000000E+00 -0.00000000000E+00 -0.74505805969E-08  0.93827000000E+00  0.93827000000E+00 0.  1.
     999902    2    1    2    0    0 -0.14871326792E-02 -0.15994305741E-01 -0.16995041096E-01  0.10205449449E+01  0.10202769839E+01 0.  0.
     999903    2    3    3    0    0  0.35148268677E-01 -0.35735008558E-01 -0.12209200035E+00  0.13331486267E+00  0.18815005526E-01 0.  0.
         14    1    1    2    0    0  0.14871326792E-02  0.15994305741E-01  0.16995041096E-01  0.23385055091E-01  0.00000000000E+00 0. -1.
     999901    1    3    3    0    0 -0.36635401356E-01  0.19740702817E-01  0.10509695925E+00  0.88723008224E+00  0.88000000000E+00 0. -1.
        -11    1    4    4    0    0  0.26479435738E-01 -0.27171703555E-01 -0.68047826497E-01  0.77911679503E-01  0.51100000000E-03 0. -1.
         11    1    4    4    0    0  0.86688329393E-02 -0.85633050032E-02 -0.54044173851E-01  0.55403183170E-01  0.51100000000E-03 0.  1.
</event>
<event>
 8    1  0.1199892E+005  0.1043930E+01  0.7957747E-01            NaN
         13   -1    0    0    0    0  0.00000000000E+00  0.00000000000E+00  0.74505805969E-08  0.10566000000E+00  0.10566000000E+00 0.  1.
     999900   -1    0    0    0    0 -0.00000000000E+00 -0.00000000000E+00 -0.74505805969E-08  0.93827000000E+00  0.93827000000E+00 0.  1.
     999902    2    1    2    0    0  0.21383850144E-01  0.23893516316E-02 -0.89677187310E-02  0.10206191007E+01  0.10203528559E+01 0.  0.
     999903    2    3    3    0    0  0.44576784303E-01  0.84976362474E-01 -0.89622354272E-01  0.13277694309E+00  0.19735205896E-01 0.  0.
         14    1    1    2    0    0 -0.21383850144E-01 -0.23893516316E-02  0.89677187310E-02  0.23310899327E-01  0.00000000000E+00 0.  1.
     999901    1    3    3    0    0 -0.23192934159E-01 -0.82587010843E-01  0.80654635541E-01  0.88784215759E+00  0.88000000000E+00 0. -1.
        -11    1    4    4    0    0  0.95503444802E-02  0.53520624036E-02 -0.92365388109E-02  0.14332774395E-01  0.51100000000E-03 0. -1.
         11    1    4    4    0    0  0.35026439823E-01  0.79624300071E-01 -0.80385815461E-01  0.11844416869E+00  0.51100000000E-03 0.  1.
</event>
<event>
 8    1  0.1199892E+005  0.1043930E+01  0.7957747E-01            NaN
         13   -1    0    0    0    0  0.00000000000E+00  0.00000000000E+00  0.74505805969E-08  0.10566000000E+00  0.10566000000E+00 0.  1.
     999900   -1    0    0    0    0 -0.00000000000E+00 -0.00000000000E+00 -0.74505805969E-08  0.93827000000E+00  0.93827000000E+00 0.  1.
     999902    2    1    2    0    0 -0.27955552615E-02 -0.50935102828E-02 -0.17269861128E-01  0.10257089386E+01  0.10255470831E+01 0.  0.
     999903    2    3    3    0    0  0.24745907033E-01  0.33577141744E-01  0.12476562300E+00  0.13305669373E+00  0.19945894336E-01 0.  0.
         14    1    1    2    0    0  0.27955552615E-02  0.50935102828E-02  0.17269861128E-01  0.18221061429E-01  0.00000000000E+00 0.  1.
     999901    1    3    3    0    0 -0.27541462295E-01 -0.38670652027E-01 -0.14203548413E+00  0.89265224484E+00  0.88000000000E+00 0.  1.
        -11    1    4    4    0    0  0.21492958341E-01  0.25884693467E-01  0.11662656534E+00  0.12138361289E+00  0.51100000000E-03 0. -1.
         11    1    4    4    0    0  0.32529486929E-02  0.76924482774E-02  0.81390576612E-02  0.11673080841E-01  0.51100000000E-03 0.  1.
</event>
<event>
 8    1  0.1199892E+005  0.1043930E+01  0.7957747E-01            NaN
         13   -1    0    0    0    0  0.00000000000E+00  0.00000000000E+00  0.74505805969E-08  0.10566000000E+00  0.10566000000E+00 0.  1.
     999900   -1    0    0    0    0 -0.00000000000E+00 -0.00000000000E+00 -0.74505805969E-08  0.93827000000E+00  0.93827000000E+00 0.  1.
     999902    2    1    2    0    0 -0.33591201418E-02  0.11614041654E-01 -0.19873380962E-01  0.10206679940E+01  0.10204028778E+01 0.  0.
     999903    2    3    3    0    0 -0.91673692849E-01 -0.36857702005E-01  0.80856484986E-01  0.12921105193E+00  0.19878848559E-01 0.  0.
         14    1    1    2    0    0  0.33591201418E-02 -0.11614041654E-01  0.19873380962E-01  0.23262005987E-01  0.00000000000E+00 0.  1.
     999901    1    3    3    0    0  0.88314572707E-01  0.48471743660E-01 -0.10072986595E+00  0.89145694208E+00  0.88000000000E+00 0.  1.
        -11    1    4    4    0    0 -0.77694582548E-01 -0.22935750288E-01  0.63571296424E-01  0.10297605376E+00  0.51100000000E-03 0. -1.
         11    1    4    4    0    0 -0.13979110301E-01 -0.13921951718E-01  0.17285188562E-01  0.26234998171E-01  0.51100000000E-03 0.  1.
</event>
<event>
 8    1  0.1199892E+005  0.1043930E+01  0.7957747E-01            NaN
         13   -1    0    0    0    0  0.00000000000E+00  0.00000000000E+00  0.74505805969E-08  0.10566000000E+00  0.10566000000E+00 0.  1.
     999900   -1    0    0    0    0 -0.00000000000E+00 -0.00000000000E+00 -0.74505805969E-08  0.93827000000E+00  0.93827000000E+00 0.  1.
     999902    2    1    2    0    0 -0.15024284415E-01 -0.17655896402E-01 -0.15058466816E-02  0.10206979666E+01  0.10204335411E+01 0.  0.
     999903    2    3    3    0    0 -0.41354056804E-01  0.12058784962E+00 -0.10513481517E-01  0.12947087565E+00  0.20014666058E-01 0.  0.
         14    1    1    2    0    0  0.15024284415E-01  0.17655896402E-01  0.15058466816E-02  0.23232033363E-01  0.00000000000E+00 0.  1.
     999901    1    3    3    0    0  0.26329772389E-01 -0.13824374602E+00  0.90076348351E-02  0.89122709099E+00  0.88000000000E+00 0. -1.
        -11    1    4    4    0    0 -0.32308870367E-01  0.88655683612E-01 -0.16356946167E-01  0.95767970376E-01  0.51100000000E-03 0.  1.
         11    1    4    4    0    0 -0.90451864377E-02  0.31932166007E-01  0.58434646507E-02  0.33702905272E-01  0.51100000000E-03 0. -1.
</event>
<event>
 8    1  0.1199892E+005  0.1043930E+01  0.7957747E-01            NaN
         13   -1    0    0    0    0  0.00000000000E+00  0.00000000000E+00  0.74505805969E-08  0.10566000000E+00  0.10566000000E+00 0.  1.
     999900   -1    0    0    0    0 -0.00000000000E+00 -0.00000000000E+00 -0.74505805969E-08  0.93827000000E+00  0.93827000000E+00 0. -1.
     999902    2    1    2    0    0  0.16226835832E-01 -0.13555819745E-01  0.69144144475E-02  0.10216841110E+01  0.10214418941E+01 0.  0.
     999903    2    3    3    0    0  0.40325908763E-01 -0.82173330401E-02 -0.12262888885E+00  0.13185787393E+00  0.25592011601E-01 0.  0.
         14    1    1    2    0    0 -0.16226835832E-01  0.13555819745E-01 -0.69144144475E-02  0.22245888996E-01  0.00000000000E+00 0.  1.
     999901    1    3    3    0    0 -0.24099072932E-01 -0.53384867047E-02  0.12954330329E+00  0.88982623707E+00  0.88000000000E+00 0.  1.
        -11    1    4    4    0    0  0.74599158115E-02 -0.13111184630E-01 -0.33834945560E-01  0.37048861904E-01  0.51100000000E-03 0. -1.
         11    1    4    4    0    0  0.32865992952E-01  0.48938515897E-02 -0.88793943287E-01  0.94809012027E-01  0.51100000000E-03 0.  1.
</event>
<event>
 8    1  0.1199892E+005  0.1043930E+01  0.7957747E-01            NaN
         13   -1    0    0    0    0  0.00000000000E+00  0.00000000000E+00  0.74505805969E-08  0.10566000000E+00  0.10566000000E+00 0.  1.
     999900   -1    0    0    0    0 -0.00000000000E+00 -0.00000000000E+00 -0.74505805969E-08  0.93827000000E+00  0.93827000000E+00 0.  1.
     999902    2    1    2    0    0 -0.14391955808E-02  0.13005588915E-01 -0.19399703049E-01  0.10205298909E+01  0.10202615807E+01 0.  0.
     999903    2    3    3    0    0  0.24963863756E-01  0.30949909003E-01  0.12093995498E+00  0.12883804965E+00  0.19790880831E-01 0.  0.
         14    1    1    2    0    0  0.14391955808E-02 -0.13005588915E-01  0.19399703049E-01  0.23400109088E-01  0.00000000000E+00 0. -1.
     999901    1    3    3    0    0 -0.26403059337E-01 -0.17944320088E-01 -0.14033965803E+00  0.89169184127E+00  0.88000000000E+00 0.  1.
        -11    1    4    4    0    0  0.29389329820E-02  0.18828696681E-01  0.46073311219E-01  0.49861490887E-01  0.51100000000E-03 0. -1.
         11    1    4    4    0    0  0.22024930774E-01  0.12121212322E-01  0.74866643765E-01  0.78976558758E-01  0.51100000000E-03 0.  1.
</event>
<event>
 8    1  0.1199892E+005  0.1043930E+01  0.7957747E-01            NaN
         13   -1    0    0    0    0  0.00000000000E+00  0.00000000000E+00  0.74505805969E-08  0.10566000000E+00  0.10566000000E+00 0. -1.
     999900   -1    0    0    0    0 -0.00000000000E+00 -0.00000000000E+00 -0.74505805969E-08  0.93827000000E+00  0.93827000000E+00 0.  1.
     999902    2    1    2    0    0 -0.16765257549E-01  0.16128683905E-01 -0.14132185363E-02  0.10206232308E+01  0.10203570815E+01 0.  0.
     999903    2    3    3    0    0  0.21688288604E-01 -0.88712403267E-01 -0.89262071427E-01  0.12922671422E+00  0.19787721346E-01 0.  0.
         14    1    1    2    0    0  0.16765257549E-01 -0.16128683905E-01  0.14132185363E-02  0.23306769227E-01  0.00000000000E+00 0. -1.
     999901    1    3    3    0    0 -0.38453546153E-01  0.10484108717E+00  0.87848852891E-01  0.89139651655E+00  0.88000000000E+00 0. -1.
        -11    1    4    4    0    0  0.21224279862E-01 -0.59876300206E-01 -0.51948933038E-01  0.82064573032E-01  0.51100000000E-03 0. -1.
         11    1    4    4    0    0  0.46400874254E-03 -0.28836103061E-01 -0.37313138389E-01  0.47162141187E-01  0.51100000000E-03 0.  1.
</event>
<event>
 8    1  0.1199892E+005  0.1043930E+01  0.7957747E-01            NaN
         13   -1    0    0    0    0  0.00000000000E+00  0.00000000000E+00  0.74505805969E-08  0.10566000000E+00  0.10566000000E+00 0. -1.
     999900   -1    0    0    0    0 -0.00000000000E+00 -0.00000000000E+00 -0.74505805969E-08  0.93827000000E+00  0.93827000000E+00 0.  1.
     999902    2    1    2    0    0 -0.23506672481E-01  0.62655943426E-02  0.51402827483E-02  0.10190654905E+01  0.10187621068E+01 0.  0.
     999903    2    3    3    0    0  0.31335917120E-01  0.41213126217E-01 -0.11582902143E+00  0.12841257713E+00  0.19823377267E-01 0.  0.
         14    1    1    2    0    0  0.23506672481E-01 -0.62655943426E-02 -0.51402827483E-02  0.24864509453E-01  0.00000000000E+00 0.  1.
     999901    1    3    3    0    0 -0.54842589602E-01 -0.34947531875E-01  0.12096930418E+00  0.89065291341E+00  0.88000000000E+00 0. -1.
        -11    1    4    4    0    0  0.17437145346E-01  0.31307971000E-01 -0.58604181753E-01  0.68694645540E-01  0.51100000000E-03 0. -1.
         11    1    4    4    0    0  0.13898771775E-01  0.99051552170E-02 -0.57224839677E-01  0.59717931593E-01  0.51100000000E-03 0.  1.
</event>
<event>
 8    1  0.1199892E+005  0.1043930E+01  0.7957747E-01            NaN
         13   -1    0    0    0    0  0.00000000000E+00  0.00000000000E+00  0.74505805969E-08  0.10566000000E+00  0.10566000000E+00 0.  1.
     999900   -1    0    0    0    0 -0.00000000000E+00 -0.00000000000E+00 -0.74505805969E-08  0.93827000000E+00  0.93827000000E+00 0.  1.
     999902    2    1    2    0    0  0.28796623439E-03 -0.23507876482E-01 -0.69960162068E-02  0.10194014977E+01  0.10191063566E+01 0.  0.
     999903    2    3    3    0    0  0.63584496060E-01  0.99080752642E-01  0.43833609601E-01  0.12720304808E+00  0.19981151809E-01 0.  0.
         14    1    1    2    0    0 -0.28796623439E-03  0.23507876482E-01  0.69960162068E-02  0.24528502279E-01  0.00000000000E+00 0.  1.
     999901    1    3    3    0    0 -0.63296529825E-01 -0.12258862912E+00 -0.50829625808E-01  0.89219844964E+00  0.88000000000E+00 0.  1.
        -11    1    4    4    0    0  0.20473600568E-01  0.30755753880E-01  0.41210023931E-02  0.37179678571E-01  0.51100000000E-03 0. -1.
         11    1    4    4    0    0  0.43110895492E-01  0.68324998762E-01  0.39712607208E-01  0.90023369511E-01  0.51100000000E-03 0.  1.
</event>
<event>
 8    1  0.1199892E+005  0.1043930E+01  0.7957747E-01            NaN
         13   -1    0    0    0    0  0.00000000000E+00  0.00000000000E+00  0.74505805969E-08  0.10566000000E+00  0.10566000000E+00 0. -1.
     999900   -1    0    0    0    0 -0.00000000000E+00 -0.00000000000E+00 -0.74505805969E-08  0.93827000000E+00  0.93827000000E+00 0.  1.
     999902    2    1    2    0    0 -0.77003210142E-02 -0.43598267294E-02  0.22341428801E-01  0.10198999673E+01  0.10196168402E+01 0.  0.
     999903    2    3    3    0    0 -0.71586967280E-01 -0.81854572123E-01  0.73512030022E-01  0.13271037671E+00  0.19574490232E-01 0.  0.
         14    1    1    2    0    0  0.77003210142E-02  0.43598267294E-02 -0.22341428801E-01  0.24030032744E-01  0.00000000000E+00 0.  1.
     999901    1    3    3    0    0  0.63886646266E-01  0.77494745394E-01 -0.51170601221E-01  0.88718959054E+00  0.88000000000E+00 0. -1.
        -11    1    4    4    0    0 -0.21521778919E-01 -0.35327376786E-01  0.35432875829E-01  0.54469811171E-01  0.51100000000E-03 0.  1.
         11    1    4    4    0    0 -0.50065188361E-01 -0.46527195337E-01  0.38079154193E-01  0.78240565544E-01  0.51100000000E-03 0. -1.
</event>
<event>
 8    1  0.1199892E+005  0.1043930E+01  0.7957747E-01            NaN
         13   -1    0    0    0    0  0.00000000000E+00  0.00000000000E+00  0.74505805969E-08  0.10566000000E+00  0.10566000000E+00 0. -1.
     999900   -1    0    0    0    0 -0.00000000000E+00 -0.00000000000E+00 -0.74505805969E-08  0.93827000000E+00  0.93827000000E+00 0. -1.
     999902    2    1    2    0    0  0.47084770233E-02 -0.23082036059E-01 -0.25159202533E-02  0.10202386514E+01  0.10199635414E+01 0.  0.
     999903    2    3    3    0    0 -0.11328008684E-01 -0.14443622148E-01  0.12755332192E+00  0.13049160934E+00  0.20524818480E-01 0.  0.
         14    1    1    2    0    0 -0.47084770233E-02  0.23082036059E-01  0.25159202533E-02  0.23691348615E-01  0.00000000000E+00 0. -1.
     999901    1    3    3    0    0  0.16036485708E-01 -0.86384139104E-02 -0.13006924217E+00  0.88974704205E+00  0.88000000000E+00 0. -1.
        -11    1    4    4    0    0  0.13058428220E-02  0.38909589345E-02  0.37399411656E-01  0.37627408894E-01  0.51100000000E-03 0.  1.
         11    1    4    4    0    0 -0.12633851506E-01 -0.18334581083E-01  0.90153910264E-01  0.92864200445E-01  0.51100000000E-03 0. -1.
</event>
<event>
 8    1  0.1199892E+005  0.1043930E+01  0.7957747E-01            NaN
         13   -1    0    0    0    0  0.00000000000E+00  0.00000000000E+00  0.74505805969E-08  0.10566000000E+00  0.10566000000E+00 0. -1.
     999900   -1    0    0    0    0 -0.00000000000E+00 -0.00000000000E+00 -0.74505805969E-08  0.93827000000E+00  0.93827000000E+00 0.  1.
     999902    2    1    2    0    0 -0.11171701391E-02 -0.67706115524E-02 -0.22593012718E-01  0.10203178533E+01  0.10200446011E+01 0.  0.
     999903    2    3    3    0    0 -0.12326896901E+00 -0.19905673643E-01 -0.36757020209E-01  0.13167044797E+00  0.19863377589E-01 0.  0.
         14    1    1    2    0    0  0.11171701391E-02  0.67706115524E-02  0.22593012718E-01  0.23612146738E-01  0.00000000000E+00 0. -1.
     999901    1    3    3    0    0  0.12215179887E+00  0.13135062091E-01  0.14164007491E-01  0.88864740529E+00  0.88000000000E+00 0.  1.
        -11    1    4    4    0    0 -0.56570859242E-01  0.84737115331E-03 -0.16844483886E-01  0.59033701490E-01  0.51100000000E-03 0. -1.
         11    1    4    4    0    0 -0.66698109771E-01 -0.20753044796E-01 -0.19912536324E-01  0.72636746480E-01  0.51100000000E-03 0.  1.
</event>
<event>
 8    1  0.1199892E+005  0.1043930E+01  0.7957747E-01            NaN
         13   -1    0    0    0    0  0.00000000000E+00  0.00000000000E+00  0.74505805969E-08  0.10566000000E+00  0.10566000000E+00 0. -1.
     999900   -1    0    0    0    0 -0.00000000000E+00 -0.00000000000E+00 -0.74505805969E-08  0.93827000000E+00  0.93827000000E+00 0.  1.
     999902    2    1    2    0    0  0.56510539634E-02 -0.29120790450E-02 -0.22835669276E-01  0.10202259411E+01  0.10199505324E+01 0.  0.
     999903    2    3    3    0    0 -0.61175159791E-01 -0.10973185897E+00 -0.32370329649E-01  0.13120000340E+00  0.19547930836E-01 0.  0.
         14    1    1    2    0    0 -0.56510539634E-02  0.29120790450E-02  0.22835669276E-01  0.23704058863E-01  0.00000000000E+00 0. -1.
     999901    1    3    3    0    0  0.66826213754E-01  0.10681977993E+00  0.95346603730E-02  0.88902593774E+00  0.88000000000E+00 0.  1.
        -11    1    4    4    0    0 -0.20526339040E-01 -0.48748183266E-01 -0.21537709861E-01  0.57112608356E-01  0.51100000000E-03 0. -1.
         11    1    4    4    0    0 -0.40648820750E-01 -0.60983675709E-01 -0.10832619788E-01  0.74087395040E-01  0.51100000000E-03 0.  1.
</event>
<event>
 8    1  0.1199892E+005  0.1043930E+01  0.7957747E-01            NaN
         13   -1    0    0    0    0  0.00000000000E+00  0.00000000000E+00  0.74505805969E-08  0.10566000000E+00  0.10566000000E+00 0. -1.
     999900   -1    0    0    0    0 -0.00000000000E+00 -0.00000000000E+00 -0.74505805969E-08  0.93827000000E+00  0.93827000000E+00 0.  1.
     999902    2    1    2    0    0 -0.33208067873E-02 -0.15502924364E-01  0.16606497133E-01  0.10209703796E+01  0.10207121886E+01 0.  0.
     999903    2    3    3    0    0 -0.22744335641E-01  0.11671099910E+00  0.51376819450E-01  0.13020286204E+00  0.13207785290E-01 0.  0.
         14    1    1    2    0    0  0.33208067873E-02  0.15502924364E-01 -0.16606497133E-01  0.22959620393E-01  0.00000000000E+00 0. -1.
     999901    1    3    3    0    0  0.19423528854E-01 -0.13221392347E+00 -0.34770322317E-01  0.89076751756E+00  0.88000000000E+00 0.  1.
        -11    1    4    4    0    0 -0.12760247024E-01  0.86443255892E-01  0.32973582543E-01  0.93395817145E-01  0.51100000000E-03 0. -1.
         11    1    4    4    0    0 -0.99840886170E-02  0.30267743211E-01  0.18403236906E-01  0.36807044899E-01  0.51100000000E-03 0.  1.
</event>
<event>
 8    1  0.1199892E+005  0.1043930E+01  0.7957747E-01            NaN
         13   -1    0    0    0    0  0.00000000000E+00  0.00000000000E+00  0.74505805969E-08  0.10566000000E+00  0.10566000000E+00 0.  1.
     999900   -1    0    0    0    0 -0.00000000000E+00 -0.00000000000E+00 -0.74505805969E-08  0.93827000000E+00  0.93827000000E+00 0. -1.
     999902    2    1    2    0    0  0.85364186536E-02  0.19207697590E-01 -0.11422192838E-01  0.10200077806E+01  0.10197272184E+01 0.  0.
     999903    2    3    3    0    0 -0.39259204792E-01  0.11720133258E+00  0.40580566972E-01  0.13175586752E+00  0.20865969717E-01 0.  0.
         14    1    1    2    0    0 -0.85364186536E-02 -0.19207697590E-01  0.11422192838E-01  0.23922219365E-01  0.00000000000E+00 0.  1.
     999901    1    3    3    0    0  0.47795623446E-01 -0.97993634987E-01 -0.52002759809E-01  0.88825191311E+00  0.88000000000E+00 0.  1.
        -11    1    4    4    0    0 -0.23769083502E-01  0.40356117916E-01  0.12401449658E-01  0.48452478352E-01  0.51100000000E-03 0. -1.
         11    1    4    4    0    0 -0.15490121290E-01  0.76845214661E-01  0.28179117313E-01  0.83303389171E-01  0.51100000000E-03 0.  1.
</event>
<event>
 8    1  0.1199892E+005  0.1043930E+01  0.7957747E-01            NaN
         13   -1    0    0    0    0  0.00000000000E+00  0.00000000000E+00  0.74505805969E-08  0.10566000000E+00  0.10566000000E+00 0. -1.
     999900   -1    0    0    0    0 -0.00000000000E+00 -0.00000000000E+00 -0.74505805969E-08  0.93827000000E+00  0.93827000000E+00 0. -1.
     999902    2    1    2    0    0  0.24404609034E-02  0.16036035138E-01 -0.16507886057E-01  0.10207865220E+01  0.10205241315E+01 0.  0.
     999903    2    3    3    0    0  0.90451587409E-01 -0.88635947202E-01 -0.22978386496E-01  0.13020017039E+00  0.19653430311E-01 0.  0.
         14    1    1    2    0    0 -0.24404609034E-02 -0.16036035138E-01  0.16507886057E-01  0.23143478011E-01  0.00000000000E+00 0.  1.
     999901    1    3    3    0    0 -0.88011126505E-01  0.10467198234E+00  0.64705004397E-02  0.89058635160E+00  0.88000000000E+00 0.  1.
        -11    1    4    4    0    0  0.81029817169E-01 -0.76976812397E-01 -0.13795968209E-01  0.11261372375E+00  0.51100000000E-03 0. -1.
         11    1    4    4    0    0  0.94217702393E-02 -0.11659134805E-01 -0.91824182872E-02  0.17586446640E-01  0.51100000000E-03 0.  1.
</event>
<event>
 8    1  0.1199892E+005  0.1043930E+01  0.7957747E-01            NaN
         13   -1    0    0    0    0  0.00000000000E+00  0.00000000000E+00  0.74505805969E-08  0.10566000000E+00  0.10566000000E+00 0. -1.
     999900   -1    0    0    0    0 -0.00000000000E+00 -0.00000000000E+00 -0.74505805969E-08  0.93827000000E+00  0.93827000000E+00 0.  1.
     999902    2    1    2    0    0  0.80889665019E-02 -0.14592164166E-01 -0.18041735570E-01  0.10193562975E+01  0.10190600543E+01 0.  0.
     999903    2    3    3    0    0  0.41551306300E-02 -0.42863546316E-01 -0.12380163296E+00  0.13256438161E+00  0.19797025919E-01 0.  0.
         14    1    1    2    0    0 -0.80889665019E-02  0.14592164166E-01  0.18041735570E-01  0.24573702539E-01  0.00000000000E+00 0.  1.
     999901    1    3    3    0    0  0.39338358718E-02  0.28271382150E-01  0.10575989739E+00  0.88679191585E+00  0.88000000000E+00 0. -1.
        -11    1    4    4    0    0  0.43872126183E-02 -0.43734764118E-01 -0.10627339398E+00  0.11500553298E+00  0.51100000000E-03 0. -1.
         11    1    4    4    0    0 -0.23208198827E-03  0.87121780272E-03 -0.17528238986E-01  0.17558848637E-01  0.51100000000E-03 0.  1.
</event>
<event>
 8    1  0.1199892E+005  0.1043930E+01  0.7957747E-01            NaN
         13   -1    0    0    0    0  0.00000000000E+00  0.00000000000E+00  0.74505805969E-08  0.10566000000E+00  0.10566000000E+00 0. -1.
     999900   -1    0    0    0    0 -0.00000000000E+00 -0.00000000000E+00 -0.74505805969E-08  0.93827000000E+00  0.93827000000E+00 0.  1.
     999902    2    1    2    0    0 -0.21431225403E-01 -0.87331538903E-02 -0.59082545225E-03  0.10207801734E+01  0.10205176372E+01 0.  0.
     999903    2    3    3    0    0  0.93736285734E-01  0.11853002794E-01 -0.85352234585E-01  0.12900001998E+00  0.20712707886E-01 0.  0.
         14    1    1    2    0    0  0.21431225403E-01  0.87331538903E-02  0.59082545225E-03  0.23149826649E-01  0.00000000000E+00 0. -1.
     999901    1    3    3    0    0 -0.11516751114E+00 -0.20586156685E-01  0.84761409132E-01  0.89178015337E+00  0.88000000000E+00 0. -1.
        -11    1    4    4    0    0  0.29781628313E-01 -0.58565456527E-02 -0.27501387575E-01  0.40961347042E-01  0.51100000000E-03 0. -1.
         11    1    4    4    0    0  0.63954657421E-01  0.17709548447E-01 -0.57850847009E-01  0.88038672938E-01  0.51100000000E-03 0.  1.
</event>
<event>
 7    1  0.1199892E+005  0.1043930E+01  0.7957747E-01            NaN
         13   -1    0    0    0    0  0.00000000000E+00  0.00000000000E+00  0.74505805969E-08  0.10566000000E+00  0.10566000000E+00 0.  1.
     999900   -1    0    0    0    0 -0.00000000000E+00 -0.00000000000E+00 -0.74505805969E-08  0.93827000000E+00  0.93827000000E+00 0.  1.
     999902    2    1    2    0    0  0.65891773137E-02 -0.21899520841E-01 -0.64599913047E-02  0.10201657883E+01  0.10198889635E+01 0.  0.
         14    1    1    2    0    0 -0.65891773137E-02  0.21899520841E-01  0.64599913047E-02  0.23764211714E-01  0.00000000000E+00 0.  1.
     999901    1    3    3    0    0 -0.37453561862E-01  0.24081065825E-01 -0.10728748708E+00  0.88763352343E+00  0.88000000000E+00 0.  1.
        -11    1    3    3    0    0  0.23766138343E-01  0.22895977834E-02  0.64571374218E-01  0.68846169677E-01  0.51100000000E-03 0.  1.
         11    1    3    3    0    0  0.20276600832E-01 -0.48270184449E-01  0.36256121558E-01  0.63686095182E-01  0.51100000000E-03 0. -1.
</event>
<event>
 8    1  0.1199892E+005  0.1043930E+01  0.7957747E-01            NaN
         13   -1    0    0    0    0  0.00000000000E+00  0.00000000000E+00  0.74505805969E-08  0.10566000000E+00  0.10566000000E+00 0. -1.
     999900   -1    0    0    0    0 -0.00000000000E+00 -0.00000000000E+00 -0.74505805969E-08  0.93827000000E+00  0.93827000000E+00 0. -1.
     999902    2    1    2    0    0  0.19034983912E-03  0.31779761109E-01  0.19237135757E-02  0.10120914994E+01  0.10115905856E+01 0.  0.
     999903    2    3    3    0    0 -0.54189690035E-01 -0.10359596967E+00 -0.17337620846E-01  0.11987248128E+00  0.20004280348E-01 0.  0.
         14    1    1    2    0    0 -0.19034983912E-03 -0.31779761109E-01 -0.19237135757E-02  0.31838500642E-01  0.00000000000E+00 0. -1.
     999901    1    3    3    0    0  0.54380039875E-01  0.13537573078E+00  0.19261334422E-01  0.89221901808E+00  0.88000000000E+00 0.  1.
        -11    1    4    4    0    0 -0.16283778019E-01 -0.22129780577E-01 -0.11620954446E-01  0.29836157900E-01  0.51100000000E-03 0.  1.
         11    1    4    4    0    0 -0.37905912016E-01 -0.81466189096E-01 -0.57166664003E-02  0.90036323377E-01  0.51100000000E-03 0. -1.
</event>
<event>
 8    1  0.1199892E+005  0.1043930E+01  0.7957747E-01            NaN
         13   -1    0    0    0    0  0.00000000000E+00  0.00000000000E+00  0.74505805969E-08  0.10566000000E+00  0.10566000000E+00 0. -1.
     999900   -1    0    0    0    0 -0.00000000000E+00 -0.00000000000E+00 -0.74505805969E-08  0.93827000000E+00  0.93827000000E+00 0. -1.
     999902    2    1    2    0    0 -0.11031238318E-01  0.15470457152E-01  0.13455464278E-01  0.10206475435E+01  0.10203819555E+01 0.  0.
     999903    2    3    3    0    0  0.17831288141E-01 -0.88232074447E-01 -0.88940019112E-01  0.12819469008E+00  0.20510918259E-01 0.  0.
         14    1    1    2    0    0  0.11031238318E-01 -0.15470457152E-01 -0.13455464278E-01  0.23282456534E-01  0.00000000000E+00 0.  1.
     999901    1    3    3    0    0 -0.28862526459E-01  0.10370253160E+00  0.10239548339E+00  0.89245285338E+00  0.88000000000E+00 0.  1.
        -11    1    4    4    0    0  0.62244799650E-02 -0.43566788662E-02 -0.64344934501E-02  0.99693845616E-02  0.51100000000E-03 0. -1.
         11    1    4    4    0    0  0.11606808176E-01 -0.83875395581E-01 -0.82505525662E-01  0.11822530552E+00  0.51100000000E-03 0.  1.
</event>
<event>
 8    1  0.1199892E+005  0.1043930E+01  0.7957747E-01            NaN
         13   -1    0    0    0    0  0.00000000000E+00  0.00000000000E+00  0.74505805969E-08  0.10566000000E+00  0.10566000000E+00 0. -1.
     999900   -1    0    0    0    0 -0.00000000000E+00 -0.00000000000E+00 -0.74505805969E-08  0.93827000000E+00  0.93827000000E+00 0. -1.
     999902    2    1    2    0    0  0.15524079858E-01  0.17987379184E-01  0.75309460625E-02  0.10190049521E+01  0.10187000708E+01 0.  0.
     999903    2    3    3    0    0 -0.85064621335E-02 -0.12517702368E+00 -0.22917409855E-02  0.12705764513E+00  0.19918482713E-01 0.  0.
         14    1    1    2    0    0 -0.15524079858E-01 -0.17987379184E-01 -0.75309460625E-02  0.24925047923E-01  0.00000000000E+00 0. -1.
     999901    1    3    3    0    0  0.24030541992E-01  0.14316440286E+00  0.98226870480E-02  0.89194730695E+00  0.88000000000E+00 0.  1.
        -11    1    4    4    0    0  0.29937860807E-03 -0.12431263800E-01  0.56933660395E-02  0.13685813278E-01  0.51100000000E-03 0.  1.
         11    1    4    4    0    0 -0.88058407416E-02 -0.11274575988E+00 -0.79851070250E-02  0.11337183185E+00  0.51100000000E-03 0. -1.
</event>
<event>
 8    1  0.1199892E+005  0.1043930E+01  0.7957747E-01            NaN
         13   -1    0    0    0    0  0.00000000000E+00  0.00000000000E+00  0.74505805969E-08  0.10566000000E+00  0.10566000000E+00 0. -1.
     999900   -1    0    0    0    0 -0.00000000000E+00 -0.00000000000E+00 -0.74505805969E-08  0.93827000000E+00  0.93827000000E+00 0. -1.
     999902    2    1    2    0    0  0.11040936246E-01  0.10450608615E-01 -0.19900483214E-01  0.10188871023E+01  0.10185792951E+01 0.  0.
     999903    2    3    3    0    0  0.10906212136E+00  0.49865031317E-01 -0.51437317405E-01  0.13200705326E+00  0.19974904910E-01 0.  0.
         14    1    1    2    0    0 -0.11040936246E-01 -0.10450608615E-01  0.19900483214E-01  0.25042897712E-01  0.00000000000E+00 0. -1.
     999901    1    3    3    0    0 -0.98021185111E-01 -0.39414422702E-01  0.31536834191E-01  0.88688004902E+00  0.88000000000E+00 0.  1.
        -11    1    4    4    0    0  0.56705934011E-01  0.15001772445E-01 -0.25690786339E-01  0.64038221027E-01  0.51100000000E-03 0.  1.
         11    1    4    4    0    0  0.52356187347E-01  0.34863258872E-01 -0.25746531066E-01  0.67968832237E-01  0.51100000000E-03 0. -1.
</event>
<event>
 8    1  0.1199892E+005  0.1043930E+01  0.7957747E-01            NaN
         13   -1    0    0    0    0  0.00000000000E+00  0.00000000000E+00  0.74505805969E-08  0.10566000000E+00  0.10566000000E+00 0. -1.
     999900   -1    0    0    0    0 -0.00000000000E+00 -0.00000000000E+00 -0.74505805969E-08  0.93827000000E+00  0.93827000000E+00 0. -1.
     999902    2    1    2    0    0  0.16463751312E-01 -0.11069539938E-01  0.13555561460E-01  0.10199020357E+01  0.10196189579E+01 0.  0.
     999903    2    3    3    0    0  0.20626973989E-01 -0.82839547235E-01  0.99647789802E-01  0.13278302556E+00  0.20341760580E-01 0.  0.
         14    1    1    2    0    0 -0.16463751312E-01  0.11069539938E-01 -0.13555561460E-01  0.24027964296E-01  0.00000000000E+00 0.  1.
     999901    1    3    3    0    0 -0.41632226763E-02  0.71770007297E-01 -0.86092228343E-01  0.88711901014E+00  0.88000000000E+00 0. -1.
        -11    1    4    4    0    0 -0.77469331430E-03 -0.37005044399E-01  0.46028018316E-01  0.59066175191E-01  0.51100000000E-03 0. -1.
         11    1    4    4    0    0  0.21401667303E-01 -0.45834502837E-01  0.53619771487E-01  0.73716850373E-01  0.51100000000E-03 0.  1.
</event>
<event>
 8    1  0.1199892E+005  0.1043930E+01  0.7957747E-01            NaN
         13   -1    0    0    0    0  0.00000000000E+00  0.00000000000E+00  0.74505805969E-08  0.10566000000E+00  0.10566000000E+00 0.  1.
     999900   -1    0    0    0    0 -0.00000000000E+00 -0.00000000000E+00 -0.74505805969E-08  0.93827000000E+00  0.93827000000E+00 0.  1.
     999902    2    1    2    0    0 -0.14707550060E-01 -0.13804300056E-01 -0.18523439891E-01  0.10165440811E+01  0.10161751228E+01 0.  0.
     999903    2    3    3    0    0  0.12248423302E+00  0.14575117506E-01  0.32236385750E-02  0.12519683557E+00  0.21190431825E-01 0.  0.
         14    1    1    2    0    0  0.14707550060E-01  0.13804300056E-01  0.18523439891E-01  0.27385918904E-01  0.00000000000E+00 0.  1.
     999901    1    3    3    0    0 -0.13719178308E+00 -0.28379417563E-01 -0.21747078466E-01  0.89134724553E+00  0.88000000000E+00 0. -1.
        -11    1    4    4    0    0  0.98431216160E-01  0.19861508401E-01  0.46424671409E-02  0.10052361639E+00  0.51100000000E-03 0. -1.
         11    1    4    4    0    0  0.24053016864E-01 -0.52863908948E-02 -0.14188285658E-02  0.24673219175E-01  0.51100000000E-03 0.  1.
</event>
<event>
 8    1  0.1199892E+005  0.1043930E+01  0.7957747E-01            NaN
         13   -1    0    0    0    0  0.00000000000E+00  0.00000000000E+00  0.74505805969E-08  0.10566000000E+00  0.10566000000E+00 0. -1.
     999900   -1    0    0    0    0 -0.00000000000E+00 -0.00000000000E+00 -0.74505805969E-08  0.93827000000E+00  0.93827000000E+00 0. -1.
     999902    2    1    2    0    0  0.16765354565E-02  0.65278467472E-02  0.22764203851E-01  0.10201890537E+01  0.10199127770E+01 0.  0.
     999903    2    3    3    0    0  0.49662621269E-01  0.54061492090E-01 -0.10351829928E+00  0.12861214593E+00  0.20881209638E-01 0.  0.
         14    1    1    2    0    0 -0.16765354565E-02 -0.65278467472E-02 -0.22764203851E-01  0.23740946301E-01  0.00000000000E+00 0. -1.
     999901    1    3    3    0    0 -0.47986085813E-01 -0.47533645343E-01  0.12628250313E+00  0.89157690777E+00  0.88000000000E+00 0.  1.
        -11    1    4    4    0    0  0.32165488475E-01  0.19678090381E-01 -0.52921982339E-01  0.64983407310E-01  0.51100000000E-03 0.  1.
         11    1    4    4    0    0  0.17497132794E-01  0.34383401709E-01 -0.50596316942E-01  0.63628738619E-01  0.51100000000E-03 0. -1.
</event>
<event>
 8    1  0.1199892E+005  0.1043930E+01  0.7957747E-01            NaN
         13   -1    0    0    0    0  0.00000000000E+00  0.00000000000E+00  0.74505805969E-08  0.10566000000E+00  0.10566000000E+00 0. -1.
     999900   -1    0    0    0    0 -0.00000000000E+00 -0.00000000000E+00 -0.74505805969E-08  0.93827000000E+00  0.93827000000E+00 0. -1.
     999902    2    1    2    0    0  0.60462477390E-03  0.14723177360E-02  0.23553638438E-01  0.10203226458E+01  0.10200495058E+01 0.  0.
     999903    2    3    3    0    0  0.21984078186E-01 -0.70955011277E-01  0.10852110897E+00  0.13301082342E+00  0.19928239617E-01 0.  0.
         14    1    1    2    0    0 -0.60462477390E-03 -0.14723177360E-02 -0.23553638438E-01  0.23607354242E-01  0.00000000000E+00 0.  1.
     999901    1    3    3    0    0 -0.21379453412E-01  0.72427329013E-01 -0.84967470536E-01  0.88731182234E+00  0.88000000000E+00 0. -1.
        -11    1    4    4    0    0  0.19571391522E-01 -0.29858852240E-01  0.48428682082E-01  0.60168004724E-01  0.51100000000E-03 0. -1.
         11    1    4    4    0    0  0.24126866641E-02 -0.41096159037E-01  0.60092426892E-01  0.72842818694E-01  0.51100000000E-03 0.  1.
</event>
<event>
 8    1  0.1199892E+005  0.1043930E+01  0.7957747E-01            NaN
         13   -1    0    0    0    0  0.00000000000E+00  0.00000000000E+00  0.74505805969E-08  0.10566000000E+00  0.10566000000E+00 0.  1.
     999900   -1    0    0    0    0 -0.00000000000E+00 -0.00000000000E+00 -0.74505805969E-08  0.93827000000E+00  0.93827000000E+00 0.  1.
     999902    2    1    2    0    0 -0.50184915870E-03  0.18074028529E-01 -0.15365666161E-01  0.10202018299E+01  0.10199258540E+01 0.  0.
     999903    2    3    3    0    0 -0.29947132260E-01  0.41238666335E-01  0.11738101936E+00  0.12945758621E+00  0.19583273203E-01 0.  0.
         14    1    1    2    0    0  0.50184915870E-03 -0.18074028529E-01  0.15365666161E-01  0.23728170103E-01  0.00000000000E+00 0. -1.
     999901    1    3    3    0    0  0.29445283101E-01 -0.23164637806E-01 -0.13274668552E+00  0.89074424369E+00  0.88000000000E+00 0.  1.
        -11    1    4    4    0    0 -0.18930249798E-02  0.17568242140E-01  0.32977087169E-01  0.37416254150E-01  0.51100000000E-03 0. -1.
         11    1    4    4    0    0 -0.28054107280E-01  0.23670424195E-01  0.84403932194E-01  0.92041332061E-01  0.51100000000E-03 0.  1.
</event>
<event>
 8    1  0.1199892E+005  0.1043930E+01  0.7957747E-01            NaN
         13   -1    0    0    0    0  0.00000000000E+00  0.00000000000E+00  0.74505805969E-08  0.10566000000E+00  0.10566000000E+00 0. -1.
     999900   -1    0    0    0    0 -0.00000000000E+00 -0.00000000000E+00 -0.74505805969E-08  0.93827000000E+00  0.93827000000E+00 0. -1.
     999902    2    1    2    0    0 -0.19934714348E-01  0.82151962696E-02  0.11040654131E-01  0.10197064922E+01  0.10194187324E+01 0.  0.
     999903    2    3    3    0    0  0.11274122812E+00  0.96678328515E-03  0.58160932856E-01  0.12848499008E+00  0.20351397428E-01 0.  0.
         14    1    1    2    0    0  0.19934714348E-01 -0.82151962696E-02 -0.11040654131E-01  0.24223507787E-01  0.00000000000E+00 0. -1.
     999901    1    3    3    0    0 -0.13267594247E+00  0.72484129844E-02 -0.47120278725E-01  0.89122150213E+00  0.88000000000E+00 0. -1.
        -11    1    4    4    0    0  0.67562224825E-01  0.10360405943E-01  0.32582936772E-01  0.75722527192E-01  0.51100000000E-03 0.  1.
         11    1    4    4    0    0  0.45179003293E-01 -0.93936226582E-02  0.25577996083E-01  0.52762462886E-01  0.51100000000E-03 0. -1.
</event>
<event>
 8    1  0.1199892E+005  0.1043930E+01  0.7957747E-01            NaN
         13   -1    0    0    0    0  0.00000000000E+00  0.00000000000E+00  0.74505805969E-08  0.10566000000E+00  0.10566000000E+00 0.  1.
     999900   -1    0    0    0    0 -0.00000000000E+00 -0.00000000000E+00 -0.74505805969E-08  0.93827000000E+00  0.93827000000E+00 0. -1.
     999902    2    1    2    0    0 -0.21008923080E-01 -0.81957944682E-03 -0.11208047526E-01  0.10201042390E+01  0.10198259614E+01 0.  0.
     999903    2    3    3    0    0  0.65721410733E-01 -0.10884401772E+00 -0.49941754136E-02  0.12924507935E+00  0.22650049119E-01 0.  0.
         14    1    1    2    0    0  0.21008923080E-01  0.81957944682E-03  0.11208047526E-01  0.23825761033E-01  0.00000000000E+00 0.  1.
     999901    1    3    3    0    0 -0.86730333813E-01  0.10802443828E+00 -0.62138721125E-02  0.89085915962E+00  0.88000000000E+00 0. -1.
        -11    1    4    4    0    0  0.16246638590E-01 -0.38733226164E-01 -0.10366756632E-01  0.43266000954E-01  0.51100000000E-03 0. -1.
         11    1    4    4    0    0  0.49474772143E-01 -0.70110791560E-01  0.53725812181E-02  0.85979078395E-01  0.51100000000E-03 0.  1.
</event>
<event>
 8    1  0.1199892E+005  0.1043930E+01  0.7957747E-01            NaN
         13   -1    0    0    0    0  0.00000000000E+00  0.00000000000E+00  0.74505805969E-08  0.10566000000E+00  0.10566000000E+00 0. -1.
     999900   -1    0    0    0    0 -0.00000000000E+00 -0.00000000000E+00 -0.74505805969E-08  0.93827000000E+00  0.93827000000E+00 0.  1.
     999902    2    1    2    0    0 -0.23298972207E-02  0.22601825044E-01  0.71398745175E-02  0.10201130160E+01  0.10198349459E+01 0.  0.
     999903    2    3    3    0    0  0.12531774316E-01 -0.63815252712E-01  0.11040269889E+00  0.12974680403E+00  0.20397190681E-01 0.  0.
         14    1    1    2    0    0  0.23298972207E-02 -0.22601825044E-01 -0.71398745175E-02  0.23816983951E-01  0.00000000000E+00 0. -1.
     999901    1    3    3    0    0 -0.14861671536E-01  0.86417077757E-01 -0.10326282437E+00  0.89036621202E+00  0.88000000000E+00 0.  1.
        -11    1    4    4    0    0  0.10425220029E-01 -0.59133365752E-01  0.86536633876E-01  0.10532943692E+00  0.51100000000E-03 0. -1.
         11    1    4    4    0    0  0.21065542871E-02 -0.46818869608E-02  0.23866065013E-01  0.24417367112E-01  0.51100000000E-03 0.  1.
</event>
<event>
 8    1  0.1199892E+005  0.1043930E+01  0.7957747E-01            NaN
         13   -1    0    0    0    0  0.00000000000E+00  0.00000000000E+00  0.74505805969E-08  0.10566000000E+00  0.10566000000E+00 0. -1.
     999900   -1    0    0    0    0 -0.00000000000E+00 -0.00000000000E+00 -0.74505805969E-08  0.93827000000E+00  0.93827000000E+00 0.  1.
     999902    2    1    2    0    0 -0.91446234840E-02 -0.58624341991E-02 -0.21099155851E-01  0.10201988675E+01  0.10199228219E+01 0.  0.
     999903    2    3    3    0    0 -0.41649448489E-01 -0.11507407541E+00 -0.46970194500E-01  0.13247534246E+00  0.19151965891E-01 0.  0.
         14    1    1    2    0    0  0.91446234840E-02  0.58624341991E-02  0.21099155851E-01  0.23731132527E-01  0.00000000000E+00 0. -1.
     999901    1    3    3    0    0  0.32504825005E-01  0.10921164121E+00  0.25871038649E-01  0.88772352501E+00  0.88000000000E+00 0. -1.
        -11    1    4    4    0    0 -0.28153980099E-01 -0.49847475636E-01 -0.20965160292E-01  0.60968979733E-01  0.51100000000E-03 0. -1.
         11    1    4    4    0    0 -0.13495468391E-01 -0.65226599772E-01 -0.26005034208E-01  0.71506362724E-01  0.51100000000E-03 0.  1.
</event>
<event>
 8    1  0.1199892E+005  0.1043930E+01  0.7957747E-01            NaN
         13   -1    0    0    0    0  0.00000000000E+00  0.00000000000E+00  0.74505805969E-08  0.10566000000E+00  0.10566000000E+00 0. -1.
     999900   -1    0    0    0    0 -0.00000000000E+00 -0.00000000000E+00 -0.74505805969E-08  0.93827000000E+00  0.93827000000E+00 0.  1.
     999902    2    1    2    0    0  0.41780925450E-02  0.43025970753E-02  0.22650586604E-01  0.10204988696E+01  0.10202298393E+01 0.  0.
     999903    2    3    3    0    0  0.12957901284E+00  0.14483733064E-02  0.10215101154E-01  0.13151732945E+00  0.19991030508E-01 0.  0.
         14    1    1    2    0    0 -0.41780925450E-02 -0.43025970753E-02 -0.22650586604E-01  0.23431130412E-01  0.00000000000E+00 0.  1.
     999901    1    3    3    0    0 -0.12540092029E+00  0.28542237689E-02  0.12435485450E-01  0.88898154014E+00  0.88000000000E+00 0.  1.
        -11    1    4    4    0    0  0.53880671037E-01 -0.92380898383E-02  0.41794040818E-02  0.54828802237E-01  0.51100000000E-03 0. -1.
         11    1    4    4    0    0  0.75698341803E-01  0.10686463145E-01  0.60356970721E-02  0.76688527215E-01  0.51100000000E-03 0.  1.
</event>
<event>
 8    1  0.1199892E+005  0.1043930E+01  0.7957747E-01            NaN
         13   -1    0    0    0    0  0.00000000000E+00  0.00000000000E+00  0.74505805969E-08  0.10566000000E+00  0.10566000000E+00 0. -1.
     999900   -1    0    0    0    0 -0.00000000000E+00 -0.00000000000E+00 -0.74505805969E-08  0.93827000000E+00  0.93827000000E+00 0. -1.
     999902    2    1    2    0    0  0.38390794093E-02  0.17405327973E-01  0.14667650431E-01  0.10208470205E+01  0.10205860157E+01 0.  0.
     999903    2    3    3    0    0  0.10462768042E-01  0.76559274455E-01 -0.10373426486E+00  0.13092450918E+00  0.20239500465E-01 0.  0.
         14    1    1    2    0    0 -0.38390794093E-02 -0.17405327973E-01 -0.14667650431E-01  0.23082979481E-01  0.00000000000E+00 0. -1.
     999901    1    3    3    0    0 -0.66236886326E-02 -0.59153946482E-01  0.11840191529E+00  0.88992251133E+00  0.88000000000E+00 0. -1.
        -11    1    4    4    0    0  0.11308772489E-01  0.59876561234E-01 -0.66996679189E-01  0.90564380768E-01  0.51100000000E-03 0.  1.
         11    1    4    4    0    0 -0.84600444674E-03  0.16682713221E-01 -0.36737585671E-01  0.40360128417E-01  0.51100000000E-03 0. -1.
</event>
<event>
 8    1  0.1199892E+005  0.1043930E+01  0.7957747E-01            NaN
         13   -1    0    0    0    0  0.00000000000E+00  0.00000000000E+00  0.74505805969E-08  0.10566000000E+00  0.10566000000E+00 0. -1.
     999900   -1    0    0    0    0 -0.00000000000E+00 -0.00000000000E+00 -0.74505805969E-08  0.93827000000E+00  0.93827000000E+00 0. -1.
     999902    2    1    2    0    0 -0.69663989807E-02  0.11499310806E-01 -0.19741206885E-01  0.10200452745E+01  0.10197656014E+01 0.  0.
     999903    2    3    3    0    0  0.31373001134E-01 -0.94385342236E-01  0.77251254987E-01  0.12758294642E+00  0.20415528184E-01 0.  0.
         14    1    1    2    0    0  0.69663989807E-02 -0.11499310806E-01  0.19741206885E-01  0.23884725517E-01  0.00000000000E+00 0. -1.
     999901    1    3    3    0    0 -0.38339400114E-01  0.10588465304E+00 -0.96992461872E-01  0.89246232806E+00  0.88000000000E+00 0. -1.
        -11    1    4    4    0    0  0.17110744150E-01 -0.26201360350E-01  0.30403117118E-01  0.43633696853E-01  0.51100000000E-03 0. -1.
         11    1    4    4    0    0  0.14262256984E-01 -0.68183981886E-01  0.46848137869E-01  0.83949249567E-01  0.51100000000E-03 0.  1.
</event>
<event>
 8    1  0.1199892E+005  0.1043930E+01  0.7957747E-01            NaN
         13   -1    0    0    0    0  0.00000000000E+00  0.00000000000E+00  0.74505805969E-08  0.10566000000E+00  0.10566000000E+00 0.  1.
     999900   -1    0    0    0    0 -0.00000000000E+00 -0.00000000000E+00 -0.74505805969E-08  0.93827000000E+00  0.93827000000E+00 0. -1.
     999902    2    1    2    0    0 -0.11665891038E-01 -0.19558377079E-01  0.13782201505E-01  0.10173109804E+01  0.10169626633E+01 0.  0.
     999903    2    3    3    0    0 -0.46962501908E-02 -0.24880543084E-01  0.12599226220E+00  0.13014245125E+00  0.20540479352E-01 0.  0.
         14    1    1    2    0    0  0.11665891038E-01  0.19558377079E-01 -0.13782201505E-01  0.26619019629E-01  0.00000000000E+00 0. -1.
     999901    1    3    3    0    0 -0.69696408474E-02  0.53221660051E-02 -0.11221006070E+00  0.88716852912E+00  0.88000000000E+00 0. -1.
        -11    1    4    4    0    0 -0.34405727515E-02 -0.38226606653E-04  0.28067673136E-02  0.44696829736E-02  0.51100000000E-03 0.  1.
         11    1    4    4    0    0 -0.12556774392E-02 -0.24842316477E-01  0.12318549489E+00  0.12567276827E+00  0.51100000000E-03 0. -1.
</event>
<event>
 8    1  0.1199892E+005  0.1043930E+01  0.7957747E-01            NaN
         13   -1    0    0    0    0  0.00000000000E+00  0.00000000000E+00  0.74505805969E-08  0.10566000000E+00  0.10566000000E+00 0. -1.
     999900   -1    0    0    0    0 -0.00000000000E+00 -0.00000000000E+00 -0.74505805969E-08  0.93827000000E+00  0.93827000000E+00 0.  1.
     999902    2    1    2    0    0  0.18633169205E-01  0.23122024811E-01  0.52301576602E-02  0.10137774284E+01  0.10133289183E+01 0.  0.
     999903    2    3    3    0    0  0.26942749593E-01  0.52413031485E-01 -0.10934507075E+00  0.12582782668E+00  0.20081330721E-01 0.  0.
         14    1    1    2    0    0 -0.18633169205E-01 -0.23122024811E-01 -0.52301576602E-02  0.30152571617E-01  0.00000000000E+00 0.  1.
     999901    1    3    3    0    0 -0.83095803885E-02 -0.29291006675E-01  0.11457522842E+00  0.88794960170E+00  0.88000000000E+00 0. -1.
        -11    1    4    4    0    0  0.72270245154E-02  0.71569461037E-02 -0.74963837768E-02  0.12645499263E-01  0.51100000000E-03 0.  1.
         11    1    4    4    0    0  0.19715725078E-01  0.45256085382E-01 -0.10184868698E+00  0.11318232742E+00  0.51100000000E-03 0. -1.
</event>
<event>
 8    1  0.1199892E+005  0.1043930E+01  0.7957747E-01            NaN
         13   -1    0    0    0    0  0.00000000000E+00  0.00000000000E+00  0.74505805969E-08  0.10566000000E+00  0.10566000000E+00 0. -1.
     999900   -1    0    0    0    0 -0.00000000000E+00 -0.00000000000E+00 -0.74505805969E-08  0.93827000000E+00  0.93827000000E+00 0. -1.
     999902    2    1    2    0    0 -0.12863403833E-01 -0.20132639670E-01  0.13637074440E-02  0.10199998927E+01  0.10197191432E+01 0.  0.
     999903    2    3    3    0    0 -0.43695486377E-01 -0.11292025909E+00 -0.51037329220E-01  0.13303539042E+00  0.20816476337E-01 0.  0.
         14    1    1    2    0    0  0.12863403833E-01  0.20132639670E-01 -0.13637074440E-02  0.23930107318E-01  0.00000000000E+00 0.  1.
     999901    1    3    3    0    0  0.30832082544E-01  0.92787619422E-01  0.52401036664E-01  0.88696450226E+00  0.88000000000E+00 0. -1.
        -11    1    4    4    0    0 -0.35137905743E-02 -0.33726238280E-01 -0.11316721244E-01  0.35751016398E-01  0.51100000000E-03 0.  1.
         11    1    4    4    0    0 -0.40181695802E-01 -0.79194020811E-01 -0.39720607976E-01  0.97284374021E-01  0.51100000000E-03 0. -1.
</event>
<event>
 8    1  0.1199892E+005  0.1043930E+01  0.7957747E-01            NaN
         13   -1    0    0    0    0  0.00000000000E+00  0.00000000000E+00  0.74505805969E-08  0.10566000000E+00  0.10566000000E+00 0.  1.
     999900   -1    0    0    0    0 -0.00000000000E+00 -0.00000000000E+00 -0.74505805969E-08  0.93827000000E+00  0.93827000000E+00 0. -1.
     999902    2    1    2    0    0  0.13962461227E-01 -0.33446737471E-03  0.19762625525E-01  0.10197303397E+01  0.10194431530E+01 0.  0.
     999903    2    3    3    0    0  0.86364021224E-01  0.79487963609E-01  0.57250473714E-01  0.13236404263E+00  0.21576434375E-01 0.  0.
         14    1    1    2    0    0 -0.13962461227E-01  0.33446737471E-03 -0.19762625525E-01  0.24199660320E-01  0.00000000000E+00 0. -1.
     999901    1    3    3    0    0 -0.72401559996E-01 -0.79822430984E-01 -0.37487848189E-01  0.88736629705E+00  0.88000000000E+00 0. -1.
        -11    1    4    4    0    0  0.27274876596E-01  0.32221394829E-01  0.30586719142E-01  0.52133920694E-01  0.51100000000E-03 0. -1.
         11    1    4    4    0    0  0.59089144627E-01  0.47266568780E-01  0.26663754572E-01  0.80230121936E-01  0.51100000000E-03 0.  1.
</event>
<event>
 8    1  0.1199892E+005  0.1043930E+01  0.7957747E-01            NaN
         13   -1    0    0    0    0  0.00000000000E+00  0.00000000000E+00  0.74505805969E-08  0.10566000000E+00  0.10566000000E+00 0.  1.
     999900   -1    0    0    0    0 -0.00000000000E+00 -0.00000000000E+00 -0.74505805969E-08  0.93827000000E+00  0.93827000000E+00 0.  1.
     999902    2    1    2    0    0 -0.11249417383E-02 -0.33701990611E-02 -0.24417698885E-01  0.10192551595E+01  0.10189564428E+01 0.  0.
     999903    2    3    3    0    0 -0.35179036750E-01  0.31971379824E-01  0.11592486357E+00  0.12678401518E+00  0.19387592829E-01 0.  0.
         14    1    1    2    0    0  0.11249417383E-02  0.33701990611E-02  0.24417698885E-01  0.24674840516E-01  0.00000000000E+00 0.  1.
     999901    1    3    3    0    0  0.34054095012E-01 -0.35341578885E-01 -0.14034256246E+00  0.89247114431E+00  0.88000000000E+00 0.  1.
        -11    1    4    4    0    0 -0.26796022076E-01  0.17342326805E-01  0.92968900606E-01  0.98296799027E-01  0.51100000000E-03 0. -1.
         11    1    4    4    0    0 -0.83830146745E-02  0.14629053019E-01  0.22955962965E-01  0.28487216149E-01  0.51100000000E-03 0.  1.
</event>
<event>
 8    1  0.1199892E+005  0.1043930E+01  0.7957747E-01            NaN
         13   -1    0    0    0    0  0.00000000000E+00  0.00000000000E+00  0.74505805969E-08  0.10566000000E+00  0.10566000000E+00 0. -1.
     999900   -1    0    0    0    0 -0.00000000000E+00 -0.00000000000E+00 -0.74505805969E-08  0.93827000000E+00  0.93827000000E+00 0.  1.
     999902    2    1    2    0    0 -0.11887944603E-01 -0.20551199508E-01  0.38060097631E-02  0.10198850268E+01  0.10196015433E+01 0.  0.
     999903    2    3    3    0    0  0.81940047740E-01  0.10933924355E-02  0.98565908785E-01  0.12957518239E+00  0.18950529973E-01 0.  0.
         14    1    1    2    0    0  0.11887944603E-01  0.20551199508E-01 -0.38060097631E-02  0.24044973246E-01  0.00000000000E+00 0. -1.
     999901    1    3    3    0    0 -0.93827992344E-01 -0.21644591943E-01 -0.94759899022E-01  0.89030984436E+00  0.88000000000E+00 0.  1.
        -11    1    4    4    0    0  0.91918877121E-02  0.58227616538E-02  0.16860003140E-01  0.20072772102E-01  0.51100000000E-03 0. -1.
         11    1    4    4    0    0  0.72748160028E-01 -0.47293692183E-02  0.81705905645E-01  0.10950241029E+00  0.51100000000E-03 0.  1.
</event>
<event>
 8    1  0.1199892E+005  0.1043930E+01  0.7957747E-01            NaN
         13   -1    0    0    0    0  0.00000000000E+00  0.00000000000E+00  0.74505805969E-08  0.10566000000E+00  0.10566000000E+00 0.  1.
     999900   -1    0    0    0    0 -0.00000000000E+00 -0.00000000000E+00 -0.74505805969E-08  0.93827000000E+00  0.93827000000E+00 0.  1.
     999902    2    1    2    0    0  0.69999519765E-02 -0.24928206555E-01  0.17213763520E-02  0.10179804731E+01  0.10176496773E+01 0.  0.
     999903    2    3    3    0    0 -0.91100520938E-01 -0.74728176750E-01  0.50737425776E-01  0.12977649151E+00  0.19597093107E-01 0.  0.
         14    1    1    2    0    0 -0.69999519765E-02  0.24928206555E-01 -0.17213763520E-02  0.25949526899E-01  0.00000000000E+00 0.  1.
     999901    1    3    3    0    0  0.98100472914E-01  0.49799970194E-01 -0.49016049424E-01  0.88820398159E+00  0.88000000000E+00 0.  1.
        -11    1    4    4    0    0 -0.68563398773E-01 -0.44850781345E-01  0.32505082733E-01  0.88144051206E-01  0.51100000000E-03 0.  1.
         11    1    4    4    0    0 -0.22537122165E-01 -0.29877395404E-01  0.18232343043E-01  0.41632440302E-01  0.51100000000E-03 0. -1.
</event>
<event>
 8    1  0.1199892E+005  0.1043930E+01  0.7957747E-01            NaN
         13   -1    0    0    0    0  0.00000000000E+00  0.00000000000E+00  0.74505805969E-08  0.10566000000E+00  0.10566000000E+00 0. -1.
     999900   -1    0    0    0    0 -0.00000000000E+00 -0.00000000000E+00 -0.74505805969E-08  0.93827000000E+00  0.93827000000E+00 0. -1.
     999902    2    1    2    0    0  0.27484410705E-02  0.23267423857E-01 -0.57129018729E-02  0.10198143580E+01  0.10195291857E+01 0.  0.
     999903    2    3    3    0    0  0.17256687750E-01  0.51454174137E-01 -0.11867286032E+00  0.13202782154E+00  0.20069194695E-01 0.  0.
         14    1    1    2    0    0 -0.27484410705E-02 -0.23267423857E-01  0.57129018729E-02  0.24115642000E-01  0.00000000000E+00 0.  1.
     999901    1    3    3    0    0 -0.14508246679E-01 -0.28186750280E-01  0.11295995844E+00  0.88778653646E+00  0.88000000000E+00 0.  1.
        -11    1    4    4    0    0  0.12897956255E-01  0.40885635885E-01 -0.70493666815E-01  0.82508246129E-01  0.51100000000E-03 0. -1.
         11    1    4    4    0    0  0.43587314950E-02  0.10568538252E-01 -0.48179193503E-01  0.49519575408E-01  0.51100000000E-03 0.  1.
</event>
<event>
 8    1  0.1199892E+005  0.1043930E+01  0.7957747E-01            NaN
         13   -1    0    0    0    0  0.00000000000E+00  0.00000000000E+00  0.74505805969E-08  0.10566000000E+00  0.10566000000E+00 0. -1.
     999900   -1    0    0    0    0 -0.00000000000E+00 -0.00000000000E+00 -0.74505805969E-08  0.93827000000E+00  0.93827000000E+00 0.  1.
     999902    2    1    2    0    0  0.70182236444E-02  0.16868683941E-01 -0.14472223487E-01  0.10206222070E+01  0.10203560341E+01 0.  0.
     999903    2    3    3    0    0  0.58678876959E-01 -0.68231549961E-01  0.90043729735E-01  0.12886301453E+00  0.19976191773E-01 0.  0.
         14    1    1    2    0    0 -0.70182236444E-02 -0.16868683941E-01  0.14472223487E-01  0.23307792982E-01  0.00000000000E+00 0. -1.
     999901    1    3    3    0    0 -0.51660653314E-01  0.85100233901E-01 -0.10451595322E+00  0.89175919249E+00  0.88000000000E+00 0.  1.
        -11    1    4    4    0    0  0.30881770303E-01 -0.50431583424E-01  0.56102827984E-01  0.81515745550E-01  0.51100000000E-03 0.  1.
         11    1    4    4    0    0  0.27797106656E-01 -0.17799966537E-01  0.33940901751E-01  0.47347268979E-01  0.51100000000E-03 0. -1.
</event>
<event>
 8    1  0.1199892E+005  0.1043930E+01  0.7957747E-01            NaN
         13   -1    0    0    0    0  0.00000000000E+00  0.00000000000E+00  0.74505805969E-08  0.10566000000E+00  0.10566000000E+00 0.  1.
     999900   -1    0    0    0    0 -0.00000000000E+00 -0.00000000000E+00 -0.74505805969E-08  0.93827000000E+00  0.93827000000E+00 0.  1.
     999902    2    1    2    0    0 -0.44341575944E-02 -0.23788281248E-01 -0.27825300475E-03  0.10197303822E+01  0.10194431965E+01 0.  0.
     999903    2    3    3    0    0 -0.89028133622E-02 -0.11603795985E+00  0.60607298170E-01  0.13280478077E+00  0.20488948047E-01 0.  0.
         14    1    1    2    0    0  0.44341575944E-02  0.23788281248E-01  0.27825300475E-03  0.24199617829E-01  0.00000000000E+00 0.  1.
     999901    1    3    3    0    0  0.44686557677E-02  0.92249678597E-01 -0.60885551175E-01  0.88692560140E+00  0.88000000000E+00 0.  1.
        -11    1    4    4    0    0 -0.14236229903E-01 -0.52578893896E-01  0.28779184106E-01  0.61609357114E-01  0.51100000000E-03 0. -1.
         11    1    4    4    0    0  0.53334165409E-02 -0.63459065949E-01  0.31828114065E-01  0.71195423653E-01  0.51100000000E-03 0.  1.
</event>
<event>
 8    1  0.1199892E+005  0.1043930E+01  0.7957747E-01            NaN
         13   -1    0    0    0    0  0.00000000000E+00  0.00000000000E+00  0.74505805969E-08  0.10566000000E+00  0.10566000000E+00 0. -1.
     999900   -1    0    0    0    0 -0.00000000000E+00 -0.00000000000E+00 -0.74505805969E-08  0.93827000000E+00  0.93827000000E+00 0.  1.
     999902    2    1    2    0    0  0.36867097981E-02  0.24675516568E-01  0.11997704417E-01  0.10162457471E+01  0.10158685942E+01 0.  0.
     999903    2    3    3    0    0  0.51919355583E-01  0.98945196911E-01 -0.60464277131E-01  0.12883766042E+00  0.21387904495E-01 0.  0.
         14    1    1    2    0    0 -0.36867097981E-02 -0.24675516568E-01 -0.11997704417E-01  0.27684252895E-01  0.00000000000E+00 0.  1.
     999901    1    3    3    0    0 -0.48232645785E-01 -0.74269680342E-01  0.72461981548E-01  0.88740808668E+00  0.88000000000E+00 0. -1.
        -11    1    4    4    0    0  0.46436737287E-01  0.70639493050E-01 -0.40308608746E-01  0.93655504954E-01  0.51100000000E-03 0. -1.
         11    1    4    4    0    0  0.54826182961E-02  0.28305703861E-01 -0.20155668386E-01  0.35182155470E-01  0.51100000000E-03 0.  1.
</event>
<event>
 8    1  0.1199892E+005  0.1043930E+01  0.7957747E-01            NaN
         13   -1    0    0    0    0  0.00000000000E+00  0.00000000000E+00  0.74505805969E-08  0.10566000000E+00  0.10566000000E+00 0. -1.
     999900   -1    0    0    0    0 -0.00000000000E+00 -0.00000000000E+00 -0.74505805969E-08  0.93827000000E+00  0.93827000000E+00 0.  1.
     999902    2    1    2    0    0 -0.28932435921E-02 -0.51882786011E-04 -0.22903568500E-01  0.10208443551E+01  0.10205832893E+01 0.  0.
     999903    2    3    3    0    0  0.74687434477E-01 -0.55110476287E-01 -0.91901390842E-01  0.13303192569E+00  0.25223999467E-01 0.  0.
         14    1    1    2    0    0  0.28932435921E-02  0.51882786011E-04  0.22903568500E-01  0.23085644898E-01  0.00000000000E+00 0. -1.
     999901    1    3    3    0    0 -0.77580678069E-01  0.55058593501E-01  0.68997822342E-01  0.88781242941E+00  0.88000000000E+00 0. -1.
        -11    1    4    4    0    0  0.51681655142E-01 -0.35683228095E-01 -0.44879051039E-01  0.77192464584E-01  0.51100000000E-03 0.  1.
         11    1    4    4    0    0  0.23005779335E-01 -0.19427248192E-01 -0.47022339804E-01  0.55839461107E-01  0.51100000000E-03 0. -1.
</event>
<event>
 8    1  0.1199892E+005  0.1043930E+01  0.7957747E-01            NaN
         13   -1    0    0    0    0  0.00000000000E+00  0.00000000000E+00  0.74505805969E-08  0.10566000000E+00  0.10566000000E+00 0. -1.
     999900   -1    0    0    0    0 -0.00000000000E+00 -0.00000000000E+00 -0.74505805969E-08  0.93827000000E+00  0.93827000000E+00 0.  1.
     999902    2    1    2    0    0 -0.85949719000E-02  0.21147642002E-01  0.62989060113E-02  0.10202493640E+01  0.10199745057E+01 0.  0.
     999903    2    3    3    0    0  0.15901252681E-01  0.17785803435E-01  0.12790214356E+00  0.13154316151E+00  0.19376799805E-01 0.  0.
         14    1    1    2    0    0  0.85949719000E-02 -0.21147642002E-01 -0.62989060113E-02  0.23680635995E-01  0.00000000000E+00 0.  1.
     999901    1    3    3    0    0 -0.24496224581E-01  0.33618385670E-02 -0.12160323755E+00  0.88870620250E+00  0.88000000000E+00 0.  1.
        -11    1    4    4    0    0  0.15742250208E-01  0.64082786842E-02  0.49991037361E-01  0.52803876891E-01  0.51100000000E-03 0.  1.
         11    1    4    4    0    0  0.15900247296E-03  0.11377524751E-01  0.77911106201E-01  0.78739284615E-01  0.51100000000E-03 0. -1.
</event>
<event>
 8    1  0.1199892E+005  0.1043930E+01  0.7957747E-01            NaN
         13   -1    0    0    0    0  0.00000000000E+00  0.00000000000E+00  0.74505805969E-08  0.10566000000E+00  0.10566000000E+00 0.  1.
     999900   -1    0    0    0    0 -0.00000000000E+00 -0.00000000000E+00 -0.74505805969E-08  0.93827000000E+00  0.93827000000E+00 0. -1.
     999902    2    1    2    0    0  0.13054087037E-01  0.19225207948E-02  0.19266297483E-01  0.10205784370E+01  0.10203112518E+01 0.  0.
     999903    2    3    3    0    0 -0.99371330687E-02 -0.11948651899E+00 -0.45172246213E-01  0.12961206445E+00  0.19569889869E-01 0.  0.
         14    1    1    2    0    0 -0.13054087037E-01 -0.19225207948E-02 -0.19266297483E-01  0.23351562973E-01  0.00000000000E+00 0. -1.
     999901    1    3    3    0    0  0.22991220106E-01  0.12140903979E+00  0.64438543696E-01  0.89096637257E+00  0.88000000000E+00 0.  1.
        -11    1    4    4    0    0 -0.14911365720E-01 -0.10544772880E+00 -0.41193944228E-01  0.11418745333E+00  0.51100000000E-03 0. -1.
         11    1    4    4    0    0  0.49742326511E-02 -0.14038790191E-01 -0.39783019857E-02  0.15424611119E-01  0.51100000000E-03 0.  1.
</event>
<event>
 8    1  0.1199892E+005  0.1043930E+01  0.7957747E-01            NaN
         13   -1    0    0    0    0  0.00000000000E+00  0.00000000000E+00  0.74505805969E-08  0.10566000000E+00  0.10566000000E+00 0.  1.
     999900   -1    0    0    0    0 -0.00000000000E+00 -0.00000000000E+00 -0.74505805969E-08  0.93827000000E+00  0.93827000000E+00 0. -1.
     999902    2    1    2    0    0  0.19425965962E-01  0.13489136777E-01  0.10185732987E-02  0.10202580238E+01  0.10199833688E+01 0.  0.
     999903    2    3    3    0    0 -0.40966880848E-01 -0.82880157857E-01  0.87187986015E-01  0.12876517215E+00  0.20768215163E-01 0.  0.
         14    1    1    2    0    0 -0.19425965962E-01 -0.13489136777E-01 -0.10185732987E-02  0.23671976177E-01  0.00000000000E+00 0. -1.
     999901    1    3    3    0    0  0.60392846810E-01  0.96369294634E-01 -0.86169412716E-01  0.89149285167E+00  0.88000000000E+00 0. -1.
        -11    1    4    4    0    0 -0.35623156054E-01 -0.50117045234E-01  0.54299767100E-01  0.82033245080E-01  0.51100000000E-03 0. -1.
         11    1    4    4    0    0 -0.53437247937E-02 -0.32763112623E-01  0.32888218915E-01  0.46731927071E-01  0.51100000000E-03 0.  1.
</event>
<event>
 8    1  0.1199892E+005  0.1043930E+01  0.7957747E-01            NaN
         13   -1    0    0    0    0  0.00000000000E+00  0.00000000000E+00  0.74505805969E-08  0.10566000000E+00  0.10566000000E+00 0.  1.
     999900   -1    0    0    0    0 -0.00000000000E+00 -0.00000000000E+00 -0.74505805969E-08  0.93827000000E+00  0.93827000000E+00 0. -1.
     999902    2    1    2    0    0 -0.20596420117E-02  0.40823176647E-02  0.23124625917E-01  0.10203576483E+01  0.10200853271E+01 0.  0.
     999903    2    3    3    0    0  0.29683204355E-01  0.35957442762E-01 -0.11682833058E+00  0.12816346428E+00  0.24555741476E-01 0.  0.
         14    1    1    2    0    0  0.20596420117E-02 -0.40823176647E-02 -0.23124625917E-01  0.23572351739E-01  0.00000000000E+00 0. -1.
     999901    1    3    3    0    0 -0.31742846367E-01 -0.31875125097E-01  0.13995295650E+00  0.89219418398E+00  0.88000000000E+00 0.  1.
        -11    1    4    4    0    0  0.71125760780E-02  0.16363237651E-01 -0.72726893424E-01  0.74885288495E-01  0.51100000000E-03 0.  1.
         11    1    4    4    0    0  0.22570628277E-01  0.19594205112E-01 -0.44101437157E-01  0.53278175786E-01  0.51100000000E-03 0. -1.
</event>
<event>
 8    1  0.1199892E+005  0.1043930E+01  0.7957747E-01            NaN
         13   -1    0    0    0    0  0.00000000000E+00  0.00000000000E+00  0.74505805969E-08  0.10566000000E+00  0.10566000000E+00 0. -1.
     999900   -1    0    0    0    0 -0.00000000000E+00 -0.00000000000E+00 -0.74505805969E-08  0.93827000000E+00  0.93827000000E+00 0. -1.
     999902    2    1    2    0    0 -0.14292212040E-03  0.85022058345E-02 -0.22132549395E-01  0.10202201355E+01  0.10199445903E+01 0.  0.
     999903    2    3    3    0    0 -0.43401172329E-01  0.10833696621E+00 -0.59825350814E-01  0.13271858461E+00  0.20361485567E-01 0.  0.
         14    1    1    2    0    0  0.14292212040E-03 -0.85022058345E-02  0.22132549395E-01  0.23709864476E-01  0.00000000000E+00 0. -1.
     999901    1    3    3    0    0  0.43258250208E-01 -0.99834760376E-01  0.37692801420E-01  0.88750155091E+00  0.88000000000E+00 0. -1.
        -11    1    4    4    0    0 -0.12376625022E-01  0.33176878191E-01 -0.28949384228E-01  0.45740726510E-01  0.51100000000E-03 0.  1.
         11    1    4    4    0    0 -0.31024547306E-01  0.75160088019E-01 -0.30875966586E-01  0.86977858103E-01  0.51100000000E-03 0. -1.
</event>
<event>
 8    1  0.1199892E+005  0.1043930E+01  0.7957747E-01            NaN
         13   -1    0    0    0    0  0.00000000000E+00  0.00000000000E+00  0.74505805969E-08  0.10566000000E+00  0.10566000000E+00 0. -1.
     999900   -1    0    0    0    0 -0.00000000000E+00 -0.00000000000E+00 -0.74505805969E-08  0.93827000000E+00  0.93827000000E+00 0.  1.
     999902    2    1    2    0    0  0.11754379579E-01 -0.64702319788E-03  0.21429829858E-01  0.10194796077E+01  0.10191863660E+01 0.  0.
     999903    2    3    3    0    0 -0.40219037666E-02  0.10848428389E+00 -0.66355036363E-01  0.12826430480E+00  0.16239626640E-01 0.  0.
         14    1    1    2    0    0 -0.11754379579E-01  0.64702319788E-03 -0.21429829858E-01  0.24450392349E-01  0.00000000000E+00 0. -1.
     999901    1    3    3    0    0  0.15776283346E-01 -0.10913130709E+00  0.87784866221E-01  0.89121530285E+00  0.88000000000E+00 0. -1.
        -11    1    4    4    0    0 -0.91218992527E-02  0.39184629518E-01 -0.22625286578E-01  0.46160686197E-01  0.51100000000E-03 0. -1.
         11    1    4    4    0    0  0.50999954861E-02  0.69299654371E-01 -0.43729749786E-01  0.82103618600E-01  0.51100000000E-03 0.  1.
</event>
<event>
 8    1  0.1199892E+005  0.1043930E+01  0.7957747E-01            NaN
         13   -1    0    0    0    0  0.00000000000E+00  0.00000000000E+00  0.74505805969E-08  0.10566000000E+00  0.10566000000E+00 0.  1.
     999900   -1    0    0    0    0 -0.00000000000E+00 -0.00000000000E+00 -0.74505805969E-08  0.93827000000E+00  0.93827000000E+00 0. -1.
     999902    2    1    2    0    0  0.97453646500E-02  0.22286812763E-01  0.16716174292E-02  0.10195482761E+01  0.10192566992E+01 0.  0.
     999903    2    3    3    0    0 -0.10757796488E+00 -0.55716426342E-01 -0.34713781299E-01  0.12759919336E+00  0.19979210230E-01 0.  0.
         14    1    1    2    0    0 -0.97453646500E-02 -0.22286812763E-01 -0.16716174292E-02  0.24381723896E-01  0.00000000000E+00 0.  1.
     999901    1    3    3    0    0  0.11732332953E+00  0.78003239105E-01  0.36385398729E-01  0.89194908274E+00  0.88000000000E+00 0. -1.
        -11    1    4    4    0    0 -0.71803012838E-01 -0.43541427131E-01 -0.16234016913E-01  0.85529719720E-01  0.51100000000E-03 0. -1.
         11    1    4    4    0    0 -0.35774952047E-01 -0.12174999211E-01 -0.18479764387E-01  0.42069473642E-01  0.51100000000E-03 0.  1.
</event>
<event>
 8    1  0.1199892E+005  0.1043930E+01  0.7957747E-01            NaN
         13   -1    0    0    0    0  0.00000000000E+00  0.00000000000E+00  0.74505805969E-08  0.10566000000E+00  0.10566000000E+00 0. -1.
     999900   -1    0    0    0    0 -0.00000000000E+00 -0.00000000000E+00 -0.74505805969E-08  0.93827000000E+00  0.93827000000E+00 0. -1.
     999902    2    1    2    0    0 -0.10190265658E-01 -0.12456127592E-01  0.17987021822E-01  0.10197943504E+01  0.10195086991E+01 0.  0.
     999903    2    3    3    0    0  0.53148969871E-01  0.11326783743E+00  0.22739112175E-01  0.12859237748E+00  0.19092310724E-01 0.  0.
         14    1    1    2    0    0  0.10190265658E-01  0.12456127592E-01 -0.17987021822E-01  0.24135649624E-01  0.00000000000E+00 0.  1.
     999901    1    3    3    0    0 -0.63339235528E-01 -0.12572396502E+00 -0.47520903533E-02  0.89120197290E+00  0.88000000000E+00 0.  1.
        -11    1    4    4    0    0  0.31841982545E-01  0.53995054456E-01  0.18958030113E-01  0.65490806873E-01  0.51100000000E-03 0.  1.
         11    1    4    4    0    0  0.21306987325E-01  0.59272782971E-01  0.37810820619E-02  0.63101570603E-01  0.51100000000E-03 0. -1.
</event>
<event>
 8    1  0.1199892E+005  0.1043930E+01  0.7957747E-01            NaN
         13   -1    0    0    0    0  0.00000000000E+00  0.00000000000E+00  0.74505805969E-08  0.10566000000E+00  0.10566000000E+00 0.  1.
     999900   -1    0    0    0    0 -0.00000000000E+00 -0.00000000000E+00 -0.74505805969E-08  0.93827000000E+00  0.93827000000E+00 0.  1.
     999902    2    1    2    0    0 -0.15397328078E-01  0.60878951130E-02  0.16312629264E-01  0.10206868924E+01  0.10204222117E+01 0.  0.
     999903    2    3    3    0    0 -0.99930778385E-01  0.73254444529E-01 -0.41043422248E-01  0.13223488678E+00  0.21192655833E-01 0.  0.
         14    1    1    2    0    0  0.15397328078E-01 -0.60878951130E-02 -0.16312629264E-01  0.23243107631E-01  0.00000000000E+00 0. -1.
     999901    1    3    3    0    0  0.84533450307E-01 -0.67166549416E-01  0.57356051512E-01  0.88845200558E+00  0.88000000000E+00 0. -1.
        -11    1    4    4    0    0 -0.69056496269E-02  0.98479711018E-02 -0.94525276087E-02  0.15306270963E-01  0.51100000000E-03 0. -1.
         11    1    4    4    0    0 -0.93025128758E-01  0.63406473427E-01 -0.31590894639E-01  0.11692861582E+00  0.51100000000E-03 0.  1.
</event>
<event>
 8    1  0.1199892E+005  0.1043930E+01  0.7957747E-01            NaN
         13   -1    0    0    0    0  0.00000000000E+00  0.00000000000E+00  0.74505805969E-08  0.10566000000E+00  0.10566000000E+00 0. -1.
     999900   -1    0    0    0    0 -0.00000000000E+00 -0.00000000000E+00 -0.74505805969E-08  0.93827000000E+00  0.93827000000E+00 0.  1.
     999902    2    1    2    0    0  0.21331687511E-01 -0.35444596235E-02 -0.12750342500E-01  0.10188267070E+01  0.10185173948E+01 0.  0.
     999903    2    3    3    0    0  0.10837500452E+00 -0.62040353895E-01  0.38166224681E-01  0.13113824503E+00  0.12100887858E-01 0.  0.
         14    1    1    2    0    0 -0.21331687511E-01  0.35444596235E-02  0.12750342500E-01  0.25103293010E-01  0.00000000000E+00 0.  1.
     999901    1    3    3    0    0 -0.87043317011E-01  0.58495894271E-01 -0.50916567181E-01  0.88768846196E+00  0.88000000000E+00 0.  1.
        -11    1    4    4    0    0  0.61373200737E-01 -0.35285335394E-01  0.15369405745E-01  0.72444491968E-01  0.51100000000E-03 0.  1.
         11    1    4    4    0    0  0.47001803784E-01 -0.26755018501E-01  0.22796818936E-01  0.58693753062E-01  0.51100000000E-03 0. -1.
</event>
<event>
 8    1  0.1199892E+005  0.1043930E+01  0.7957747E-01            NaN
         13   -1    0    0    0    0  0.00000000000E+00  0.00000000000E+00  0.74505805969E-08  0.10566000000E+00  0.10566000000E+00 0.  1.
     999900   -1    0    0    0    0 -0.00000000000E+00 -0.00000000000E+00 -0.74505805969E-08  0.93827000000E+00  0.93827000000E+00 0.  1.
     999902    2    1    2    0    0  0.10021663564E-01  0.22911956367E-03  0.21208666553E-01  0.10204716588E+01  0.10202019960E+01 0.  0.
     999903    2    3    3    0    0  0.82446208406E-01 -0.43170950183E-01 -0.88085780951E-01  0.12969999498E+00  0.20046836969E-01 0.  0.
         14    1    1    2    0    0 -0.10021663564E-01 -0.22911956367E-03 -0.21208666553E-01  0.23458341231E-01  0.00000000000E+00 0. -1.
     999901    1    3    3    0    0 -0.72424544843E-01  0.43400069747E-01  0.10929444750E+00  0.89077166379E+00  0.88000000000E+00 0.  1.
        -11    1    4    4    0    0  0.99745798776E-02 -0.11693335851E-01 -0.21120639990E-01  0.26126019629E-01  0.51100000000E-03 0.  1.
         11    1    4    4    0    0  0.72471628529E-01 -0.31477614332E-01 -0.66965140961E-01  0.10357397535E+00  0.51100000000E-03 0. -1.
</event>
<event>
 8    1  0.1199892E+005  0.1043930E+01  0.7957747E-01            NaN
         13   -1    0    0    0    0  0.00000000000E+00  0.00000000000E+00  0.74505805969E-08  0.10566000000E+00  0.10566000000E+00 0.  1.
     999900   -1    0    0    0    0 -0.00000000000E+00 -0.00000000000E+00 -0.74505805969E-08  0.93827000000E+00  0.93827000000E+00 0.  1.
     999902    2    1    2    0    0 -0.10768076132E-01  0.19653725943E-01 -0.49926159497E-02  0.10209703262E+01  0.10207121339E+01 0.  0.
     999903    2    3    3    0    0  0.80418572197E-01  0.97294821622E-01  0.32842558951E-01  0.13205264439E+00  0.20635846087E-01 0.  0.
         14    1    1    2    0    0  0.10768076132E-01 -0.19653725943E-01  0.49926159497E-02  0.22959673800E-01  0.00000000000E+00 0. -1.
     999901    1    3    3    0    0 -0.91186648328E-01 -0.77641095679E-01 -0.37835174901E-01  0.88891768181E+00  0.88000000000E+00 0. -1.
        -11    1    4    4    0    0  0.50221887162E-01  0.75364405124E-01  0.22389438089E-01  0.93292977060E-01  0.51100000000E-03 0.  1.
         11    1    4    4    0    0  0.30196685035E-01  0.21930416497E-01  0.10453120863E-01  0.38759667331E-01  0.51100000000E-03 0. -1.
</event>
<event>
 8    1  0.1199892E+005  0.1043930E+01  0.7957747E-01            NaN
         13   -1    0    0    0    0  0.00000000000E+00  0.00000000000E+00  0.74505805969E-08  0.10566000000E+00  0.10566000000E+00 0. -1.
     999900   -1    0    0    0    0 -0.00000000000E+00 -0.00000000000E+00 -0.74505805969E-08  0.93827000000E+00  0.93827000000E+00 0.  1.
     999902    2    1    2    0    0  0.77786758303E-02 -0.10979914325E-01  0.20221138617E-01  0.10196408921E+01  0.10193515527E+01 0.  0.
     999903    2    3    3    0    0  0.91905801319E-01 -0.19910090615E-01 -0.85847035631E-01  0.12924346460E+00  0.22160135157E-01 0.  0.
         14    1    1    2    0    0 -0.77786758303E-02  0.10979914325E-01 -0.20221138617E-01  0.24289107913E-01  0.00000000000E+00 0.  1.
     999901    1    3    3    0    0 -0.84127125488E-01  0.89301762906E-02  0.10606817425E+00  0.89039742749E+00  0.88000000000E+00 0. -1.
        -11    1    4    4    0    0  0.33058266743E-01 -0.83599665711E-02 -0.17554186615E-01  0.38355555398E-01  0.51100000000E-03 0. -1.
         11    1    4    4    0    0  0.58847534575E-01 -0.11550124044E-01 -0.68292849015E-01  0.90887909200E-01  0.51100000000E-03 0.  1.
</event>
<event>
 8    1  0.1199892E+005  0.1043930E+01  0.7957747E-01            NaN
         13   -1    0    0    0    0  0.00000000000E+00  0.00000000000E+00  0.74505805969E-08  0.10566000000E+00  0.10566000000E+00 0.  1.
     999900   -1    0    0    0    0 -0.00000000000E+00 -0.00000000000E+00 -0.74505805969E-08  0.93827000000E+00  0.93827000000E+00 0. -1.
     999902    2    1    2    0    0  0.46231051207E-02  0.21476716425E-01 -0.10082337808E-01  0.10197581986E+01  0.10194716806E+01 0.  0.
     999903    2    3    3    0    0 -0.85432893385E-01 -0.87099373180E-01 -0.33778181545E-01  0.12820879268E+00  0.20284203024E-01 0.  0.
         14    1    1    2    0    0 -0.46231051207E-02 -0.21476716425E-01  0.10082337808E-01  0.24171801444E-01  0.00000000000E+00 0.  1.
     999901    1    3    3    0    0  0.90055998506E-01  0.10857608961E+00  0.23695843737E-01  0.89154940587E+00  0.88000000000E+00 0. -1.
        -11    1    4    4    0    0 -0.55337682937E-01 -0.57347333345E-01 -0.11938764868E-01  0.80583937743E-01  0.51100000000E-03 0.  1.
         11    1    4    4    0    0 -0.30095210448E-01 -0.29752039835E-01 -0.21839416678E-01  0.47624854940E-01  0.51100000000E-03 0. -1.
</event>
<event>
 8    1  0.1199892E+005  0.1043930E+01  0.7957747E-01            NaN
         13   -1    0    0    0    0  0.00000000000E+00  0.00000000000E+00  0.74505805969E-08  0.10566000000E+00  0.10566000000E+00 0. -1.
     999900   -1    0    0    0    0 -0.00000000000E+00 -0.00000000000E+00 -0.74505805969E-08  0.93827000000E+00  0.93827000000E+00 0.  1.
     999902    2    1    2    0    0 -0.17360114266E-01 -0.15701198372E-01 -0.15979398550E-02  0.10204682309E+01  0.10201984884E+01 0.  0.
     999903    2    3    3    0    0 -0.49236552501E-01  0.60210654769E-01  0.10315857934E+00  0.13043865550E+00  0.17971903292E-01 0.  0.
         14    1    1    2    0    0  0.17360114266E-01  0.15701198372E-01  0.15979398550E-02  0.23461769103E-01  0.00000000000E+00 0. -1.
     999901    1    3    3    0    0  0.31876438235E-01 -0.75911853141E-01 -0.10475651920E+00  0.89002957539E+00  0.88000000000E+00 0. -1.
        -11    1    4    4    0    0 -0.43909291902E-01  0.49910065254E-01  0.76414826908E-01  0.10128438883E+00  0.51100000000E-03 0.  1.
         11    1    4    4    0    0 -0.53272605989E-02  0.10300589515E-01  0.26743752433E-01  0.29154266670E-01  0.51100000000E-03 0. -1.
</event>
<event>
 8    1  0.1199892E+005  0.1043930E+01  0.7957747E-01            NaN
         13   -1    0    0    0    0  0.00000000000E+00  0.00000000000E+00  0.74505805969E-08  0.10566000000E+00  0.10566000000E+00 0.  1.
     999900   -1    0    0    0    0 -0.00000000000E+00 -0.00000000000E+00 -0.74505805969E-08  0.93827000000E+00  0.93827000000E+00 0. -1.
     999902    2    1    2    0    0  0.81685108507E-02 -0.14133845385E-01  0.16027065257E-01  0.10210530034E+01  0.10207966882E+01 0.  0.
     999903    2    3    3    0    0 -0.13742182849E-01  0.10985586977E+00 -0.62244845368E-01  0.12865173713E+00  0.20486311997E-01 0.  0.
         14    1    1    2    0    0 -0.81685108507E-02  0.14133845385E-01 -0.16027065257E-01  0.22876996648E-01  0.00000000000E+00 0.  1.
     999901    1    3    3    0    0  0.21910693700E-01 -0.12398971515E+00  0.78271910625E-01  0.89240126622E+00  0.88000000000E+00 0. -1.
        -11    1    4    4    0    0 -0.16946620546E-01  0.60294116785E-01 -0.39289092024E-01  0.73935528266E-01  0.51100000000E-03 0.  1.
         11    1    4    4    0    0  0.32044376970E-02  0.49561752984E-01 -0.22955753345E-01  0.54716208864E-01  0.51100000000E-03 0. -1.
</event>
<event>
 8    1  0.1199892E+005  0.1043930E+01  0.7957747E-01            NaN
         13   -1    0    0    0    0  0.00000000000E+00  0.00000000000E+00  0.74505805969E-08  0.10566000000E+00  0.10566000000E+00 0. -1.
     999900   -1    0    0    0    0 -0.00000000000E+00 -0.00000000000E+00 -0.74505805969E-08  0.93827000000E+00  0.93827000000E+00 0. -1.
     999902    2    1    2    0    0 -0.24706245544E-01  0.85240223917E-02 -0.47919290760E-02  0.10173589611E+01  0.10170119151E+01 0.  0.
     999903    2    3    3    0    0  0.76829258620E-01 -0.35061348760E-01  0.90005457834E-01  0.12539725349E+00  0.22168797590E-01 0.  0.
         14    1    1    2    0    0  0.24706245544E-01 -0.85240223917E-02  0.47919290760E-02  0.26571038950E-01  0.00000000000E+00 0. -1.
     999901    1    3    3    0    0 -0.10153550416E+00  0.43585371151E-01 -0.94797386910E-01  0.89196170756E+00  0.88000000000E+00 0. -1.
        -11    1    4    4    0    0  0.19085578588E-01 -0.94740701970E-02  0.38050413828E-01  0.43613213934E-01  0.51100000000E-03 0.  1.
         11    1    4    4    0    0  0.57743680032E-01 -0.25587278563E-01  0.51955044006E-01  0.81784039559E-01  0.51100000000E-03 0. -1.
</event>
<event>
 8    1  0.1199892E+005  0.1043930E+01  0.7957747E-01            NaN
         13   -1    0    0    0    0  0.00000000000E+00  0.00000000000E+00  0.74505805969E-08  0.10566000000E+00  0.10566000000E+00 0.  1.
     999900   -1    0    0    0    0 -0.00000000000E+00 -0.00000000000E+00 -0.74505805969E-08  0.93827000000E+00  0.93827000000E+00 0. -1.
     999902    2    1    2    0    0  0.20030623969E-01  0.94209962761E-02 -0.41004671053E-02  0.10214178944E+01  0.10211697803E+01 0.  0.
     999903    2    3    3    0    0 -0.11086324271E-01  0.12620201248E+00 -0.33396664183E-01  0.13267477215E+00  0.20914192472E-01 0.  0.
         14    1    1    2    0    0 -0.20030623969E-01 -0.94209962761E-02  0.41004671053E-02  0.22512105586E-01  0.00000000000E+00 0.  1.
     999901    1    3    3    0    0  0.31116948240E-01 -0.11678101620E+00  0.29296197078E-01  0.88874312227E+00  0.88000000000E+00 0.  1.
        -11    1    4    4    0    0 -0.96076245804E-02  0.20121940051E-01 -0.63385325147E-02  0.23187001465E-01  0.51100000000E-03 0.  1.
         11    1    4    4    0    0 -0.14786996907E-02  0.10608007243E+00 -0.27058131669E-01  0.10948777068E+00  0.51100000000E-03 0. -1.
</event>
<event>
 8    1  0.1199892E+005  0.1043930E+01  0.7957747E-01            NaN
         13   -1    0    0    0    0  0.00000000000E+00  0.00000000000E+00  0.74505805969E-08  0.10566000000E+00  0.10566000000E+00 0.  1.
     999900   -1    0    0    0    0 -0.00000000000E+00 -0.00000000000E+00 -0.74505805969E-08  0.93827000000E+00  0.93827000000E+00 0.  1.
     999902    2    1    2    0    0  0.21575966106E-01 -0.12290572984E-02  0.90533884280E-02  0.10204993206E+01  0.10202303008E+01 0.  0.
     999903    2    3    3    0    0  0.52479053546E-01  0.11908805651E+00 -0.75540355677E-02  0.13161968014E+00  0.18184072249E-01 0.  0.
         14    1    1    2    0    0 -0.21575966106E-01  0.12290572984E-02 -0.90533884280E-02  0.23430679403E-01  0.00000000000E+00 0. -1.
     999901    1    3    3    0    0 -0.30903087440E-01 -0.12031711380E+00  0.16607423996E-01  0.88887964046E+00  0.88000000000E+00 0.  1.
        -11    1    4    4    0    0  0.22805019332E-01  0.68829144451E-01 -0.10022724446E-01  0.73199973763E-01  0.51100000000E-03 0.  1.
         11    1    4    4    0    0  0.29674034214E-01  0.50258912054E-01  0.24686888784E-02  0.58419706377E-01  0.51100000000E-03 0. -1.
</event>
<event>
 8    1  0.1199892E+005  0.1043930E+01  0.7957747E-01            NaN
         13   -1    0    0    0    0  0.00000000000E+00  0.00000000000E+00  0.74505805969E-08  0.10566000000E+00  0.10566000000E+00 0.  1.
     999900   -1    0    0    0    0 -0.00000000000E+00 -0.00000000000E+00 -0.74505805969E-08  0.93827000000E+00  0.93827000000E+00 0. -1.
     999902    2    1    2    0    0  0.77331465654E-02 -0.17888693689E-01 -0.14226207079E-01  0.10198013472E+01  0.10195158635E+01 0.  0.
     999903    2    3    3    0    0  0.59946491710E-01 -0.11641170863E+00  0.13250967822E-02  0.13262895081E+00  0.21057419982E-01 0.  0.
         14    1    1    2    0    0 -0.77331465654E-02  0.17888693689E-01  0.14226207079E-01  0.24128652792E-01  0.00000000000E+00 0.  1.
     999901    1    3    3    0    0 -0.52213345144E-01  0.98523014941E-01 -0.15551303862E-01  0.88717239640E+00  0.88000000000E+00 0.  1.
        -11    1    4    4    0    0  0.34397678451E-01 -0.48263153494E-01 -0.55220862477E-02  0.59525514072E-01  0.51100000000E-03 0.  1.
         11    1    4    4    0    0  0.25548813259E-01 -0.68148555136E-01  0.68471830300E-02  0.73103436735E-01  0.51100000000E-03 0. -1.
</event>
<event>
 8    1  0.1199892E+005  0.1043930E+01  0.7957747E-01            NaN
         13   -1    0    0    0    0  0.00000000000E+00  0.00000000000E+00  0.74505805969E-08  0.10566000000E+00  0.10566000000E+00 0.  1.
     999900   -1    0    0    0    0 -0.00000000000E+00 -0.00000000000E+00 -0.74505805969E-08  0.93827000000E+00  0.93827000000E+00 0.  1.
     999902    2    1    2    0    0  0.44279493279E-02  0.19819846415E-01 -0.18685739661E-02  0.10235357700E+01  0.10233325696E+01 0.  0.
     999903    2    3    3    0    0  0.40176699532E-01 -0.20550640701E-01 -0.12498293691E+00  0.13333079604E+00  0.10948544904E-01 0.  0.
         14    1    1    2    0    0 -0.44279493279E-02 -0.19819846415E-01  0.18685739661E-02  0.20394229964E-01  0.00000000000E+00 0.  1.
     999901    1    3    3    0    0 -0.35748750205E-01  0.40370487116E-01  0.12311436294E+00  0.89020497400E+00  0.88000000000E+00 0. -1.
        -11    1    4    4    0    0  0.29458646235E-01 -0.14967827781E-01 -0.75954159159E-01  0.82832017487E-01  0.51100000000E-03 0. -1.
         11    1    4    4    0    0  0.10718053298E-01 -0.55828129203E-02 -0.49028777747E-01  0.50498778549E-01  0.51100000000E-03 0.  1.
</event>
<event>
 8    1  0.1199892E+005  0.1043930E+01  0.7957747E-01            NaN
         13   -1    0    0    0    0  0.00000000000E+00  0.00000000000E+00  0.74505805969E-08  0.10566000000E+00  0.10566000000E+00 0.  1.
     999900   -1    0    0    0    0 -0.00000000000E+00 -0.00000000000E+00 -0.74505805969E-08  0.93827000000E+00  0.93827000000E+00 0.  1.
     999902    2    1    2    0    0  0.64173759307E-02 -0.14928901740E-01 -0.16360615398E-01  0.10208708466E+01  0.10206103864E+01 0.  0.
     999903    2    3    3    0    0  0.85758297663E-01  0.89696430640E-01  0.32569068952E-01  0.12978411900E+00  0.19576465553E-01 0.  0.
         14    1    1    2    0    0 -0.64173759307E-02  0.14928901740E-01  0.16360615398E-01  0.23059153436E-01  0.00000000000E+00 0.  1.
     999901    1    3    3    0    0 -0.79340921732E-01 -0.10462533238E+00 -0.48929684350E-01  0.89108672757E+00  0.88000000000E+00 0. -1.
        -11    1    4    4    0    0  0.43826233994E-01  0.46641008754E-01  0.67070931020E-02  0.64353466904E-01  0.51100000000E-03 0.  1.
         11    1    4    4    0    0  0.41932063669E-01  0.43055421886E-01  0.25861975850E-01  0.65430652092E-01  0.51100000000E-03 0. -1.
</event>
<event>
 8    1  0.1199892E+005  0.1043930E+01  0.7957747E-01            NaN
         13   -1    0    0    0    0  0.00000000000E+00  0.00000000000E+00  0.74505805969E-08  0.10566000000E+00  0.10566000000E+00 0. -1.
     999900   -1    0    0    0    0 -0.00000000000E+00 -0.00000000000E+00 -0.74505805969E-08  0.93827000000E+00  0.93827000000E+00 0. -1.
     999902    2    1    2    0    0 -0.34060237952E-02 -0.22649488769E-01 -0.88559549842E-02  0.10193733659E+01  0.10190775392E+01 0.  0.
     999903    2    3    3    0    0 -0.96504993668E-01 -0.17202467807E-02  0.83810665564E-01  0.12937754910E+00  0.19953683785E-01 0.  0.
         14    1    1    2    0    0  0.34060237952E-02  0.22649488769E-01  0.88559549842E-02  0.24556634099E-01  0.00000000000E+00 0. -1.
     999901    1    3    3    0    0  0.93098969873E-01 -0.20929241989E-01 -0.92666620548E-01  0.88999581680E+00  0.88000000000E+00 0. -1.
        -11    1    4    4    0    0 -0.36122680190E-01 -0.42180592099E-02  0.43635992885E-01  0.56806698933E-01  0.51100000000E-03 0. -1.
         11    1    4    4    0    0 -0.60382313478E-01  0.24978124292E-02  0.40174672680E-01  0.72570850166E-01  0.51100000000E-03 0.  1.
</event>
<event>
 8    1  0.1199892E+005  0.1043930E+01  0.7957747E-01            NaN
         13   -1    0    0    0    0  0.00000000000E+00  0.00000000000E+00  0.74505805969E-08  0.10566000000E+00  0.10566000000E+00 0.  1.
     999900   -1    0    0    0    0 -0.00000000000E+00 -0.00000000000E+00 -0.74505805969E-08  0.93827000000E+00  0.93827000000E+00 0. -1.
     999902    2    1    2    0    0  0.73406286627E-02  0.19646712190E-01  0.12027291439E-01  0.10197528648E+01  0.10194662188E+01 0.  0.
     999903    2    3    3    0    0 -0.63688010755E-01  0.25939327146E-01  0.11017934014E+00  0.13142944996E+00  0.20129627801E-01 0.  0.
         14    1    1    2    0    0 -0.73406286627E-02 -0.19646712190E-01 -0.12027291439E-01  0.24177135240E-01  0.00000000000E+00 0.  1.
     999901    1    3    3    0    0  0.71028639418E-01 -0.62926149563E-02 -0.98152048703E-01  0.88832341480E+00  0.88000000000E+00 0. -1.
        -11    1    4    4    0    0 -0.20970613586E-01  0.77955546593E-02  0.54667821075E-01  0.59070881903E-01  0.51100000000E-03 0.  1.
         11    1    4    4    0    0 -0.42717397169E-01  0.18143772487E-01  0.55511519067E-01  0.72358568056E-01  0.51100000000E-03 0. -1.
</event>
<event>
 8    1  0.1199892E+005  0.1043930E+01  0.7957747E-01            NaN
         13   -1    0    0    0    0  0.00000000000E+00  0.00000000000E+00  0.74505805969E-08  0.10566000000E+00  0.10566000000E+00 0.  1.
     999900   -1    0    0    0    0 -0.00000000000E+00 -0.00000000000E+00 -0.74505805969E-08  0.93827000000E+00  0.93827000000E+00 0. -1.
     999902    2    1    2    0    0  0.91544517553E-02  0.11991080625E-01  0.15877338236E-01  0.10220284048E+01  0.10217937074E+01 0.  0.
     999903    2    3    3    0    0  0.26476610168E-01  0.74527878611E-01 -0.10345150019E+00  0.13160699900E+00  0.19046619646E-01 0.  0.
         14    1    1    2    0    0 -0.91544517553E-02 -0.11991080625E-01 -0.15877338236E-01  0.21901595169E-01  0.00000000000E+00 0. -1.
     999901    1    3    3    0    0 -0.17322158412E-01 -0.62536797985E-01  0.11932883842E+00  0.89042140583E+00  0.88000000000E+00 0.  1.
        -11    1    4    4    0    0  0.28561963000E-01  0.73400138890E-01 -0.98722177572E-01  0.12629210421E+00  0.51100000000E-03 0. -1.
         11    1    4    4    0    0 -0.20853528325E-02  0.11277397205E-02 -0.47293226146E-02  0.53148947973E-02  0.51100000000E-03 0.  1.
</event>
<event>
 8    1  0.1199892E+005  0.1043930E+01  0.7957747E-01            NaN
         13   -1    0    0    0    0  0.00000000000E+00  0.00000000000E+00  0.74505805969E-08  0.10566000000E+00  0.10566000000E+00 0. -1.
     999900   -1    0    0    0    0 -0.00000000000E+00 -0.00000000000E+00 -0.74505805969E-08  0.93827000000E+00  0.93827000000E+00 0.  1.
     999902    2    1    2    0    0  0.20092673591E-01 -0.13924366014E-01  0.28993072177E-02  0.10193127401E+01  0.10190154330E+01 0.  0.
     999903    2    3    3    0    0 -0.75925996124E-01 -0.82221963410E-01  0.62296570425E-01  0.12947445054E+00  0.18909323172E-01 0.  0.
         14    1    1    2    0    0 -0.20092673591E-01  0.13924366014E-01 -0.28993072177E-02  0.24617259865E-01  0.00000000000E+00 0. -1.
     999901    1    3    3    0    0  0.96018669714E-01  0.68297597396E-01 -0.59397263207E-01  0.88983828959E+00  0.88000000000E+00 0. -1.
        -11    1    4    4    0    0 -0.63304383693E-01 -0.56879023091E-01  0.48829452211E-01  0.98118524177E-01  0.51100000000E-03 0.  1.
         11    1    4    4    0    0 -0.12621612431E-01 -0.25342940320E-01  0.13467118213E-01  0.31355926368E-01  0.51100000000E-03 0. -1.
</event>
<event>
 8    1  0.1199892E+005  0.1043930E+01  0.7957747E-01            NaN
         13   -1    0    0    0    0  0.00000000000E+00  0.00000000000E+00  0.74505805969E-08  0.10566000000E+00  0.10566000000E+00 0. -1.
     999900   -1    0    0    0    0 -0.00000000000E+00 -0.00000000000E+00 -0.74505805969E-08  0.93827000000E+00  0.93827000000E+00 0.  1.
     999902    2    1    2    0    0 -0.25855135599E-02 -0.22071630595E-01 -0.15711825925E-01  0.10167141364E+01  0.10163498079E+01 0.  0.
     999903    2    3    3    0    0  0.89668133406E-01  0.63522125390E-01  0.55710662546E-01  0.12489677937E+00  0.20496170705E-01 0.  0.
         14    1    1    2    0    0  0.25855135599E-02  0.22071630595E-01  0.15711825925E-01  0.27215863598E-01  0.00000000000E+00 0. -1.
     999901    1    3    3    0    0 -0.92253646966E-01 -0.85593755985E-01 -0.71422488470E-01  0.89181735703E+00  0.88000000000E+00 0.  1.
        -11    1    4    4    0    0  0.61521518474E-01  0.33047873264E-01  0.40356991397E-01  0.80659822950E-01  0.51100000000E-03 0.  1.
         11    1    4    4    0    0  0.28146614932E-01  0.30474252125E-01  0.15353671148E-01  0.44236956422E-01  0.51100000000E-03 0. -1.
</event>
<event>
 8    1  0.1199892E+005  0.1043930E+01  0.7957747E-01            NaN
         13   -1    0    0    0    0  0.00000000000E+00  0.00000000000E+00  0.74505805969E-08  0.10566000000E+00  0.10566000000E+00 0. -1.
     999900   -1    0    0    0    0 -0.00000000000E+00 -0.00000000000E+00 -0.74505805969E-08  0.93827000000E+00  0.93827000000E+00 0. -1.
     999902    2    1    2    0    0 -0.23356763260E-01 -0.57328849464E-02  0.17047323302E-01  0.10144509296E+01  0.10140225209E+01 0.  0.
     999903    2    3    3    0    0  0.90431626362E-01  0.54026783023E-01  0.62261426774E-01  0.12396604445E+00  0.19857557318E-01 0.  0.
         14    1    1    2    0    0  0.23356763260E-01  0.57328849464E-02 -0.17047323302E-01  0.29479070398E-01  0.00000000000E+00 0.  1.
     999901    1    3    3    0    0 -0.11378838962E+00 -0.59759667970E-01 -0.45214103472E-01  0.89048488515E+00  0.88000000000E+00 0. -1.
        -11    1    4    4    0    0  0.52789478284E-01  0.29314229803E-01  0.46646433259E-01  0.76303367836E-01  0.51100000000E-03 0.  1.
         11    1    4    4    0    0  0.37642148078E-01  0.24712553220E-01  0.15614993515E-01  0.47662676615E-01  0.51100000000E-03 0. -1.
</event>
<event>
 8    1  0.1199892E+005  0.1043930E+01  0.7957747E-01            NaN
         13   -1    0    0    0    0  0.00000000000E+00  0.00000000000E+00  0.74505805969E-08  0.10566000000E+00  0.10566000000E+00 0. -1.
     999900   -1    0    0    0    0 -0.00000000000E+00 -0.00000000000E+00 -0.74505805969E-08  0.93827000000E+00  0.93827000000E+00 0.  1.
     999902    2    1    2    0    0  0.43231211648E-03 -0.15302207279E-01 -0.12036149546E-01  0.10244565992E+01  0.10242715023E+01 0.  0.
     999903    2    3    3    0    0 -0.17596574466E-01  0.73637136380E-01 -0.10935544618E+00  0.13445306379E+00  0.19670929488E-01 0.  0.
         14    1    1    2    0    0 -0.43231211648E-03  0.15302207279E-01  0.12036149546E-01  0.19473400763E-01  0.00000000000E+00 0. -1.
     999901    1    3    3    0    0  0.18028886582E-01 -0.88939343659E-01  0.97319296636E-01  0.89000353544E+00  0.88000000000E+00 0. -1.
        -11    1    4    4    0    0 -0.61772439750E-02  0.45215181626E-01 -0.50257485514E-01  0.67887016164E-01  0.51100000000E-03 0. -1.
         11    1    4    4    0    0 -0.11419330491E-01  0.28421954754E-01 -0.59097960669E-01  0.66566047630E-01  0.51100000000E-03 0.  1.
</event>
<event>
 8    1  0.1199892E+005  0.1043930E+01  0.7957747E-01            NaN
         13   -1    0    0    0    0  0.00000000000E+00  0.00000000000E+00  0.74505805969E-08  0.10566000000E+00  0.10566000000E+00 0. -1.
     999900   -1    0    0    0    0 -0.00000000000E+00 -0.00000000000E+00 -0.74505805969E-08  0.93827000000E+00  0.93827000000E+00 0.  1.
     999902    2    1    2    0    0 -0.15146440631E-01  0.12535720147E-01 -0.12526525867E-01  0.10206174971E+01  0.10203512153E+01 0.  0.
     999903    2    3    3    0    0  0.11750346070E+00 -0.35991168086E-01 -0.34252926001E-01  0.12908909500E+00  0.19705432040E-01 0.  0.
         14    1    1    2    0    0  0.15146440631E-01 -0.12535720147E-01  0.12526525867E-01  0.23312502947E-01  0.00000000000E+00 0. -1.
     999901    1    3    3    0    0 -0.13264990133E+00  0.48526888232E-01  0.21726400134E-01  0.89152840205E+00  0.88000000000E+00 0.  1.
        -11    1    4    4    0    0  0.70838188441E-01 -0.19781992514E-01 -0.10580240918E-01  0.74307326612E-01  0.51100000000E-03 0. -1.
         11    1    4    4    0    0  0.46665272258E-01 -0.16209175572E-01 -0.23672685082E-01  0.54781768388E-01  0.51100000000E-03 0.  1.
</event>
<event>
 8    1  0.1199892E+005  0.1043930E+01  0.7957747E-01            NaN
         13   -1    0    0    0    0  0.00000000000E+00  0.00000000000E+00  0.74505805969E-08  0.10566000000E+00  0.10566000000E+00 0. -1.
     999900   -1    0    0    0    0 -0.00000000000E+00 -0.00000000000E+00 -0.74505805969E-08  0.93827000000E+00  0.93827000000E+00 0.  1.
     999902    2    1    2    0    0 -0.20989187509E-03 -0.21921713994E-01  0.31923031793E-02  0.10217760749E+01  0.10215358784E+01 0.  0.
     999903    2    3    3    0    0  0.66402199165E-02  0.73509167864E-01 -0.10505738091E+00  0.12999584895E+00  0.20351343434E-01 0.  0.
         14    1    1    2    0    0  0.20989187509E-03  0.21921713994E-01 -0.31923031793E-02  0.22153925129E-01  0.00000000000E+00 0.  1.
     999901    1    3    3    0    0 -0.68501117916E-02 -0.95430881858E-01  0.10824968409E+00  0.89178022592E+00  0.88000000000E+00 0.  1.
        -11    1    4    4    0    0  0.69214805319E-02  0.17760789383E-01 -0.15830614132E-01  0.24783502518E-01  0.51100000000E-03 0.  1.
         11    1    4    4    0    0 -0.28126061538E-03  0.55748378482E-01 -0.89226766776E-01  0.10521234643E+00  0.51100000000E-03 0. -1.
</event>
<event>
 8    1  0.1199892E+005  0.1043930E+01  0.7957747E-01            NaN
         13   -1    0    0    0    0  0.00000000000E+00  0.00000000000E+00  0.74505805969E-08  0.10566000000E+00  0.10566000000E+00 0.  1.
     999900   -1    0    0    0    0 -0.00000000000E+00 -0.00000000000E+00 -0.74505805969E-08  0.93827000000E+00  0.93827000000E+00 0. -1.
     999902    2    1    2    0    0  0.64820404076E-02  0.11401740515E-01 -0.19815046035E-01  0.10201675804E+01  0.10198907979E+01 0.  0.
     999903    2    3    3    0    0  0.63910775211E-01 -0.10727557330E+00 -0.31210559532E-01  0.13027307987E+00  0.20108219645E-01 0.  0.
         14    1    1    2    0    0 -0.64820404076E-02 -0.11401740515E-01  0.19815046035E-01  0.23762419573E-01  0.00000000000E+00 0.  1.
     999901    1    3    3    0    0 -0.57428734803E-01  0.11867731382E+00  0.11395513497E-01  0.88989450056E+00  0.88000000000E+00 0. -1.
        -11    1    4    4    0    0  0.50857845514E-01 -0.77519227793E-01 -0.14872922006E-01  0.93900032257E-01  0.51100000000E-03 0. -1.
         11    1    4    4    0    0  0.13052929697E-01 -0.29756345508E-01 -0.16337637526E-01  0.36373047612E-01  0.51100000000E-03 0.  1.
</event>
<event>
 8    1  0.1199892E+005  0.1043930E+01  0.7957747E-01            NaN
         13   -1    0    0    0    0  0.00000000000E+00  0.00000000000E+00  0.74505805969E-08  0.10566000000E+00  0.10566000000E+00 0.  1.
     999900   -1    0    0    0    0 -0.00000000000E+00 -0.00000000000E+00 -0.74505805969E-08  0.93827000000E+00  0.93827000000E+00 0. -1.
     999902    2    1    2    0    0 -0.12546617473E-01 -0.75728700648E-03  0.22978659825E-01  0.10177382093E+01  0.10174011268E+01 0.  0.
     999903    2    3    3    0    0  0.75062999530E-01 -0.74221953687E-01  0.71685290508E-01  0.12900605722E+00  0.18984983961E-01 0.  0.
         14    1    1    2    0    0  0.12546617473E-01  0.75728700648E-03 -0.22978659825E-01  0.26191790718E-01  0.00000000000E+00 0. -1.
     999901    1    3    3    0    0 -0.87609617004E-01  0.73464666680E-01 -0.48706630682E-01  0.88873215207E+00  0.88000000000E+00 0. -1.
        -11    1    4    4    0    0  0.15085122146E-01 -0.13536728434E-01  0.23417982954E-01  0.30975263897E-01  0.51100000000E-03 0. -1.
         11    1    4    4    0    0  0.59977877384E-01 -0.60685225253E-01  0.48267307554E-01  0.98030793320E-01  0.51100000000E-03 0.  1.
</event>
<event>
 8    1  0.1199892E+005  0.1043930E+01  0.7957747E-01            NaN
         13   -1    0    0    0    0  0.00000000000E+00  0.00000000000E+00  0.74505805969E-08  0.10566000000E+00  0.10566000000E+00 0. -1.
     999900   -1    0    0    0    0 -0.00000000000E+00 -0.00000000000E+00 -0.74505805969E-08  0.93827000000E+00  0.93827000000E+00 0.  1.
     999902    2    1    2    0    0 -0.23994208668E-02  0.43844352944E-02  0.22438092190E-01  0.10209419928E+01  0.10206831556E+01 0.  0.
     999903    2    3    3    0    0 -0.11318115803E+00 -0.51368999334E-01 -0.34163625826E-01  0.13044505669E+00  0.20000271493E-01 0.  0.
         14    1    1    2    0    0  0.23994208668E-02 -0.43844352944E-02 -0.22438092190E-01  0.22988007188E-01  0.00000000000E+00 0.  1.
     999901    1    3    3    0    0  0.11078173716E+00  0.55753434628E-01  0.56601718016E-01  0.89049693612E+00  0.88000000000E+00 0.  1.
        -11    1    4    4    0    0 -0.46664201107E-01 -0.10985312578E-01 -0.15927974744E-01  0.50519167232E-01  0.51100000000E-03 0.  1.
         11    1    4    4    0    0 -0.66516956922E-01 -0.40383686756E-01 -0.18235651082E-01  0.79925889457E-01  0.51100000000E-03 0. -1.
</event>
<event>
 8    1  0.1199892E+005  0.1043930E+01  0.7957747E-01            NaN
         13   -1    0    0    0    0  0.00000000000E+00  0.00000000000E+00  0.74505805969E-08  0.10566000000E+00  0.10566000000E+00 0. -1.
     999900   -1    0    0    0    0 -0.00000000000E+00 -0.00000000000E+00 -0.74505805969E-08  0.93827000000E+00  0.93827000000E+00 0. -1.
     999902    2    1    2    0    0  0.86070662120E-02  0.74533351076E-02  0.20851937091E-01  0.10201721156E+01  0.10198954399E+01 0.  0.
     999903    2    3    3    0    0 -0.75573249522E-01  0.10265463897E+00  0.21786758833E-01  0.13104305422E+00  0.21173763346E-01 0.  0.
         14    1    1    2    0    0 -0.86070662120E-02 -0.74533351076E-02 -0.20851937091E-01  0.23757884448E-01  0.00000000000E+00 0.  1.
     999901    1    3    3    0    0  0.84180315734E-01 -0.95201303858E-01 -0.93482174169E-03  0.88912906133E+00  0.88000000000E+00 0.  1.
        -11    1    4    4    0    0 -0.75419194170E-02  0.23896255360E-01  0.60819750408E-02  0.25790756292E-01  0.51100000000E-03 0. -1.
         11    1    4    4    0    0 -0.68031330105E-01  0.78758383606E-01  0.15704783792E-01  0.10525229793E+00  0.51100000000E-03 0.  1.
</event>
<event>
 8    1  0.1199892E+005  0.1043930E+01  0.7957747E-01            NaN
         13   -1    0    0    0    0  0.00000000000E+00  0.00000000000E+00  0.74505805969E-08  0.10566000000E+00  0.10566000000E+00 0.  1.
     999900   -1    0    0    0    0 -0.00000000000E+00 -0.00000000000E+00 -0.74505805969E-08  0.93827000000E+00  0.93827000000E+00 0.  1.
     999902    2    1    2    0    0  0.99117433340E-02 -0.17225467543E-01  0.12560230231E-01  0.10204200283E+01  0.10201491633E+01 0.  0.
     999903    2    3    3    0    0  0.74823443292E-01  0.90569512970E-01  0.53906200947E-01  0.13050836078E+00  0.18032453713E-01 0.  0.
         14    1    1    2    0    0 -0.99117433340E-02  0.17225467543E-01 -0.12560230231E-01  0.23509971745E-01  0.00000000000E+00 0.  1.
     999901    1    3    3    0    0 -0.64911699958E-01 -0.10779498051E+00 -0.41345970716E-01  0.88991166748E+00  0.88000000000E+00 0. -1.
        -11    1    4    4    0    0  0.14406369637E-01  0.25649351492E-01  0.72664886129E-02  0.30306693912E-01  0.51100000000E-03 0. -1.
         11    1    4    4    0    0  0.60417073655E-01  0.64920161478E-01  0.46639712334E-01  0.10020166687E+00  0.51100000000E-03 0.  1.
</event>
<event>
 8    1  0.1199892E+005  0.1043930E+01  0.7957747E-01            NaN
         13   -1    0    0    0    0  0.00000000000E+00  0.00000000000E+00  0.74505805969E-08  0.10566000000E+00  0.10566000000E+00 0.  1.
     999900   -1    0    0    0    0 -0.00000000000E+00 -0.00000000000E+00 -0.74505805969E-08  0.93827000000E+00  0.93827000000E+00 0.  1.
     999902    2    1    2    0    0 -0.17758358604E-01  0.60639949789E-02 -0.15852043663E-01  0.10193654193E+01  0.10190693988E+01 0.  0.
     999903    2    3    3    0    0  0.47445413720E-01  0.96473341938E-01 -0.71332791288E-01  0.13060026739E+00  0.20245733896E-01 0.  0.
         14    1    1    2    0    0  0.17758358604E-01 -0.60639949789E-02  0.15852043663E-01  0.24564580674E-01  0.00000000000E+00 0. -1.
     999901    1    3    3    0    0 -0.65203772324E-01 -0.90409346959E-01  0.55480747625E-01  0.88876515194E+00  0.88000000000E+00 0. -1.
        -11    1    4    4    0    0  0.20751069834E-01  0.43384984321E-01 -0.20048489528E-01  0.52106303046E-01  0.51100000000E-03 0. -1.
         11    1    4    4    0    0  0.26694343886E-01  0.53088357617E-01 -0.51284301760E-01  0.78493964341E-01  0.51100000000E-03 0.  1.
</event>
<event>
 8    1  0.1199892E+005  0.1043930E+01  0.7957747E-01            NaN
         13   -1    0    0    0    0  0.00000000000E+00  0.00000000000E+00  0.74505805969E-08  0.10566000000E+00  0.10566000000E+00 0. -1.
     999900   -1    0    0    0    0 -0.00000000000E+00 -0.00000000000E+00 -0.74505805969E-08  0.93827000000E+00  0.93827000000E+00 0. -1.
     999902    2    1    2    0    0  0.22430123328E-01  0.91704411251E-02 -0.21343395300E-02  0.10196038242E+01  0.10193135904E+01 0.  0.
     999903    2    3    3    0    0  0.78080914921E-01  0.66421379697E-01 -0.81522859996E-01  0.13243009954E+00  0.19578702902E-01 0.  0.
         14    1    1    2    0    0 -0.22430123328E-01 -0.91704411251E-02  0.21343395300E-02  0.24326175782E-01  0.00000000000E+00 0.  1.
     999901    1    3    3    0    0 -0.55650791593E-01 -0.57250938571E-01  0.79388520466E-01  0.88717372468E+00  0.88000000000E+00 0.  1.
        -11    1    4    4    0    0  0.13098115849E-01  0.18529122114E-01 -0.25673559724E-01  0.34267795304E-01  0.51100000000E-03 0. -1.
         11    1    4    4    0    0  0.64982799072E-01  0.47892257582E-01 -0.55849300272E-01  0.98162304239E-01  0.51100000000E-03 0.  1.
</event>
<event>
 8    1  0.1199892E+005  0.1043930E+01  0.7957747E-01            NaN
         13   -1    0    0    0    0  0.00000000000E+00  0.00000000000E+00  0.74505805969E-08  0.10566000000E+00  0.10566000000E+00 0. -1.
     999900   -1    0    0    0    0 -0.00000000000E+00 -0.00000000000E+00 -0.74505805969E-08  0.93827000000E+00  0.93827000000E+00 0. -1.
     999902    2    1    2    0    0 -0.14130821467E-01 -0.37657218132E-02  0.18450781261E-01  0.10203865910E+01  0.10201149460E+01 0.  0.
     999903    2    3    3    0    0 -0.23595367275E-01 -0.11797919442E+00  0.51429563917E-01  0.13234273230E+00  0.19843565048E-01 0.  0.
         14    1    1    2    0    0  0.14130821467E-01  0.37657218132E-02 -0.18450781261E-01  0.23543408955E-01  0.00000000000E+00 0.  1.
     999901    1    3    3    0    0  0.94645458085E-02  0.11421347261E+00 -0.32978782657E-01  0.88804385875E+00  0.88000000000E+00 0. -1.
        -11    1    4    4    0    0 -0.51833484668E-02 -0.72548428166E-01  0.27151284518E-01  0.77637586919E-01  0.51100000000E-03 0.  1.
         11    1    4    4    0    0 -0.18412018808E-01 -0.45430766257E-01  0.24278279399E-01  0.54705145378E-01  0.51100000000E-03 0. -1.
</event>
<event>
 8    1  0.1199892E+005  0.1043930E+01  0.7957747E-01            NaN
         13   -1    0    0    0    0  0.00000000000E+00  0.00000000000E+00  0.74505805969E-08  0.10566000000E+00  0.10566000000E+00 0. -1.
     999900   -1    0    0    0    0 -0.00000000000E+00 -0.00000000000E+00 -0.74505805969E-08  0.93827000000E+00  0.93827000000E+00 0. -1.
     999902    2    1    2    0    0 -0.41784898080E-02  0.21551387495E-01  0.15559508478E-01  0.10170223731E+01  0.10166663598E+01 0.  0.
     999903    2    3    3    0    0 -0.12146830709E+00  0.38792570860E-01  0.16237332912E-02  0.12896361072E+00  0.19224026611E-01 0.  0.
         14    1    1    2    0    0  0.41784898080E-02 -0.21551387495E-01 -0.15559508478E-01  0.26907626877E-01  0.00000000000E+00 0. -1.
     999901    1    3    3    0    0  0.11728981729E+00 -0.17241183365E-01  0.13935775187E-01  0.88805876240E+00  0.88000000000E+00 0.  1.
        -11    1    4    4    0    0 -0.63986063280E-01  0.15097624388E-01 -0.73033938241E-02  0.66149491597E-01  0.51100000000E-03 0. -1.
         11    1    4    4    0    0 -0.57482243814E-01  0.23694946473E-01  0.89271271154E-02  0.62814119127E-01  0.51100000000E-03 0.  1.
</event>
<event>
 8    1  0.1199892E+005  0.1043930E+01  0.7957747E-01            NaN
         13   -1    0    0    0    0  0.00000000000E+00  0.00000000000E+00  0.74505805969E-08  0.10566000000E+00  0.10566000000E+00 0.  1.
     999900   -1    0    0    0    0 -0.00000000000E+00 -0.00000000000E+00 -0.74505805969E-08  0.93827000000E+00  0.93827000000E+00 0.  1.
     999902    2    1    2    0    0  0.13340581808E-01 -0.18940269614E-01 -0.17635041155E-02  0.10206960834E+01  0.10204316144E+01 0.  0.
     999903    2    3    3    0    0  0.30368384327E-02 -0.12719786166E+00 -0.34809595455E-01  0.13338671368E+00  0.19793661894E-01 0.  0.
         14    1    1    2    0    0 -0.13340581808E-01  0.18940269614E-01  0.17635041155E-02  0.23233916648E-01  0.00000000000E+00 0.  1.
     999901    1    3    3    0    0  0.10303743376E-01  0.10825759204E+00  0.33046091340E-01  0.88730936968E+00  0.88000000000E+00 0.  1.
        -11    1    4    4    0    0 -0.50681738387E-03 -0.46343385535E-01 -0.22502184599E-01  0.51522574464E-01  0.51100000000E-03 0. -1.
         11    1    4    4    0    0  0.35436558166E-02 -0.80854476124E-01 -0.12307410856E-01  0.81864139211E-01  0.51100000000E-03 0.  1.
</event>
<event>
 8    1  0.1199892E+005  0.1043930E+01  0.7957747E-01            NaN
         13   -1    0    0    0    0  0.00000000000E+00  0.00000000000E+00  0.74505805969E-08  0.10566000000E+00  0.10566000000E+00 0.  1.
     999900   -1    0    0    0    0 -0.00000000000E+00 -0.00000000000E+00 -0.74505805969E-08  0.93827000000E+00  0.93827000000E+00 0. -1.
     999902    2    1    2    0    0  0.16832962533E-01  0.85133831896E-02  0.12988753823E-01  0.10210272917E+01  0.10207703936E+01 0.  0.
     999903    2    3    3    0    0  0.11486178704E+00 -0.31300479185E-01 -0.53867278012E-01  0.13217155366E+00  0.19866701773E-01 0.  0.
         14    1    1    2    0    0 -0.16832962533E-01 -0.85133831896E-02 -0.12988753823E-01  0.22902708286E-01  0.00000000000E+00 0. -1.
     999901    1    3    3    0    0 -0.98028824502E-01  0.39813862375E-01  0.66856031835E-01  0.88885573805E+00  0.88000000000E+00 0.  1.
        -11    1    4    4    0    0  0.41302981737E-01 -0.95928000382E-02 -0.91176878885E-02  0.43374548601E-01  0.51100000000E-03 0. -1.
         11    1    4    4    0    0  0.73558805299E-01 -0.21707679147E-01 -0.44749590124E-01  0.88797005063E-01  0.51100000000E-03 0.  1.
</event>
<event>
 8    1  0.1199892E+005  0.1043930E+01  0.7957747E-01            NaN
         13   -1    0    0    0    0  0.00000000000E+00  0.00000000000E+00  0.74505805969E-08  0.10566000000E+00  0.10566000000E+00 0.  1.
     999900   -1    0    0    0    0 -0.00000000000E+00 -0.00000000000E+00 -0.74505805969E-08  0.93827000000E+00  0.93827000000E+00 0.  1.
     999902    2    1    2    0    0 -0.20961156688E-01 -0.92397822544E-02 -0.51549714446E-02  0.10204498510E+01  0.10201796808E+01 0.  0.
     999903    2    3    3    0    0 -0.39650051092E-01 -0.11569393466E+00  0.46536412160E-01  0.13233175049E+00  0.19719063451E-01 0.  0.
         14    1    1    2    0    0  0.20961156688E-01  0.92397822544E-02  0.51549714446E-02  0.23480148986E-01  0.00000000000E+00 0. -1.
     999901    1    3    3    0    0  0.18688894405E-01  0.10645415240E+00 -0.51691383605E-01  0.88811810052E+00  0.88000000000E+00 0.  1.
        -11    1    4    4    0    0 -0.25696810544E-01 -0.46682390598E-01  0.16533166714E-01  0.55795863527E-01  0.51100000000E-03 0.  1.
         11    1    4    4    0    0 -0.13953240548E-01 -0.69011544059E-01  0.30003245446E-01  0.76535886964E-01  0.51100000000E-03 0. -1.
</event>
<event>
 8    1  0.1199892E+005  0.1043930E+01  0.7957747E-01            NaN
         13   -1    0    0    0    0  0.00000000000E+00  0.00000000000E+00  0.74505805969E-08  0.10566000000E+00  0.10566000000E+00 0.  1.
     999900   -1    0    0    0    0 -0.00000000000E+00 -0.00000000000E+00 -0.74505805969E-08  0.93827000000E+00  0.93827000000E+00 0. -1.
     999902    2    1    2    0    0 -0.62499324962E-02 -0.21369067199E-01  0.94040636105E-02  0.10197611129E+01  0.10194746649E+01 0.  0.
     999903    2    3    3    0    0 -0.57672214489E-01  0.10935203403E+00  0.27441688354E-01  0.12843759519E+00  0.21429370706E-01 0.  0.
         14    1    1    2    0    0  0.62499324962E-02  0.21369067199E-01 -0.94040636105E-02  0.24168887057E-01  0.00000000000E+00 0.  1.
     999901    1    3    3    0    0  0.51422281992E-01 -0.13072110123E+00 -0.18037624744E-01  0.89132351775E+00  0.88000000000E+00 0. -1.
        -11    1    4    4    0    0 -0.33839656865E-01  0.67866611035E-01  0.62070505935E-02  0.76090655591E-01  0.51100000000E-03 0.  1.
         11    1    4    4    0    0 -0.23832557623E-01  0.41485422993E-01  0.21234637761E-01  0.52346939601E-01  0.51100000000E-03 0. -1.
</event>
<event>
 8    1  0.1199892E+005  0.1043930E+01  0.7957747E-01            NaN
         13   -1    0    0    0    0  0.00000000000E+00  0.00000000000E+00  0.74505805969E-08  0.10566000000E+00  0.10566000000E+00 0.  1.
     999900   -1    0    0    0    0 -0.00000000000E+00 -0.00000000000E+00 -0.74505805969E-08  0.93827000000E+00  0.93827000000E+00 0.  1.
     999902    2    1    2    0    0  0.19334787767E-01  0.16182112618E-02  0.14616354323E-01  0.10196382228E+01  0.10193488191E+01 0.  0.
     999903    2    3    3    0    0  0.10476430317E-01 -0.11607231687E+00  0.55801882359E-01  0.13080427958E+00  0.20331530848E-01 0.  0.
         14    1    1    2    0    0 -0.19334787767E-01 -0.16182112618E-02 -0.14616354323E-01  0.24291777197E-01  0.00000000000E+00 0.  1.
     999901    1    3    3    0    0  0.88583574508E-02  0.11769052813E+00 -0.41185528036E-01  0.88883394322E+00  0.88000000000E+00 0.  1.
        -11    1    4    4    0    0 -0.57790607294E-02 -0.44764255978E-01  0.19954626560E-01  0.49352653407E-01  0.51100000000E-03 0. -1.
         11    1    4    4    0    0  0.16255491046E-01 -0.71308060888E-01  0.35847255799E-01  0.81451626172E-01  0.51100000000E-03 0.  1.
</event>
<event>
 8    1  0.1199892E+005  0.1043930E+01  0.7957747E-01            NaN
         13   -1    0    0    0    0  0.00000000000E+00  0.00000000000E+00  0.74505805969E-08  0.10566000000E+00  0.10566000000E+00 0. -1.
     999900   -1    0    0    0    0 -0.00000000000E+00 -0.00000000000E+00 -0.74505805969E-08  0.93827000000E+00  0.93827000000E+00 0.  1.
     999902    2    1    2    0    0 -0.25033274313E-02 -0.23001569373E-01 -0.47705224312E-02  0.10203059291E+01  0.10200323976E+01 0.  0.
     999903    2    3    3    0    0 -0.64100565108E-01 -0.10737421685E+00 -0.41711575701E-01  0.13335744990E+00  0.20155619698E-01 0.  0.
         14    1    1    2    0    0  0.25033274313E-02  0.23001569373E-01  0.47705224312E-02  0.23624070905E-01  0.00000000000E+00 0. -1.
     999901    1    3    3    0    0  0.61597237677E-01  0.84372647474E-01  0.36941053270E-01  0.88694847920E+00  0.88000000000E+00 0. -1.
        -11    1    4    4    0    0 -0.27431702494E-01 -0.65427274206E-01 -0.23733204856E-01  0.74811447289E-01  0.51100000000E-03 0. -1.
         11    1    4    4    0    0 -0.36668862614E-01 -0.41946942641E-01 -0.17978370845E-01  0.58546002610E-01  0.51100000000E-03 0.  1.
</event>
<event>
 8    1  0.1199892E+005  0.1043930E+01  0.7957747E-01            NaN
         13   -1    0    0    0    0  0.00000000000E+00  0.00000000000E+00  0.74505805969E-08  0.10566000000E+00  0.10566000000E+00 0.  1.
     999900   -1    0    0    0    0 -0.00000000000E+00 -0.00000000000E+00 -0.74505805969E-08  0.93827000000E+00  0.93827000000E+00 0. -1.
     999902    2    1    2    0    0 -0.49688541796E-02  0.22156287732E-01 -0.54164533471E-02  0.10205862950E+01  0.10203192916E+01 0.  0.
     999903    2    3    3    0    0  0.79642258373E-02  0.79177741565E-01  0.10329877794E+00  0.13197067938E+00  0.20324345958E-01 0.  0.
         14    1    1    2    0    0  0.49688541796E-02 -0.22156287732E-01  0.54164533471E-02  0.23343705035E-01  0.00000000000E+00 0.  1.
     999901    1    3    3    0    0 -0.12933080017E-01 -0.57021453833E-01 -0.10871523129E+00  0.88861561559E+00  0.88000000000E+00 0. -1.
        -11    1    4    4    0    0 -0.40981279430E-02  0.38456376157E-01  0.59447163819E-01  0.70921886092E-01  0.51100000000E-03 0.  1.
         11    1    4    4    0    0  0.12062353780E-01  0.40721365408E-01  0.43851614119E-01  0.61048793283E-01  0.51100000000E-03 0. -1.
</event>
<event>
 8    1  0.1199892E+005  0.1043930E+01  0.7957747E-01            NaN
         13   -1    0    0    0    0  0.00000000000E+00  0.00000000000E+00  0.74505805969E-08  0.10566000000E+00  0.10566000000E+00 0. -1.
     999900   -1    0    0    0    0 -0.00000000000E+00 -0.00000000000E+00 -0.74505805969E-08  0.93827000000E+00  0.93827000000E+00 0.  1.
     999902    2    1    2    0    0  0.13000003694E-01  0.54662289984E-02  0.18605190084E-01  0.10205840613E+01  0.10203170063E+01 0.  0.
     999903    2    3    3    0    0  0.68827659649E-01 -0.13668246746E-01  0.11184710006E+00  0.13369234914E+00  0.20971474056E-01 0.  0.
         14    1    1    2    0    0 -0.13000003694E-01 -0.54662289984E-02 -0.18605190084E-01  0.23345938695E-01  0.00000000000E+00 0.  1.
     999901    1    3    3    0    0 -0.55827655956E-01  0.19134475744E-01 -0.93241909980E-01  0.88689171217E+00  0.88000000000E+00 0. -1.
        -11    1    4    4    0    0  0.18586360908E-01 -0.98940744653E-02  0.47543856910E-01  0.52000240117E-01  0.51100000000E-03 0. -1.
         11    1    4    4    0    0  0.50241298741E-01 -0.37741722805E-02  0.64303243153E-01  0.81692109022E-01  0.51100000000E-03 0.  1.
</event>
<event>
 8    1  0.1199892E+005  0.1043930E+01  0.7957747E-01            NaN
         13   -1    0    0    0    0  0.00000000000E+00  0.00000000000E+00  0.74505805969E-08  0.10566000000E+00  0.10566000000E+00 0. -1.
     999900   -1    0    0    0    0 -0.00000000000E+00 -0.00000000000E+00 -0.74505805969E-08  0.93827000000E+00  0.93827000000E+00 0.  1.
     999902    2    1    2    0    0  0.45951106712E-02 -0.15302348733E-01  0.17738209505E-01  0.10200569819E+01  0.10197775862E+01 0.  0.
     999903    2    3    3    0    0  0.21224976702E-02  0.63783966261E-01 -0.10830910743E+00  0.12756121988E+00  0.21635681610E-01 0.  0.
         14    1    1    2    0    0 -0.45951106712E-02  0.15302348733E-01 -0.17738209505E-01  0.23873018143E-01  0.00000000000E+00 0.  1.
     999901    1    3    3    0    0  0.24726130010E-02 -0.79086314994E-01  0.12604731693E+00  0.89249576197E+00  0.88000000000E+00 0. -1.
        -11    1    4    4    0    0  0.23201655747E-02  0.54224962409E-01 -0.72938668148E-01  0.90917765859E-01  0.51100000000E-03 0. -1.
         11    1    4    4    0    0 -0.19766790445E-03  0.95590038518E-02 -0.35370439277E-01  0.36643454025E-01  0.51100000000E-03 0.  1.
</event>
<event>
 8    1  0.1199892E+005  0.1043930E+01  0.7957747E-01            NaN
         13   -1    0    0    0    0  0.00000000000E+00  0.00000000000E+00  0.74505805969E-08  0.10566000000E+00  0.10566000000E+00 0.  1.
     999900   -1    0    0    0    0 -0.00000000000E+00 -0.00000000000E+00 -0.74505805969E-08  0.93827000000E+00  0.93827000000E+00 0. -1.
     999902    2    1    2    0    0 -0.81529945200E-02  0.20568917145E-01 -0.73821922529E-02  0.10206051541E+01  0.10203385870E+01 0.  0.
     999903    2    3    3    0    0  0.99803227875E-01  0.43640586460E-04 -0.81402562375E-01  0.13068670387E+00  0.22179973127E-01 0.  0.
         14    1    1    2    0    0  0.81529945200E-02 -0.20568917145E-01  0.73821922529E-02  0.23324845865E-01  0.00000000000E+00 0.  1.
     999901    1    3    3    0    0 -0.10795622240E+00  0.20525276559E-01  0.74020370122E-01  0.88991845027E+00  0.88000000000E+00 0.  1.
        -11    1    4    4    0    0  0.71060557308E-01  0.86204908230E-02 -0.63898045443E-01  0.95953827435E-01  0.51100000000E-03 0.  1.
         11    1    4    4    0    0  0.28742670568E-01 -0.85768502365E-02 -0.17504516932E-01  0.34732876434E-01  0.51100000000E-03 0. -1.
</event>
