<event>
 8    1  0.1094829E+005  0.1043930E+01  0.7957747E-01            NaN
         13   -1    0    0    0    0  0.00000000000E+00  0.00000000000E+00  0.74505805969E-08  0.10566000000E+00  0.10566000000E+00 0.  1.
     999900   -1    0    0    0    0 -0.00000000000E+00 -0.00000000000E+00 -0.74505805969E-08  0.93827000000E+00  0.93827000000E+00 0.  1.
     999902    2    1    2    0    0  0.15581597875E-01  0.81088870119E-02  0.14525010514E-01  0.10211371026E+01  0.10208826897E+01 0.  0.
     999903    2    3    3    0    0 -0.65397631273E-01  0.50916121375E-03  0.11264857896E+00  0.13195566664E+00  0.21106543942E-01 0.  0.
         14    1    1    2    0    0 -0.15581597875E-01 -0.81088870119E-02 -0.14525010514E-01  0.22792897389E-01  0.00000000000E+00 0. -1.
     999901    1    3    3    0    0  0.80979229148E-01  0.75997257982E-02 -0.98123568442E-01  0.88918143597E+00  0.88000000000E+00 0. -1.
        -11    1    4    4    0    0 -0.42938355142E-01  0.83069830192E-02  0.60630415189E-01  0.74759726298E-01  0.51100000000E-03 0.  1.
         11    1    4    4    0    0 -0.22459276130E-01 -0.77978218054E-02  0.52018163768E-01  0.57195940346E-01  0.51100000000E-03 0. -1.
</event>
<event>
 8    1  0.1094829E+005  0.1043930E+01  0.7957747E-01            NaN
         13   -1    0    0    0    0  0.00000000000E+00  0.00000000000E+00  0.74505805969E-08  0.10566000000E+00  0.10566000000E+00 0.  1.
     999900   -1    0    0    0    0 -0.00000000000E+00 -0.00000000000E+00 -0.74505805969E-08  0.93827000000E+00  0.93827000000E+00 0.  1.
     999902    2    1    2    0    0 -0.22606922159E-01 -0.61204646619E-02  0.55409769204E-02  0.10198626893E+01  0.10195786726E+01 0.  0.
     999903    2    3    3    0    0  0.65970234489E-02  0.10994638627E+00  0.64024008038E-01  0.12983760584E+00  0.25040002283E-01 0.  0.
         14    1    1    2    0    0  0.22606922159E-01  0.61204646619E-02 -0.55409769204E-02  0.24067310660E-01  0.00000000000E+00 0. -1.
     999901    1    3    3    0    0 -0.29203945608E-01 -0.11606685093E+00 -0.58483031117E-01  0.89002508350E+00  0.88000000000E+00 0.  1.
        -11    1    4    4    0    0  0.59936759523E-02  0.95024658974E-01  0.64299260839E-01  0.11489241067E+00  0.51100000000E-03 0.  1.
         11    1    4    4    0    0  0.60334749661E-03  0.14921727293E-01 -0.27525280101E-03  0.14945195172E-01  0.51100000000E-03 0. -1.
</event>
<event>
 8    1  0.1094829E+005  0.1043930E+01  0.7957747E-01            NaN
         13   -1    0    0    0    0  0.00000000000E+00  0.00000000000E+00  0.74505805969E-08  0.10566000000E+00  0.10566000000E+00 0.  1.
     999900   -1    0    0    0    0 -0.00000000000E+00 -0.00000000000E+00 -0.74505805969E-08  0.93827000000E+00  0.93827000000E+00 0. -1.
     999902    2    1    2    0    0  0.14436985648E-01  0.18775255948E-01  0.47528450657E-02  0.10197737104E+01  0.10194875645E+01 0.  0.
     999903    2    3    3    0    0  0.27336881952E-01  0.12585072950E+00 -0.24954552494E-01  0.13269192510E+00  0.19967625407E-01 0.  0.
         14    1    1    2    0    0 -0.14436985648E-01 -0.18775255948E-01 -0.47528450657E-02  0.24156289590E-01  0.00000000000E+00 0. -1.
     999901    1    3    3    0    0 -0.12899896304E-01 -0.10707547356E+00  0.29707397560E-01  0.88708178531E+00  0.88000000000E+00 0.  1.
        -11    1    4    4    0    0  0.23435518632E-01  0.70954301164E-01 -0.20432269902E-01  0.77469188466E-01  0.51100000000E-03 0. -1.
         11    1    4    4    0    0  0.39013633198E-02  0.54896428340E-01 -0.45222825920E-02  0.55222736632E-01  0.51100000000E-03 0.  1.
</event>
<event>
 8    1  0.1094829E+005  0.1043930E+01  0.7957747E-01            NaN
         13   -1    0    0    0    0  0.00000000000E+00  0.00000000000E+00  0.74505805969E-08  0.10566000000E+00  0.10566000000E+00 0.  1.
     999900   -1    0    0    0    0 -0.00000000000E+00 -0.00000000000E+00 -0.74505805969E-08  0.93827000000E+00  0.93827000000E+00 0. -1.
     999902    2    1    2    0    0  0.17413293496E-01  0.17423609254E-01 -0.15726499728E-02  0.10192464391E+01  0.10189475087E+01 0.  0.
     999903    2    3    3    0    0 -0.72545457475E-01  0.83361325706E-01 -0.65421110145E-01  0.12991130252E+00  0.19623222103E-01 0.  0.
         14    1    1    2    0    0 -0.17413293496E-01 -0.17423609254E-01  0.15726499728E-02  0.24683560880E-01  0.00000000000E+00 0.  1.
     999901    1    3    3    0    0  0.89958750971E-01 -0.65937716453E-01  0.63848460172E-01  0.88933513660E+00  0.88000000000E+00 0.  1.
        -11    1    4    4    0    0 -0.61728867493E-02  0.16625385297E-01 -0.66562666449E-02  0.18949273700E-01  0.51100000000E-03 0.  1.
         11    1    4    4    0    0 -0.66372570725E-01  0.66735940409E-01 -0.58764843500E-01  0.11096202882E+00  0.51100000000E-03 0. -1.
</event>
<event>
 8    1  0.1094829E+005  0.1043930E+01  0.7957747E-01            NaN
         13   -1    0    0    0    0  0.00000000000E+00  0.00000000000E+00  0.74505805969E-08  0.10566000000E+00  0.10566000000E+00 0. -1.
     999900   -1    0    0    0    0 -0.00000000000E+00 -0.00000000000E+00 -0.74505805969E-08  0.93827000000E+00  0.93827000000E+00 0. -1.
     999902    2    1    2    0    0 -0.13310162670E-01 -0.55694872819E-02 -0.18629810445E-01  0.10203662682E+01  0.10200941485E+01 0.  0.
     999903    2    3    3    0    0 -0.62301950972E-01  0.10070642764E+00 -0.54619855516E-01  0.13189001711E+00  0.19706098915E-01 0.  0.
         14    1    1    2    0    0  0.13310162670E-01  0.55694872819E-02  0.18629810445E-01  0.23563731795E-01  0.00000000000E+00 0. -1.
     999901    1    3    3    0    0  0.48991788302E-01 -0.10627591492E+00  0.35990045071E-01  0.88847625109E+00  0.88000000000E+00 0.  1.
        -11    1    4    4    0    0 -0.16419584428E-01  0.30113765906E-01 -0.64975556268E-02  0.34913049136E-01  0.51100000000E-03 0.  1.
         11    1    4    4    0    0 -0.45882366543E-01  0.70592661733E-01 -0.48122299889E-01  0.96976967976E-01  0.51100000000E-03 0. -1.
</event>
<event>
 8    1  0.1094829E+005  0.1043930E+01  0.7957747E-01            NaN
         13   -1    0    0    0    0  0.00000000000E+00  0.00000000000E+00  0.74505805969E-08  0.10566000000E+00  0.10566000000E+00 0. -1.
     999900   -1    0    0    0    0 -0.00000000000E+00 -0.00000000000E+00 -0.74505805969E-08  0.93827000000E+00  0.93827000000E+00 0. -1.
     999902    2    1    2    0    0 -0.18937296096E-01  0.99243911396E-02  0.12793527696E-01  0.10190143609E+01  0.10187097126E+01 0.  0.
     999903    2    3    3    0    0 -0.77706732073E-01  0.36488408171E-01 -0.95656522641E-01  0.13001441315E+00  0.19591762631E-01 0.  0.
         14    1    1    2    0    0  0.18937296096E-01 -0.99243911396E-02 -0.12793527696E-01  0.24915639141E-01  0.00000000000E+00 0.  1.
     999901    1    3    3    0    0  0.58769435977E-01 -0.26564017032E-01  0.10845005034E+00  0.88899994771E+00  0.88000000000E+00 0.  1.
        -11    1    4    4    0    0 -0.47893488301E-01  0.21446070839E-01 -0.71966827210E-01  0.89068543919E-01  0.51100000000E-03 0.  1.
         11    1    4    4    0    0 -0.29813243772E-01  0.15042337332E-01 -0.23689695431E-01  0.40945869233E-01  0.51100000000E-03 0. -1.
</event>
<event>
 8    1  0.1094829E+005  0.1043930E+01  0.7957747E-01            NaN
         13   -1    0    0    0    0  0.00000000000E+00  0.00000000000E+00  0.74505805969E-08  0.10566000000E+00  0.10566000000E+00 0.  1.
     999900   -1    0    0    0    0 -0.00000000000E+00 -0.00000000000E+00 -0.74505805969E-08  0.93827000000E+00  0.93827000000E+00 0. -1.
     999902    2    1    2    0    0 -0.15908268891E-01 -0.14962991064E-01 -0.99517936475E-02  0.10199299517E+01  0.10196475392E+01 0.  0.
     999903    2    3    3    0    0 -0.13021019275E+00 -0.79456298345E-02 -0.11314922999E-01  0.13250895170E+00  0.20316679583E-01 0.  0.
         14    1    1    2    0    0  0.15908268891E-01  0.14962991064E-01  0.99517936475E-02  0.24000048281E-01  0.00000000000E+00 0.  1.
     999901    1    3    3    0    0  0.11430192386E+00 -0.70173612293E-02  0.13631293520E-02  0.88742100002E+00  0.88000000000E+00 0. -1.
        -11    1    4    4    0    0 -0.67938355966E-01 -0.14165372347E-01 -0.75765015328E-02  0.69813626761E-01  0.51100000000E-03 0.  1.
         11    1    4    4    0    0 -0.62271836780E-01  0.62197425126E-02 -0.37384214667E-02  0.62695324937E-01  0.51100000000E-03 0. -1.
</event>
<event>
 8    1  0.1094829E+005  0.1043930E+01  0.7957747E-01            NaN
         13   -1    0    0    0    0  0.00000000000E+00  0.00000000000E+00  0.74505805969E-08  0.10566000000E+00  0.10566000000E+00 0.  1.
     999900   -1    0    0    0    0 -0.00000000000E+00 -0.00000000000E+00 -0.74505805969E-08  0.93827000000E+00  0.93827000000E+00 0. -1.
     999902    2    1    2    0    0 -0.16689201521E-01  0.15280048224E-01  0.54785678684E-02  0.10206485905E+01  0.10203830268E+01 0.  0.
     999903    2    3    3    0    0 -0.67358250274E-01  0.97388488586E-01  0.58847576684E-01  0.13376787725E+00  0.20227607708E-01 0.  0.
         14    1    1    2    0    0  0.16689201521E-01 -0.15280048224E-01 -0.54785678684E-02  0.23281409472E-01  0.00000000000E+00 0.  1.
     999901    1    3    3    0    0  0.50669048753E-01 -0.82108440362E-01 -0.53369008816E-01  0.88688071328E+00  0.88000000000E+00 0.  1.
        -11    1    4    4    0    0 -0.25754789453E-01  0.53603334997E-01  0.24834190511E-01  0.64448621722E-01  0.51100000000E-03 0.  1.
         11    1    4    4    0    0 -0.41603460821E-01  0.43785153589E-01  0.34013386173E-01  0.69319255528E-01  0.51100000000E-03 0. -1.
</event>
<event>
 8    1  0.1094829E+005  0.1043930E+01  0.7957747E-01            NaN
         13   -1    0    0    0    0  0.00000000000E+00  0.00000000000E+00  0.74505805969E-08  0.10566000000E+00  0.10566000000E+00 0.  1.
     999900   -1    0    0    0    0 -0.00000000000E+00 -0.00000000000E+00 -0.74505805969E-08  0.93827000000E+00  0.93827000000E+00 0. -1.
     999902    2    1    2    0    0 -0.12862357256E-01  0.15211511811E-01  0.86347874834E-02  0.10222184851E+01  0.10219878871E+01 0.  0.
     999903    2    3    3    0    0 -0.54640922544E-01  0.12030394806E+00  0.89085970028E-02  0.13498123177E+00  0.26113205359E-01 0.  0.
         14    1    1    2    0    0  0.12862357256E-01 -0.15211511811E-01 -0.86347874834E-02  0.21711514932E-01  0.00000000000E+00 0. -1.
     999901    1    3    3    0    0  0.41778565288E-01 -0.10509243625E+00 -0.27380951941E-03  0.88723725330E+00  0.88000000000E+00 0. -1.
        -11    1    4    4    0    0 -0.38682056378E-01  0.67913259628E-01 -0.54874943633E-02  0.78351043607E-01  0.51100000000E-03 0.  1.
         11    1    4    4    0    0 -0.15958866167E-01  0.52390688429E-01  0.14396091366E-01  0.56630188160E-01  0.51100000000E-03 0. -1.
</event>
<event>
 8    1  0.1094829E+005  0.1043930E+01  0.7957747E-01            NaN
         13   -1    0    0    0    0  0.00000000000E+00  0.00000000000E+00  0.74505805969E-08  0.10566000000E+00  0.10566000000E+00 0.  1.
     999900   -1    0    0    0    0 -0.00000000000E+00 -0.00000000000E+00 -0.74505805969E-08  0.93827000000E+00  0.93827000000E+00 0.  1.
     999902    2    1    2    0    0 -0.22055371594E-01 -0.58768444576E-02 -0.30429291707E-02  0.10209031432E+01  0.10206434204E+01 0.  0.
     999903    2    3    3    0    0 -0.77399128812E-01 -0.47836833808E-01  0.94552979887E-01  0.13278798532E+00  0.20332123078E-01 0.  0.
         14    1    1    2    0    0  0.22055371594E-01  0.58768444576E-02  0.30429291707E-02  0.23026856817E-01  0.00000000000E+00 0.  1.
     999901    1    3    3    0    0  0.55343757218E-01  0.41959989350E-01 -0.97595909058E-01  0.88811515787E+00  0.88000000000E+00 0.  1.
        -11    1    4    4    0    0 -0.20772263793E-01 -0.80262269553E-02  0.34930368178E-01  0.41428239213E-01  0.51100000000E-03 0.  1.
         11    1    4    4    0    0 -0.56626865019E-01 -0.39810606853E-01  0.59622611710E-01  0.91359746103E-01  0.51100000000E-03 0. -1.
</event>
<event>
 8    1  0.1094829E+005  0.1043930E+01  0.7957747E-01            NaN
         13   -1    0    0    0    0  0.00000000000E+00  0.00000000000E+00  0.74505805969E-08  0.10566000000E+00  0.10566000000E+00 0.  1.
     999900   -1    0    0    0    0 -0.00000000000E+00 -0.00000000000E+00 -0.74505805969E-08  0.93827000000E+00  0.93827000000E+00 0.  1.
     999902    2    1    2    0    0  0.41555190107E-02 -0.90257006007E-02 -0.22254806875E-01  0.10195577199E+01  0.10192663715E+01 0.  0.
     999903    2    3    3    0    0  0.12316699552E-02  0.72309080877E-01 -0.10822643453E+00  0.13163034878E+00  0.19582323710E-01 0.  0.
         14    1    1    2    0    0 -0.41555190107E-02  0.90257006007E-02  0.22254806875E-01  0.24372280128E-01  0.00000000000E+00 0.  1.
     999901    1    3    3    0    0  0.29238490556E-02 -0.81334781478E-01  0.85971627651E-01  0.88792737109E+00  0.88000000000E+00 0. -1.
        -11    1    4    4    0    0 -0.56363201001E-02  0.40524732342E-01 -0.47105152566E-01  0.62395340811E-01  0.51100000000E-03 0. -1.
         11    1    4    4    0    0  0.68679900553E-02  0.31784348536E-01 -0.61121281960E-01  0.69235007970E-01  0.51100000000E-03 0.  1.
</event>
<event>
 8    1  0.1094829E+005  0.1043930E+01  0.7957747E-01            NaN
         13   -1    0    0    0    0  0.00000000000E+00  0.00000000000E+00  0.74505805969E-08  0.10566000000E+00  0.10566000000E+00 0.  1.
     999900   -1    0    0    0    0 -0.00000000000E+00 -0.00000000000E+00 -0.74505805969E-08  0.93827000000E+00  0.93827000000E+00 0.  1.
     999902    2    1    2    0    0  0.14478930637E-01  0.15258326269E-01  0.11593847780E-01  0.10199118140E+01  0.10196289693E+01 0.  0.
     999903    2    3    3    0    0 -0.15666168390E-01 -0.23421323220E-01  0.12646451083E+00  0.13109230953E+00  0.19948280716E-01 0.  0.
         14    1    1    2    0    0 -0.14478930637E-01 -0.15258326269E-01 -0.11593847780E-01  0.24018186011E-01  0.00000000000E+00 0. -1.
     999901    1    3    3    0    0  0.30145099027E-01  0.38679649489E-01 -0.11487066305E+00  0.88881950446E+00  0.88000000000E+00 0. -1.
        -11    1    4    4    0    0 -0.18769969279E-01 -0.19654259758E-01  0.82679427365E-01  0.87033042598E-01  0.51100000000E-03 0.  1.
         11    1    4    4    0    0  0.31038008887E-02 -0.37670634625E-02  0.43785083469E-01  0.44059266931E-01  0.51100000000E-03 0. -1.
</event>
<event>
 8    1  0.1094829E+005  0.1043930E+01  0.7957747E-01            NaN
         13   -1    0    0    0    0  0.00000000000E+00  0.00000000000E+00  0.74505805969E-08  0.10566000000E+00  0.10566000000E+00 0. -1.
     999900   -1    0    0    0    0 -0.00000000000E+00 -0.00000000000E+00 -0.74505805969E-08  0.93827000000E+00  0.93827000000E+00 0.  1.
     999902    2    1    2    0    0 -0.11457343507E-02  0.62666823545E-02  0.22715966238E-01  0.10203376466E+01  0.10200648577E+01 0.  0.
     999903    2    3    3    0    0 -0.23188508600E-01  0.58293327941E-01  0.11613521713E+00  0.13359088900E+00  0.20574692021E-01 0.  0.
         14    1    1    2    0    0  0.11457343507E-02 -0.62666823545E-02 -0.22715966238E-01  0.23592353360E-01  0.00000000000E+00 0.  1.
     999901    1    3    3    0    0  0.22042774249E-01 -0.52026645587E-01 -0.93419250894E-01  0.88674675764E+00  0.88000000000E+00 0.  1.
        -11    1    4    4    0    0 -0.17936211003E-01  0.51999874621E-01  0.83896048328E-01  0.10032199495E+00  0.51100000000E-03 0.  1.
         11    1    4    4    0    0 -0.52522975970E-02  0.62934533208E-02  0.32239168805E-01  0.33268894045E-01  0.51100000000E-03 0. -1.
</event>
<event>
 8    1  0.1094829E+005  0.1043930E+01  0.7957747E-01            NaN
         13   -1    0    0    0    0  0.00000000000E+00  0.00000000000E+00  0.74505805969E-08  0.10566000000E+00  0.10566000000E+00 0. -1.
     999900   -1    0    0    0    0 -0.00000000000E+00 -0.00000000000E+00 -0.74505805969E-08  0.93827000000E+00  0.93827000000E+00 0.  1.
     999902    2    1    2    0    0  0.46435118091E-02  0.18520278583E-01  0.12848567214E-01  0.10209159043E+01  0.10206564726E+01 0.  0.
     999903    2    3    3    0    0 -0.83594684418E-01 -0.12087934769E-01  0.99069156238E-01  0.13178327531E+00  0.20443691025E-01 0.  0.
         14    1    1    2    0    0 -0.46435118091E-02 -0.18520278583E-01 -0.12848567214E-01  0.23014095684E-01  0.00000000000E+00 0.  1.
     999901    1    3    3    0    0  0.88238196227E-01  0.30608213352E-01 -0.86220589024E-01  0.88913262901E+00  0.88000000000E+00 0.  1.
        -11    1    4    4    0    0 -0.79889177954E-01 -0.14040772936E-01  0.98379408308E-01  0.12750762000E+00  0.51100000000E-03 0.  1.
         11    1    4    4    0    0 -0.37055064639E-02  0.19528381669E-02  0.68974792975E-03  0.42756553026E-02  0.51100000000E-03 0. -1.
</event>
<event>
 8    1  0.1094829E+005  0.1043930E+01  0.7957747E-01            NaN
         13   -1    0    0    0    0  0.00000000000E+00  0.00000000000E+00  0.74505805969E-08  0.10566000000E+00  0.10566000000E+00 0. -1.
     999900   -1    0    0    0    0 -0.00000000000E+00 -0.00000000000E+00 -0.74505805969E-08  0.93827000000E+00  0.93827000000E+00 0. -1.
     999902    2    1    2    0    0  0.15995708880E-01 -0.14323017720E-01 -0.95244861865E-02  0.10204411223E+01  0.10201707488E+01 0.  0.
     999903    2    3    3    0    0  0.10266842879E-01 -0.98023635410E-01 -0.87091998202E-01  0.13305432262E+00  0.20109586131E-01 0.  0.
         14    1    1    2    0    0 -0.15995708880E-01  0.14323017720E-01  0.95244861865E-02  0.23488877714E-01  0.00000000000E+00 0.  1.
     999901    1    3    3    0    0  0.57288660009E-02  0.83700617690E-01  0.77567512016E-01  0.88738679967E+00  0.88000000000E+00 0.  1.
        -11    1    4    4    0    0  0.26905372775E-02 -0.40849530891E-01 -0.49372611723E-01  0.64139216351E-01  0.51100000000E-03 0. -1.
         11    1    4    4    0    0  0.75763056012E-02 -0.57174104519E-01 -0.37719386479E-01  0.68915106265E-01  0.51100000000E-03 0.  1.
</event>
<event>
 8    1  0.1094829E+005  0.1043930E+01  0.7957747E-01            NaN
         13   -1    0    0    0    0  0.00000000000E+00  0.00000000000E+00  0.74505805969E-08  0.10566000000E+00  0.10566000000E+00 0.  1.
     999900   -1    0    0    0    0 -0.00000000000E+00 -0.00000000000E+00 -0.74505805969E-08  0.93827000000E+00  0.93827000000E+00 0. -1.
     999902    2    1    2    0    0 -0.21274582318E-01  0.82378164941E-02  0.73490966227E-02  0.10199617148E+01  0.10196800582E+01 0.  0.
     999903    2    3    3    0    0 -0.76836856205E-01  0.56219258457E-01 -0.88705759965E-01  0.13169603355E+00  0.20263906527E-01 0.  0.
         14    1    1    2    0    0  0.21274582318E-01 -0.82378164941E-02 -0.73490966227E-02  0.23968285182E-01  0.00000000000E+00 0. -1.
     999901    1    3    3    0    0  0.55562273887E-01 -0.47981441963E-01  0.96054856588E-01  0.88826568127E+00  0.88000000000E+00 0.  1.
        -11    1    4    4    0    0 -0.31022861944E-01  0.17577721759E-01 -0.21473736106E-01  0.41626634848E-01  0.51100000000E-03 0. -1.
         11    1    4    4    0    0 -0.45813994261E-01  0.38641536698E-01 -0.67232023859E-01  0.90069398698E-01  0.51100000000E-03 0.  1.
</event>
<event>
 8    1  0.1094829E+005  0.1043930E+01  0.7957747E-01            NaN
         13   -1    0    0    0    0  0.00000000000E+00  0.00000000000E+00  0.74505805969E-08  0.10566000000E+00  0.10566000000E+00 0. -1.
     999900   -1    0    0    0    0 -0.00000000000E+00 -0.00000000000E+00 -0.74505805969E-08  0.93827000000E+00  0.93827000000E+00 0. -1.
     999902    2    1    2    0    0  0.17923077697E-01  0.95824014059E-02  0.11458012542E-01  0.10205987938E+01  0.10203320796E+01 0.  0.
     999903    2    3    3    0    0 -0.80225942188E-01  0.74463094307E-01 -0.65981096022E-01  0.12939761004E+00  0.20230725108E-01 0.  0.
         14    1    1    2    0    0 -0.17923077697E-01 -0.95824014059E-02 -0.11458012542E-01  0.23331206190E-01  0.00000000000E+00 0.  1.
     999901    1    3    3    0    0  0.98149019885E-01 -0.64880692901E-01  0.77439108565E-01  0.89120118377E+00  0.88000000000E+00 0.  1.
        -11    1    4    4    0    0 -0.35313135761E-01  0.39048183417E-01 -0.21213665955E-01  0.56763182871E-01  0.51100000000E-03 0.  1.
         11    1    4    4    0    0 -0.44912806427E-01  0.35414910890E-01 -0.44767430067E-01  0.72634427170E-01  0.51100000000E-03 0. -1.
</event>
<event>
 8    1  0.1094829E+005  0.1043930E+01  0.7957747E-01            NaN
         13   -1    0    0    0    0  0.00000000000E+00  0.00000000000E+00  0.74505805969E-08  0.10566000000E+00  0.10566000000E+00 0. -1.
     999900   -1    0    0    0    0 -0.00000000000E+00 -0.00000000000E+00 -0.74505805969E-08  0.93827000000E+00  0.93827000000E+00 0. -1.
     999902    2    1    2    0    0 -0.10026126161E-01  0.21444089649E-01  0.36123169172E-02  0.10199837890E+01  0.10197026571E+01 0.  0.
     999903    2    3    3    0    0  0.10837679694E+00 -0.63173483202E-01 -0.13220814473E-01  0.12787239455E+00  0.20979519934E-01 0.  0.
         14    1    1    2    0    0  0.10026126161E-01 -0.21444089649E-01 -0.36123169172E-02  0.23946210978E-01  0.00000000000E+00 0.  1.
     999901    1    3    3    0    0 -0.11840292311E+00  0.84617572851E-01  0.16833131390E-01  0.89211139447E+00  0.88000000000E+00 0.  1.
        -11    1    4    4    0    0  0.57827581842E-01 -0.45473514846E-01 -0.57269375985E-02  0.73789760193E-01  0.51100000000E-03 0.  1.
         11    1    4    4    0    0  0.50549215103E-01 -0.17699968356E-01 -0.74938768741E-02  0.54082634357E-01  0.51100000000E-03 0. -1.
</event>
<event>
 8    1  0.1094829E+005  0.1043930E+01  0.7957747E-01            NaN
         13   -1    0    0    0    0  0.00000000000E+00  0.00000000000E+00  0.74505805969E-08  0.10566000000E+00  0.10566000000E+00 0.  1.
     999900   -1    0    0    0    0 -0.00000000000E+00 -0.00000000000E+00 -0.74505805969E-08  0.93827000000E+00  0.93827000000E+00 0.  1.
     999902    2    1    2    0    0 -0.81139253002E-02  0.10845695992E-01 -0.19538623383E-01  0.10201555871E+01  0.10198785218E+01 0.  0.
     999903    2    3    3    0    0 -0.79257317887E-01 -0.26418891532E-01 -0.10104832975E+00  0.13274707687E+00  0.20768755473E-01 0.  0.
         14    1    1    2    0    0  0.81139253002E-02 -0.10845695992E-01  0.19538623383E-01  0.23774412907E-01  0.00000000000E+00 0.  1.
     999901    1    3    3    0    0  0.71143392587E-01  0.37264587525E-01  0.81509706362E-01  0.88740851023E+00  0.88000000000E+00 0. -1.
        -11    1    4    4    0    0 -0.68759438783E-01 -0.16160928982E-01 -0.76354072075E-01  0.10401558292E+00  0.51100000000E-03 0.  1.
         11    1    4    4    0    0 -0.10497879104E-01 -0.10257962550E-01 -0.24694257671E-01  0.28731493944E-01  0.51100000000E-03 0. -1.
</event>
<event>
 8    1  0.1094829E+005  0.1043930E+01  0.7957747E-01            NaN
         13   -1    0    0    0    0  0.00000000000E+00  0.00000000000E+00  0.74505805969E-08  0.10566000000E+00  0.10566000000E+00 0.  1.
     999900   -1    0    0    0    0 -0.00000000000E+00 -0.00000000000E+00 -0.74505805969E-08  0.93827000000E+00  0.93827000000E+00 0. -1.
     999902    2    1    2    0    0  0.21450924005E-01 -0.79677313350E-02 -0.14755719014E-02  0.10209995793E+01  0.10207420520E+01 0.  0.
     999903    2    3    3    0    0 -0.52936924305E-01 -0.11748328113E+00  0.13934438967E-01  0.13096324513E+00  0.18776679257E-01 0.  0.
         14    1    1    2    0    0 -0.21450924005E-01  0.79677313350E-02  0.14755719014E-02  0.22930420749E-01  0.00000000000E+00 0.  1.
     999901    1    3    3    0    0  0.74387848311E-01  0.10951554980E+00 -0.15410010868E-01  0.89003633412E+00  0.88000000000E+00 0. -1.
        -11    1    4    4    0    0 -0.42196974615E-01 -0.74175388568E-01  0.52306987062E-02  0.85499674068E-01  0.51100000000E-03 0.  1.
         11    1    4    4    0    0 -0.10739949691E-01 -0.43307892567E-01  0.87037402607E-02  0.45463571060E-01  0.51100000000E-03 0. -1.
</event>
<event>
 8    1  0.1094829E+005  0.1043930E+01  0.7957747E-01            NaN
         13   -1    0    0    0    0  0.00000000000E+00  0.00000000000E+00  0.74505805969E-08  0.10566000000E+00  0.10566000000E+00 0. -1.
     999900   -1    0    0    0    0 -0.00000000000E+00 -0.00000000000E+00 -0.74505805969E-08  0.93827000000E+00  0.93827000000E+00 0. -1.
     999902    2    1    2    0    0 -0.19639894583E-01  0.78284145469E-02 -0.70118150647E-02  0.10216550121E+01  0.10214121542E+01 0.  0.
     999903    2    3    3    0    0 -0.63645579164E-02 -0.55498670339E-01 -0.11812599228E+00  0.13231091978E+00  0.20780265460E-01 0.  0.
         14    1    1    2    0    0  0.19639894583E-01 -0.78284145469E-02  0.70118150647E-02  0.22274987858E-01  0.00000000000E+00 0.  1.
     999901    1    3    3    0    0 -0.13275336667E-01  0.63327084886E-01  0.11111417722E+00  0.88934409236E+00  0.88000000000E+00 0.  1.
        -11    1    4    4    0    0 -0.51955628936E-02 -0.36288629403E-01 -0.53338291879E-01  0.64723202943E-01  0.51100000000E-03 0.  1.
         11    1    4    4    0    0 -0.11689950227E-02 -0.19210040936E-01 -0.64787700405E-01  0.67587716835E-01  0.51100000000E-03 0. -1.
</event>
<event>
 8    1  0.1094829E+005  0.1043930E+01  0.7957747E-01            NaN
         13   -1    0    0    0    0  0.00000000000E+00  0.00000000000E+00  0.74505805969E-08  0.10566000000E+00  0.10566000000E+00 0.  1.
     999900   -1    0    0    0    0 -0.00000000000E+00 -0.00000000000E+00 -0.74505805969E-08  0.93827000000E+00  0.93827000000E+00 0. -1.
     999902    2    1    2    0    0  0.50823746048E-02 -0.11381661525E-01  0.19245339084E-01  0.10210006340E+01  0.10207431306E+01 0.  0.
     999903    2    3    3    0    0  0.58604982085E-01 -0.86775107778E-01 -0.76226636192E-01  0.13102100536E+00  0.19787382999E-01 0.  0.
         14    1    1    2    0    0 -0.50823746048E-02  0.11381661525E-01 -0.19245339084E-01  0.22929366043E-01  0.00000000000E+00 0. -1.
     999901    1    3    3    0    0 -0.53522607480E-01  0.75393446252E-01  0.95471975276E-01  0.88997962859E+00  0.88000000000E+00 0.  1.
        -11    1    4    4    0    0  0.60960997901E-02 -0.27827106329E-02 -0.93016658448E-02  0.11475540057E-01  0.51100000000E-03 0. -1.
         11    1    4    4    0    0  0.52508882295E-01 -0.83992397145E-01 -0.66924970348E-01  0.11954546531E+00  0.51100000000E-03 0.  1.
</event>
<event>
 8    1  0.1094829E+005  0.1043930E+01  0.7957747E-01            NaN
         13   -1    0    0    0    0  0.00000000000E+00  0.00000000000E+00  0.74505805969E-08  0.10566000000E+00  0.10566000000E+00 0. -1.
     999900   -1    0    0    0    0 -0.00000000000E+00 -0.00000000000E+00 -0.74505805969E-08  0.93827000000E+00  0.93827000000E+00 0. -1.
     999902    2    1    2    0    0  0.82094655350E-02 -0.10177937724E-01  0.22426504815E-01  0.10179697639E+01  0.10176386914E+01 0.  0.
     999903    2    3    3    0    0 -0.66639926698E-01  0.92325640686E-02  0.10979125184E+00  0.13026947769E+00  0.19745829100E-01 0.  0.
         14    1    1    2    0    0 -0.82094655350E-02  0.10177937724E-01 -0.22426504815E-01  0.25960236110E-01  0.00000000000E+00 0.  1.
     999901    1    3    3    0    0  0.74849392233E-01 -0.19410501793E-01 -0.87364747028E-01  0.88770028620E+00  0.88000000000E+00 0. -1.
        -11    1    4    4    0    0 -0.37321118710E-01  0.73185097127E-02  0.43664748030E-01  0.57907666398E-01  0.51100000000E-03 0.  1.
         11    1    4    4    0    0 -0.29318807988E-01  0.19140543560E-02  0.66126503812E-01  0.72361811291E-01  0.51100000000E-03 0. -1.
</event>
<event>
 8    1  0.1094829E+005  0.1043930E+01  0.7957747E-01            NaN
         13   -1    0    0    0    0  0.00000000000E+00  0.00000000000E+00  0.74505805969E-08  0.10566000000E+00  0.10566000000E+00 0.  1.
     999900   -1    0    0    0    0 -0.00000000000E+00 -0.00000000000E+00 -0.74505805969E-08  0.93827000000E+00  0.93827000000E+00 0. -1.
     999902    2    1    2    0    0  0.25583942751E-02 -0.81865763556E-02  0.22302593430E-01  0.10200349987E+01  0.10197550821E+01 0.  0.
     999903    2    3    3    0    0 -0.59437400070E-01 -0.11245200218E+00 -0.22101411406E-01  0.13060457804E+00  0.19769322128E-01 0.  0.
         14    1    1    2    0    0 -0.25583942751E-02  0.81865763556E-02 -0.22302593430E-01  0.23895001305E-01  0.00000000000E+00 0. -1.
     999901    1    3    3    0    0  0.61995794345E-01  0.10426542583E+00  0.44404004836E-01  0.88943042065E+00  0.88000000000E+00 0.  1.
        -11    1    4    4    0    0 -0.21149147088E-01 -0.33244002989E-01  0.17738144485E-02  0.39444362030E-01  0.51100000000E-03 0.  1.
         11    1    4    4    0    0 -0.38288252982E-01 -0.79207999192E-01 -0.23875225854E-01  0.91160216010E-01  0.51100000000E-03 0. -1.
</event>
<event>
 8    1  0.1094829E+005  0.1043930E+01  0.7957747E-01            NaN
         13   -1    0    0    0    0  0.00000000000E+00  0.00000000000E+00  0.74505805969E-08  0.10566000000E+00  0.10566000000E+00 0. -1.
     999900   -1    0    0    0    0 -0.00000000000E+00 -0.00000000000E+00 -0.74505805969E-08  0.93827000000E+00  0.93827000000E+00 0. -1.
     999902    2    1    2    0    0 -0.12833731303E-01 -0.33449085346E-03 -0.45858868439E-02  0.10302974323E+01  0.10302072375E+01 0.  0.
     999903    2    3    3    0    0 -0.21407990162E-01 -0.51147862935E-01 -0.12725410908E+00  0.14029574163E+00  0.20368625728E-01 0.  0.
         14    1    1    2    0    0  0.12833731303E-01  0.33449085346E-03  0.45858868439E-02  0.13632567676E-01  0.00000000000E+00 0.  1.
     999901    1    3    3    0    0  0.85742588594E-02  0.50813372081E-01  0.12266822224E+00  0.89000169070E+00  0.88000000000E+00 0.  1.
        -11    1    4    4    0    0 -0.22514500059E-01 -0.33135640134E-01 -0.98597155348E-01  0.10642618815E+00  0.51100000000E-03 0. -1.
         11    1    4    4    0    0  0.11065098972E-02 -0.18012222800E-01 -0.28656953737E-01  0.33869553479E-01  0.51100000000E-03 0.  1.
</event>
<event>
 8    1  0.1094829E+005  0.1043930E+01  0.7957747E-01            NaN
         13   -1    0    0    0    0  0.00000000000E+00  0.00000000000E+00  0.74505805969E-08  0.10566000000E+00  0.10566000000E+00 0.  1.
     999900   -1    0    0    0    0 -0.00000000000E+00 -0.00000000000E+00 -0.74505805969E-08  0.93827000000E+00  0.93827000000E+00 0. -1.
     999902    2    1    2    0    0 -0.78576200734E-02  0.22053886506E-01 -0.67239382575E-02  0.10195716862E+01  0.10192806757E+01 0.  0.
     999903    2    3    3    0    0 -0.12170890514E+00  0.58246278717E-02  0.42754944326E-01  0.13071080637E+00  0.20256992805E-01 0.  0.
         14    1    1    2    0    0  0.78576200734E-02 -0.22053886506E-01  0.67239382575E-02  0.24358313754E-01  0.00000000000E+00 0.  1.
     999901    1    3    3    0    0  0.11385128507E+00  0.16229258634E-01 -0.49478882584E-01  0.88886087987E+00  0.88000000000E+00 0. -1.
        -11    1    4    4    0    0 -0.52757733785E-01  0.11339532807E-01  0.13654824851E-01  0.55665778007E-01  0.51100000000E-03 0.  1.
         11    1    4    4    0    0 -0.68951171357E-01 -0.55149049349E-02  0.29100119475E-01  0.75045028366E-01  0.51100000000E-03 0. -1.
</event>
<event>
 8    1  0.1094829E+005  0.1043930E+01  0.7957747E-01            NaN
         13   -1    0    0    0    0  0.00000000000E+00  0.00000000000E+00  0.74505805969E-08  0.10566000000E+00  0.10566000000E+00 0. -1.
     999900   -1    0    0    0    0 -0.00000000000E+00 -0.00000000000E+00 -0.74505805969E-08  0.93827000000E+00  0.93827000000E+00 0.  1.
     999902    2    1    2    0    0 -0.41164354585E-02  0.23226066264E-01  0.13838963802E-02  0.10203014079E+01  0.10200277705E+01 0.  0.
     999903    2    3    3    0    0 -0.11006660278E+00 -0.33298942788E-01 -0.57567567237E-01  0.13019142051E+00  0.20305283500E-01 0.  0.
         14    1    1    2    0    0  0.41164354585E-02 -0.23226066264E-01 -0.13838963802E-02  0.23628592090E-01  0.00000000000E+00 0.  1.
     999901    1    3    3    0    0  0.10595016732E+00  0.56525009052E-01  0.58951463617E-01  0.89010998740E+00  0.88000000000E+00 0. -1.
        -11    1    4    4    0    0 -0.86572101230E-01 -0.32495812428E-01 -0.51756232821E-01  0.10597016228E+00  0.51100000000E-03 0. -1.
         11    1    4    4    0    0 -0.23494501553E-01 -0.80313035970E-03 -0.58113344161E-02  0.24221258232E-01  0.51100000000E-03 0.  1.
</event>
<event>
 8    1  0.1094829E+005  0.1043930E+01  0.7957747E-01            NaN
         13   -1    0    0    0    0  0.00000000000E+00  0.00000000000E+00  0.74505805969E-08  0.10566000000E+00  0.10566000000E+00 0.  1.
     999900   -1    0    0    0    0 -0.00000000000E+00 -0.00000000000E+00 -0.74505805969E-08  0.93827000000E+00  0.93827000000E+00 0. -1.
     999902    2    1    2    0    0 -0.14443859578E-01 -0.11078251019E-01 -0.14252465881E-01  0.10208110574E+01  0.10205492292E+01 0.  0.
     999903    2    3    3    0    0 -0.12884555052E+00 -0.19678288239E-01  0.15995000432E-01  0.13284899919E+00  0.20114811195E-01 0.  0.
         14    1    1    2    0    0  0.14443859578E-01  0.11078251019E-01  0.14252465881E-01  0.23118942641E-01  0.00000000000E+00 0.  1.
     999901    1    3    3    0    0  0.11440169094E+00  0.86000372197E-02 -0.30247466312E-01  0.88796205817E+00  0.88000000000E+00 0.  1.
        -11    1    4    4    0    0 -0.18062760075E-01 -0.68858926793E-02  0.83617739823E-02  0.21067966315E-01  0.51100000000E-03 0. -1.
         11    1    4    4    0    0 -0.11078279045E+00 -0.12792395560E-01  0.76332264492E-02  0.11178103287E+00  0.51100000000E-03 0.  1.
</event>
<event>
 8    1  0.1094829E+005  0.1043930E+01  0.7957747E-01            NaN
         13   -1    0    0    0    0  0.00000000000E+00  0.00000000000E+00  0.74505805969E-08  0.10566000000E+00  0.10566000000E+00 0.  1.
     999900   -1    0    0    0    0 -0.00000000000E+00 -0.00000000000E+00 -0.74505805969E-08  0.93827000000E+00  0.93827000000E+00 0. -1.
     999902    2    1    2    0    0 -0.21730216546E-01  0.10130116854E-01 -0.78977228494E-02  0.10186872663E+01  0.10183744650E+01 0.  0.
     999903    2    3    3    0    0  0.11177486025E+00  0.53640494970E-02 -0.56702376159E-01  0.12726805228E+00  0.21438406190E-01 0.  0.
         14    1    1    2    0    0  0.21730216546E-01 -0.10130116854E-01  0.78977228494E-02  0.25242733703E-01  0.00000000000E+00 0.  1.
     999901    1    3    3    0    0 -0.13350507679E+00  0.47660673574E-02  0.48804653309E-01  0.89141921401E+00  0.88000000000E+00 0.  1.
        -11    1    4    4    0    0  0.43876745934E-01  0.89342436474E-02 -0.31519010565E-01  0.54760375193E-01  0.51100000000E-03 0. -1.
         11    1    4    4    0    0  0.67898114312E-01 -0.35701941504E-02 -0.25183365594E-01  0.72507677091E-01  0.51100000000E-03 0.  1.
</event>
<event>
 8    1  0.1094829E+005  0.1043930E+01  0.7957747E-01            NaN
         13   -1    0    0    0    0  0.00000000000E+00  0.00000000000E+00  0.74505805969E-08  0.10566000000E+00  0.10566000000E+00 0. -1.
     999900   -1    0    0    0    0 -0.00000000000E+00 -0.00000000000E+00 -0.74505805969E-08  0.93827000000E+00  0.93827000000E+00 0. -1.
     999902    2    1    2    0    0 -0.21111802996E-01 -0.11156830968E-01  0.35563227537E-02  0.10197881166E+01  0.10195023159E+01 0.  0.
     999903    2    3    3    0    0 -0.90173168532E-01  0.69956174237E-01  0.61460121745E-01  0.13147418461E+00  0.21978353345E-01 0.  0.
         14    1    1    2    0    0  0.21111802996E-01  0.11156830968E-01 -0.35563227537E-02  0.24141883408E-01  0.00000000000E+00 0. -1.
     999901    1    3    3    0    0  0.69061365536E-01 -0.81113005205E-01 -0.57903798991E-01  0.88831393199E+00  0.88000000000E+00 0.  1.
        -11    1    4    4    0    0 -0.24398028702E-01  0.29524506898E-01  0.27344226203E-01  0.47063023062E-01  0.51100000000E-03 0. -1.
         11    1    4    4    0    0 -0.65775139830E-01  0.40431667340E-01  0.34115895542E-01  0.84411161543E-01  0.51100000000E-03 0.  1.
</event>
<event>
 8    1  0.1094829E+005  0.1043930E+01  0.7957747E-01            NaN
         13   -1    0    0    0    0  0.00000000000E+00  0.00000000000E+00  0.74505805969E-08  0.10566000000E+00  0.10566000000E+00 0.  1.
     999900   -1    0    0    0    0 -0.00000000000E+00 -0.00000000000E+00 -0.74505805969E-08  0.93827000000E+00  0.93827000000E+00 0.  1.
     999902    2    1    2    0    0 -0.68354219188E-02  0.43556561789E-02 -0.22494910917E-01  0.10200194218E+01  0.10197391358E+01 0.  0.
     999903    2    3    3    0    0  0.12341875695E+00  0.33182507143E-01  0.57093716778E-02  0.12951809107E+00  0.20225494795E-01 0.  0.
         14    1    1    2    0    0  0.68354219188E-02 -0.43556561789E-02  0.22494910917E-01  0.23910578218E-01  0.00000000000E+00 0.  1.
     999901    1    3    3    0    0 -0.13025417887E+00 -0.28826850964E-01 -0.28204282595E-01  0.89050133072E+00  0.88000000000E+00 0. -1.
        -11    1    4    4    0    0  0.10044057049E+00  0.21385709629E-01  0.10550592598E-01  0.10323387478E+00  0.51100000000E-03 0.  1.
         11    1    4    4    0    0  0.22978186462E-01  0.11796797514E-01 -0.48412209197E-02  0.26284216284E-01  0.51100000000E-03 0. -1.
</event>
<event>
 8    1  0.1094829E+005  0.1043930E+01  0.7957747E-01            NaN
         13   -1    0    0    0    0  0.00000000000E+00  0.00000000000E+00  0.74505805969E-08  0.10566000000E+00  0.10566000000E+00 0. -1.
     999900   -1    0    0    0    0 -0.00000000000E+00 -0.00000000000E+00 -0.74505805969E-08  0.93827000000E+00  0.93827000000E+00 0.  1.
     999902    2    1    2    0    0 -0.94713029612E-03 -0.19479506399E-01 -0.16341927269E-01  0.10184858099E+01  0.10181679322E+01 0.  0.
     999903    2    3    3    0    0  0.28090498732E-01  0.10769242065E+00 -0.60319383212E-01  0.12778389588E+00  0.17423044203E-01 0.  0.
         14    1    1    2    0    0  0.94713029612E-03  0.19479506399E-01  0.16341927269E-01  0.25444190147E-01  0.00000000000E+00 0.  1.
     999901    1    3    3    0    0 -0.29037629028E-01 -0.12717192705E+00  0.43977455943E-01  0.89070191398E+00  0.88000000000E+00 0. -1.
        -11    1    4    4    0    0  0.54362304168E-02  0.37876809268E-01 -0.28833498072E-01  0.47914893442E-01  0.51100000000E-03 0.  1.
         11    1    4    4    0    0  0.22654268315E-01  0.69815611385E-01 -0.31485885140E-01  0.79869002435E-01  0.51100000000E-03 0. -1.
</event>
<event>
 8    1  0.1403905E+005  0.1043930E+01  0.7957747E-01            NaN
         13   -1    0    0    0    0  0.00000000000E+00  0.00000000000E+00  0.74505805969E-08  0.10566000000E+00  0.10566000000E+00 0.  1.
     999900   -1    0    0    0    0 -0.00000000000E+00 -0.00000000000E+00 -0.74505805969E-08  0.93827000000E+00  0.93827000000E+00 0.  1.
     999902    2    1    2    0    0  0.45524012736E-02  0.33470102177E-02  0.23330478091E-01  0.10199250413E+01  0.10196425118E+01 0.  0.
     999903    2    3    3    0    0 -0.44469658415E-02 -0.21466731904E-01 -0.12386943992E+00  0.12730836753E+00  0.19575142762E-01 0.  0.
         14    1    1    2    0    0 -0.45524012736E-02 -0.33470102177E-02 -0.23330478091E-01  0.24004958711E-01  0.00000000000E+00 0. -1.
     999901    1    3    3    0    0  0.89993671150E-02  0.24813742122E-01  0.14719991801E+00  0.89261667376E+00  0.88000000000E+00 0. -1.
        -11    1    4    4    0    0 -0.10885166849E-01 -0.19411484753E-01 -0.85829753740E-01  0.88669613430E-01  0.51100000000E-03 0.  1.
         11    1    4    4    0    0  0.64382010073E-02 -0.20552471511E-02 -0.38039686179E-01  0.38638754103E-01  0.51100000000E-03 0. -1.
</event>
<event>
 8    1  0.1094829E+005  0.1043930E+01  0.7957747E-01            NaN
         13   -1    0    0    0    0  0.00000000000E+00  0.00000000000E+00  0.74505805969E-08  0.10566000000E+00  0.10566000000E+00 0.  1.
     999900   -1    0    0    0    0 -0.00000000000E+00 -0.00000000000E+00 -0.74505805969E-08  0.93827000000E+00  0.93827000000E+00 0. -1.
     999902    2    1    2    0    0  0.37975518498E-02  0.21368427709E-01  0.95505362067E-02  0.10202183184E+01  0.10199427304E+01 0.  0.
     999903    2    3    3    0    0 -0.68959221285E-01  0.51778352508E-01 -0.95705472767E-01  0.13044467359E+00  0.20491543654E-01 0.  0.
         14    1    1    2    0    0 -0.37975518498E-02 -0.21368427709E-01 -0.95505362067E-02  0.23711681607E-01  0.00000000000E+00 0.  1.
     999901    1    3    3    0    0  0.72756773135E-01 -0.30409924799E-01  0.10525600897E+00  0.88977364480E+00  0.88000000000E+00 0.  1.
        -11    1    4    4    0    0 -0.51200574096E-02  0.54324747452E-02 -0.18960954326E-01  0.20383956429E-01  0.51100000000E-03 0.  1.
         11    1    4    4    0    0 -0.63839163875E-01  0.46345877763E-01 -0.76744518441E-01  0.11006071716E+00  0.51100000000E-03 0. -1.
</event>
<event>
 8    1  0.1094829E+005  0.1043930E+01  0.7957747E-01            NaN
         13   -1    0    0    0    0  0.00000000000E+00  0.00000000000E+00  0.74505805969E-08  0.10566000000E+00  0.10566000000E+00 0.  1.
     999900   -1    0    0    0    0 -0.00000000000E+00 -0.00000000000E+00 -0.74505805969E-08  0.93827000000E+00  0.93827000000E+00 0. -1.
     999902    2    1    2    0    0 -0.22256464650E-01 -0.11178586055E-02  0.74144010972E-02  0.10204444050E+01  0.10201741080E+01 0.  0.
     999903    2    3    3    0    0  0.11386148687E+00 -0.33227474031E-01  0.45289596502E-01  0.12859595685E+00  0.20427171683E-01 0.  0.
         14    1    1    2    0    0  0.22256464650E-01  0.11178586055E-02 -0.74144010972E-02  0.23485594951E-01  0.00000000000E+00 0.  1.
     999901    1    3    3    0    0 -0.13611795152E+00  0.32109615425E-01 -0.37875195405E-01  0.89184844820E+00  0.88000000000E+00 0. -1.
        -11    1    4    4    0    0  0.72616745890E-01 -0.26035827003E-01  0.38361899617E-01  0.86156558280E-01  0.51100000000E-03 0. -1.
         11    1    4    4    0    0  0.41244740983E-01 -0.71916470276E-02  0.69276968856E-02  0.42439398569E-01  0.51100000000E-03 0.  1.
</event>
<event>
 8    1  0.1094829E+005  0.1043930E+01  0.7957747E-01            NaN
         13   -1    0    0    0    0  0.00000000000E+00  0.00000000000E+00  0.74505805969E-08  0.10566000000E+00  0.10566000000E+00 0. -1.
     999900   -1    0    0    0    0 -0.00000000000E+00 -0.00000000000E+00 -0.74505805969E-08  0.93827000000E+00  0.93827000000E+00 0.  1.
     999902    2    1    2    0    0  0.19495334687E-01  0.50554895478E-02  0.83693490603E-02  0.10221200928E+01  0.10218873774E+01 0.  0.
     999903    2    3    3    0    0  0.62856408522E-01 -0.87994964688E-01 -0.73946031416E-01  0.13233675308E+00  0.18733893078E-01 0.  0.
         14    1    1    2    0    0 -0.19495334687E-01 -0.50554895478E-02 -0.83693490603E-02  0.21809907217E-01  0.00000000000E+00 0.  1.
     999901    1    3    3    0    0 -0.43361073835E-01  0.93050454235E-01  0.82315380476E-01  0.88978333971E+00  0.88000000000E+00 0. -1.
        -11    1    4    4    0    0  0.23637088854E-01 -0.46836447593E-01 -0.29655367940E-01  0.60266630579E-01  0.51100000000E-03 0. -1.
         11    1    4    4    0    0  0.39219319668E-01 -0.41158517094E-01 -0.44290663476E-01  0.72070122497E-01  0.51100000000E-03 0.  1.
</event>
<event>
 8    1  0.1094829E+005  0.1043930E+01  0.7957747E-01            NaN
         13   -1    0    0    0    0  0.00000000000E+00  0.00000000000E+00  0.74505805969E-08  0.10566000000E+00  0.10566000000E+00 0.  1.
     999900   -1    0    0    0    0 -0.00000000000E+00 -0.00000000000E+00 -0.74505805969E-08  0.93827000000E+00  0.93827000000E+00 0.  1.
     999902    2    1    2    0    0 -0.20720615681E-01  0.17128279763E-02  0.56986403510E-02  0.10223718879E+01  0.10221445715E+01 0.  0.
     999903    2    3    3    0    0 -0.89289533217E-01 -0.83079478854E-01  0.54266011799E-01  0.13431208065E+00  0.14836253676E-01 0.  0.
         14    1    1    2    0    0  0.20720615681E-01 -0.17128279763E-02 -0.56986403510E-02  0.21558112063E-01  0.00000000000E+00 0. -1.
     999901    1    3    3    0    0  0.68568917536E-01  0.84792306830E-01 -0.48567371448E-01  0.88805980729E+00  0.88000000000E+00 0.  1.
        -11    1    4    4    0    0 -0.21153859876E-01 -0.15225949812E-01  0.17321995957E-01  0.31299009573E-01  0.51100000000E-03 0.  1.
         11    1    4    4    0    0 -0.68135673341E-01 -0.67853529042E-01  0.36944015842E-01  0.10301307108E+00  0.51100000000E-03 0. -1.
</event>
<event>
 8    1  0.1094829E+005  0.1043930E+01  0.7957747E-01            NaN
         13   -1    0    0    0    0  0.00000000000E+00  0.00000000000E+00  0.74505805969E-08  0.10566000000E+00  0.10566000000E+00 0.  1.
     999900   -1    0    0    0    0 -0.00000000000E+00 -0.00000000000E+00 -0.74505805969E-08  0.93827000000E+00  0.93827000000E+00 0.  1.
     999902    2    1    2    0    0  0.12408399629E-01 -0.99141577895E-03  0.19139689777E-01  0.10210984645E+01  0.10208431786E+01 0.  0.
     999903    2    3    3    0    0  0.10514561902E-01  0.11448780972E+00  0.62787872666E-01  0.13247919736E+00  0.19758699164E-01 0.  0.
         14    1    1    2    0    0 -0.12408399629E-01  0.99141577895E-03 -0.19139689777E-01  0.22831535457E-01  0.00000000000E+00 0. -1.
     999901    1    3    3    0    0  0.18938377268E-02 -0.11547922550E+00 -0.43648182890E-01  0.88861926718E+00  0.88000000000E+00 0.  1.
        -11    1    4    4    0    0 -0.16585953787E-02  0.63472093817E-01  0.41606863624E-01  0.75913436582E-01  0.51100000000E-03 0. -1.
         11    1    4    4    0    0  0.12173157281E-01  0.51015715901E-01  0.21181009043E-01  0.56565760776E-01  0.51100000000E-03 0.  1.
</event>
<event>
 8    1  0.1094829E+005  0.1043930E+01  0.7957747E-01            NaN
         13   -1    0    0    0    0  0.00000000000E+00  0.00000000000E+00  0.74505805969E-08  0.10566000000E+00  0.10566000000E+00 0.  1.
     999900   -1    0    0    0    0 -0.00000000000E+00 -0.00000000000E+00 -0.74505805969E-08  0.93827000000E+00  0.93827000000E+00 0.  1.
     999902    2    1    2    0    0 -0.14623127896E-01 -0.75682870304E-02 -0.17378611287E-01  0.10199898461E+01  0.10197088581E+01 0.  0.
     999903    2    3    3    0    0  0.88476651953E-01 -0.62793099652E-01 -0.70104992144E-01  0.13068707665E+00  0.19832064303E-01 0.  0.
         14    1    1    2    0    0  0.14623127896E-01  0.75682870304E-02  0.17378611287E-01  0.23940153890E-01  0.00000000000E+00 0.  1.
     999901    1    3    3    0    0 -0.10309977985E+00  0.55224812622E-01  0.52726380858E-01  0.88930276946E+00  0.88000000000E+00 0. -1.
        -11    1    4    4    0    0  0.77561002712E-01 -0.53847095115E-01 -0.68111856437E-01  0.11642467480E+00  0.51100000000E-03 0.  1.
         11    1    4    4    0    0  0.10915649241E-01 -0.89460045368E-02 -0.19931357078E-02  0.14262401848E-01  0.51100000000E-03 0. -1.
</event>
<event>
 8    1  0.1094829E+005  0.1043930E+01  0.7957747E-01            NaN
         13   -1    0    0    0    0  0.00000000000E+00  0.00000000000E+00  0.74505805969E-08  0.10566000000E+00  0.10566000000E+00 0.  1.
     999900   -1    0    0    0    0 -0.00000000000E+00 -0.00000000000E+00 -0.74505805969E-08  0.93827000000E+00  0.93827000000E+00 0. -1.
     999902    2    1    2    0    0  0.22445337275E-01  0.56735715474E-02 -0.27444161672E-02  0.10206166047E+01  0.10203503023E+01 0.  0.
     999903    2    3    3    0    0  0.42676652880E-01 -0.10556155802E+00 -0.62411153997E-01  0.13137947111E+00  0.20021839425E-01 0.  0.
         14    1    1    2    0    0 -0.22445337275E-01 -0.56735715474E-02  0.27444161672E-02  0.23313395282E-01  0.00000000000E+00 0. -1.
     999901    1    3    3    0    0 -0.20231315605E-01  0.11123512957E+00  0.59666737830E-01  0.88923713361E+00  0.88000000000E+00 0.  1.
        -11    1    4    4    0    0  0.14864746662E-02 -0.24927038217E-01 -0.15593848246E-01  0.29444796914E-01  0.51100000000E-03 0. -1.
         11    1    4    4    0    0  0.41190178214E-01 -0.80634519802E-01 -0.46817305751E-01  0.10193467420E+00  0.51100000000E-03 0.  1.
</event>
<event>
 8    1  0.1094829E+005  0.1043930E+01  0.7957747E-01            NaN
         13   -1    0    0    0    0  0.00000000000E+00  0.00000000000E+00  0.74505805969E-08  0.10566000000E+00  0.10566000000E+00 0. -1.
     999900   -1    0    0    0    0 -0.00000000000E+00 -0.00000000000E+00 -0.74505805969E-08  0.93827000000E+00  0.93827000000E+00 0. -1.
     999902    2    1    2    0    0 -0.15889522275E-01  0.43970547042E-03  0.17886793709E-01  0.10200007784E+01  0.10197200499E+01 0.  0.
     999903    2    3    3    0    0 -0.12685892206E+00 -0.30402249235E-02 -0.29771770901E-01  0.13174537794E+00  0.19184816645E-01 0.  0.
         14    1    1    2    0    0  0.15889522275E-01 -0.43970547042E-03 -0.17886793709E-01  0.23929221639E-01  0.00000000000E+00 0.  1.
     999901    1    3    3    0    0  0.11096939979E+00  0.34799303939E-02  0.47658564610E-01  0.88825540043E+00  0.88000000000E+00 0. -1.
        -11    1    4    4    0    0 -0.62603170797E-01  0.80749018900E-02 -0.14962085218E-01  0.64872846010E-01  0.51100000000E-03 0. -1.
         11    1    4    4    0    0 -0.64255751268E-01 -0.11115126813E-01 -0.14809685683E-01  0.66872531926E-01  0.51100000000E-03 0.  1.
</event>
<event>
 8    1  0.1094829E+005  0.1043930E+01  0.7957747E-01            NaN
         13   -1    0    0    0    0  0.00000000000E+00  0.00000000000E+00  0.74505805969E-08  0.10566000000E+00  0.10566000000E+00 0. -1.
     999900   -1    0    0    0    0 -0.00000000000E+00 -0.00000000000E+00 -0.74505805969E-08  0.93827000000E+00  0.93827000000E+00 0.  1.
     999902    2    1    2    0    0  0.13911850089E-02 -0.13692971818E-01 -0.20401847714E-01  0.10193196716E+01  0.10190225339E+01 0.  0.
     999903    2    3    3    0    0 -0.34308925705E-01  0.79441432872E-01 -0.95400835036E-01  0.13051521430E+00  0.21091661846E-01 0.  0.
         14    1    1    2    0    0 -0.13911850089E-02  0.13692971818E-01  0.20401847714E-01  0.24610328382E-01  0.00000000000E+00 0. -1.
     999901    1    3    3    0    0  0.35700110713E-01 -0.93134404690E-01  0.74998987323E-01  0.88880445731E+00  0.88000000000E+00 0. -1.
        -11    1    4    4    0    0 -0.11294658843E-01  0.47428317050E-01 -0.43550376994E-01  0.65375156091E-01  0.51100000000E-03 0.  1.
         11    1    4    4    0    0 -0.23014266862E-01  0.32013115822E-01 -0.51850458042E-01  0.65140058213E-01  0.51100000000E-03 0. -1.
</event>
<event>
 8    1  0.1094829E+005  0.1043930E+01  0.7957747E-01            NaN
         13   -1    0    0    0    0  0.00000000000E+00  0.00000000000E+00  0.74505805969E-08  0.10566000000E+00  0.10566000000E+00 0.  1.
     999900   -1    0    0    0    0 -0.00000000000E+00 -0.00000000000E+00 -0.74505805969E-08  0.93827000000E+00  0.93827000000E+00 0.  1.
     999902    2    1    2    0    0  0.57607326325E-02  0.12234593484E-01  0.19785335056E-01  0.10199648002E+01  0.10196832169E+01 0.  0.
     999903    2    3    3    0    0  0.66782017006E-01  0.54347008185E-01  0.99736803068E-01  0.13323525301E+00  0.19767844218E-01 0.  0.
         14    1    1    2    0    0 -0.57607326325E-02 -0.12234593484E-01 -0.19785335056E-01  0.23965199800E-01  0.00000000000E+00 0.  1.
     999901    1    3    3    0    0 -0.61021284373E-01 -0.42112414701E-01 -0.79951468012E-01  0.88672954719E+00  0.88000000000E+00 0.  1.
        -11    1    4    4    0    0  0.55639477770E-01  0.45718375441E-01  0.70520010294E-01  0.10079312631E+00  0.51100000000E-03 0. -1.
         11    1    4    4    0    0  0.11142539235E-01  0.86286327444E-02  0.29216792774E-01  0.32442126697E-01  0.51100000000E-03 0.  1.
</event>
<event>
 8    1  0.1094829E+005  0.1043930E+01  0.7957747E-01            NaN
         13   -1    0    0    0    0  0.00000000000E+00  0.00000000000E+00  0.74505805969E-08  0.10566000000E+00  0.10566000000E+00 0. -1.
     999900   -1    0    0    0    0 -0.00000000000E+00 -0.00000000000E+00 -0.74505805969E-08  0.93827000000E+00  0.93827000000E+00 0. -1.
     999902    2    1    2    0    0 -0.23867375357E-01 -0.21910019931E-02  0.95864472143E-03  0.10199431057E+01  0.10196610063E+01 0.  0.
     999903    2    3    3    0    0 -0.12667305957E+00  0.28791799987E-01 -0.18662749454E-01  0.13319965816E+00  0.22777597526E-01 0.  0.
         14    1    1    2    0    0  0.23867375357E-01  0.21910019931E-02 -0.95864472143E-03  0.23986894252E-01  0.00000000000E+00 0.  1.
     999901    1    3    3    0    0  0.10280568422E+00 -0.30982801980E-01  0.19621394175E-01  0.88674344759E+00  0.88000000000E+00 0. -1.
        -11    1    4    4    0    0 -0.94622800669E-01  0.11221709682E-01 -0.11935281625E-01  0.96031834529E-01  0.51100000000E-03 0.  1.
         11    1    4    4    0    0 -0.32050258905E-01  0.17570090306E-01 -0.67274678285E-02  0.37167823633E-01  0.51100000000E-03 0. -1.
</event>
<event>
 8    1  0.1094829E+005  0.1043930E+01  0.7957747E-01            NaN
         13   -1    0    0    0    0  0.00000000000E+00  0.00000000000E+00  0.74505805969E-08  0.10566000000E+00  0.10566000000E+00 0. -1.
     999900   -1    0    0    0    0 -0.00000000000E+00 -0.00000000000E+00 -0.74505805969E-08  0.93827000000E+00  0.93827000000E+00 0. -1.
     999902    2    1    2    0    0  0.17882006155E-01 -0.11931592435E-01 -0.11096645007E-01  0.10197377580E+01  0.10194507494E+01 0.  0.
     999903    2    3    3    0    0  0.98595498348E-02  0.76961294819E-01  0.10011352562E+00  0.12825920680E+00  0.20185502087E-01 0.  0.
         14    1    1    2    0    0 -0.17882006155E-01  0.11931592435E-01  0.11096645007E-01  0.24192241992E-01  0.00000000000E+00 0. -1.
     999901    1    3    3    0    0  0.80224563203E-02 -0.88892887254E-01 -0.11121017063E+00  0.89147855121E+00  0.88000000000E+00 0. -1.
        -11    1    4    4    0    0  0.76487158881E-02  0.10812173648E-01  0.23797445955E-01  0.27239410946E-01  0.51100000000E-03 0. -1.
         11    1    4    4    0    0  0.22108339467E-02  0.66149121171E-01  0.76316079664E-01  0.10101979586E+00  0.51100000000E-03 0.  1.
</event>
<event>
 8    1  0.1094829E+005  0.1043930E+01  0.7957747E-01            NaN
         13   -1    0    0    0    0  0.00000000000E+00  0.00000000000E+00  0.74505805969E-08  0.10566000000E+00  0.10566000000E+00 0. -1.
     999900   -1    0    0    0    0 -0.00000000000E+00 -0.00000000000E+00 -0.74505805969E-08  0.93827000000E+00  0.93827000000E+00 0.  1.
     999902    2    1    2    0    0 -0.78783670349E-02 -0.14414860517E-01 -0.16565816138E-01  0.10206001235E+01  0.10203334401E+01 0.  0.
     999903    2    3    3    0    0 -0.10558335625E+00 -0.32487913571E-01  0.67646555041E-01  0.13101335228E+00  0.19624790987E-01 0.  0.
         14    1    1    2    0    0  0.78783670349E-02  0.14414860517E-01  0.16565816138E-01  0.23329876450E-01  0.00000000000E+00 0. -1.
     999901    1    3    3    0    0  0.97704989212E-01  0.18073053054E-01 -0.84212371179E-01  0.88958677127E+00  0.88000000000E+00 0.  1.
        -11    1    4    4    0    0 -0.43442775126E-01 -0.22751227287E-01  0.34035291552E-01  0.59695521153E-01  0.51100000000E-03 0.  1.
         11    1    4    4    0    0 -0.62140581121E-01 -0.97366862838E-02  0.33611263490E-01  0.71317831124E-01  0.51100000000E-03 0. -1.
</event>
<event>
 8    1  0.1094829E+005  0.1043930E+01  0.7957747E-01            NaN
         13   -1    0    0    0    0  0.00000000000E+00  0.00000000000E+00  0.74505805969E-08  0.10566000000E+00  0.10566000000E+00 0.  1.
     999900   -1    0    0    0    0 -0.00000000000E+00 -0.00000000000E+00 -0.74505805969E-08  0.93827000000E+00  0.93827000000E+00 0.  1.
     999902    2    1    2    0    0  0.10051131968E-01 -0.19093722591E-01 -0.82437837470E-02  0.10208311804E+01  0.10205698131E+01 0.  0.
     999903    2    3    3    0    0  0.60169789588E-01 -0.41829328500E-02 -0.11649044698E+00  0.13265802634E+00  0.19754169410E-01 0.  0.
         14    1    1    2    0    0 -0.10051131968E-01  0.19093722591E-01  0.82437837470E-02  0.23098819595E-01  0.00000000000E+00 0.  1.
     999901    1    3    3    0    0 -0.50118657620E-01 -0.14910789741E-01  0.10824666324E+00  0.88817315406E+00  0.88000000000E+00 0. -1.
        -11    1    4    4    0    0  0.41563941253E-01  0.63963206696E-02 -0.77674327763E-01  0.88329137011E-01  0.51100000000E-03 0. -1.
         11    1    4    4    0    0  0.18605848335E-01 -0.10579253520E-01 -0.38816119220E-01  0.44328889334E-01  0.51100000000E-03 0.  1.
</event>
<event>
 8    1  0.1094829E+005  0.1043930E+01  0.7957747E-01            NaN
         13   -1    0    0    0    0  0.00000000000E+00  0.00000000000E+00  0.74505805969E-08  0.10566000000E+00  0.10566000000E+00 0. -1.
     999900   -1    0    0    0    0 -0.00000000000E+00 -0.00000000000E+00 -0.74505805969E-08  0.93827000000E+00  0.93827000000E+00 0.  1.
     999902    2    1    2    0    0 -0.19213982834E-01  0.34124936884E-02  0.42699712654E-02  0.10239536414E+01  0.10237587630E+01 0.  0.
     999903    2    3    3    0    0  0.18207659823E-01 -0.63332940621E-01 -0.11347099524E+00  0.13282050455E+00  0.20567922258E-01 0.  0.
         14    1    1    2    0    0  0.19213982834E-01 -0.34124936884E-02 -0.42699712654E-02  0.19976358630E-01  0.00000000000E+00 0. -1.
     999901    1    3    3    0    0 -0.37421642657E-01  0.66745434309E-01  0.11774096650E+00  0.89113313682E+00  0.88000000000E+00 0. -1.
        -11    1    4    4    0    0  0.54255764695E-02 -0.20222299674E-01 -0.56392248273E-01  0.60155839870E-01  0.51100000000E-03 0. -1.
         11    1    4    4    0    0  0.12782083354E-01 -0.43110640947E-01 -0.57078746963E-01  0.72664664683E-01  0.51100000000E-03 0.  1.
</event>
<event>
 8    1  0.1094829E+005  0.1043930E+01  0.7957747E-01            NaN
         13   -1    0    0    0    0  0.00000000000E+00  0.00000000000E+00  0.74505805969E-08  0.10566000000E+00  0.10566000000E+00 0. -1.
     999900   -1    0    0    0    0 -0.00000000000E+00 -0.00000000000E+00 -0.74505805969E-08  0.93827000000E+00  0.93827000000E+00 0. -1.
     999902    2    1    2    0    0  0.19836215571E-04  0.19145675224E-02  0.22391761284E-01  0.10214565282E+01  0.10212092744E+01 0.  0.
     999903    2    3    3    0    0 -0.58717450830E-01  0.83301319797E-01 -0.78222641963E-01  0.13005474981E+00  0.20214037726E-01 0.  0.
         14    1    1    2    0    0 -0.19836215571E-04 -0.19145675224E-02 -0.22391761284E-01  0.22473471820E-01  0.00000000000E+00 0.  1.
     999901    1    3    3    0    0  0.58737287046E-01 -0.81386752275E-01  0.10061440325E+00  0.89140177837E+00  0.88000000000E+00 0.  1.
        -11    1    4    4    0    0 -0.37548607402E-01  0.62983079109E-01 -0.46446152051E-01  0.86800186251E-01  0.51100000000E-03 0.  1.
         11    1    4    4    0    0 -0.21168843428E-01  0.20318240688E-01 -0.31776489913E-01  0.43254563561E-01  0.51100000000E-03 0. -1.
</event>
<event>
 8    1  0.1094829E+005  0.1043930E+01  0.7957747E-01            NaN
         13   -1    0    0    0    0  0.00000000000E+00  0.00000000000E+00  0.74505805969E-08  0.10566000000E+00  0.10566000000E+00 0. -1.
     999900   -1    0    0    0    0 -0.00000000000E+00 -0.00000000000E+00 -0.74505805969E-08  0.93827000000E+00  0.93827000000E+00 0.  1.
     999902    2    1    2    0    0  0.15425205221E-01 -0.13730530589E-01  0.10322120954E-01  0.10208429775E+01  0.10205818802E+01 0.  0.
     999903    2    3    3    0    0 -0.27266636011E-01 -0.21338336939E-01 -0.12325811483E+00  0.12970653935E+00  0.20794937261E-01 0.  0.
         14    1    1    2    0    0 -0.15425205221E-01  0.13730530589E-01 -0.10322120954E-01  0.23087022488E-01  0.00000000000E+00 0.  1.
     999901    1    3    3    0    0  0.42691841233E-01  0.76078063504E-02  0.13358023579E+00  0.89113643816E+00  0.88000000000E+00 0. -1.
        -11    1    4    4    0    0 -0.30447675766E-01 -0.20545891493E-01 -0.11688259794E+00  0.12251937577E+00  0.51100000000E-03 0.  1.
         11    1    4    4    0    0  0.31810397543E-02 -0.79244544674E-03 -0.63755168935E-02  0.71871635826E-02  0.51100000000E-03 0. -1.
</event>
<event>
 8    1  0.1094829E+005  0.1043930E+01  0.7957747E-01            NaN
         13   -1    0    0    0    0  0.00000000000E+00  0.00000000000E+00  0.74505805969E-08  0.10566000000E+00  0.10566000000E+00 0.  1.
     999900   -1    0    0    0    0 -0.00000000000E+00 -0.00000000000E+00 -0.74505805969E-08  0.93827000000E+00  0.93827000000E+00 0. -1.
     999902    2    1    2    0    0 -0.14609814373E-01 -0.13598919975E-01 -0.11841322898E-01  0.10207223670E+01  0.10204585030E+01 0.  0.
     999903    2    3    3    0    0 -0.35207104641E-03  0.12139407750E+00 -0.41568607688E-01  0.12981827338E+00  0.19702511323E-01 0.  0.
         14    1    1    2    0    0  0.14609814373E-01  0.13598919975E-01  0.11841322898E-01  0.23207632978E-01  0.00000000000E+00 0.  1.
     999901    1    3    3    0    0 -0.14257743326E-01 -0.13499299747E+00  0.29727284790E-01  0.89090409364E+00  0.88000000000E+00 0. -1.
        -11    1    4    4    0    0 -0.83449400266E-02  0.89909147420E-01 -0.27285652739E-01  0.94329532916E-01  0.51100000000E-03 0. -1.
         11    1    4    4    0    0  0.79928689802E-02  0.31484930076E-01 -0.14282954949E-01  0.35488740461E-01  0.51100000000E-03 0.  1.
</event>
<event>
 8    1  0.1094829E+005  0.1043930E+01  0.7957747E-01            NaN
         13   -1    0    0    0    0  0.00000000000E+00  0.00000000000E+00  0.74505805969E-08  0.10566000000E+00  0.10566000000E+00 0. -1.
     999900   -1    0    0    0    0 -0.00000000000E+00 -0.00000000000E+00 -0.74505805969E-08  0.93827000000E+00  0.93827000000E+00 0. -1.
     999902    2    1    2    0    0  0.67342867578E-02  0.39552652584E-02  0.23019100136E-01  0.10196221060E+01  0.10193323135E+01 0.  0.
     999903    2    3    3    0    0  0.86351490499E-01 -0.92288893264E-01 -0.21909305726E-01  0.12966682684E+00  0.18964402836E-01 0.  0.
         14    1    1    2    0    0 -0.67342867578E-02 -0.39552652584E-02 -0.23019100136E-01  0.24307894036E-01  0.00000000000E+00 0.  1.
     999901    1    3    3    0    0 -0.79617203741E-01  0.96244158523E-01  0.44928405862E-01  0.88995527912E+00  0.88000000000E+00 0.  1.
        -11    1    4    4    0    0  0.50644857980E-01 -0.49302131340E-01 -0.32745482675E-02  0.70757229891E-01  0.51100000000E-03 0. -1.
         11    1    4    4    0    0  0.35706632519E-01 -0.42986761925E-01 -0.18634757459E-01  0.58909596953E-01  0.51100000000E-03 0.  1.
</event>
<event>
 8    1  0.1094829E+005  0.1043930E+01  0.7957747E-01            NaN
         13   -1    0    0    0    0  0.00000000000E+00  0.00000000000E+00  0.74505805969E-08  0.10566000000E+00  0.10566000000E+00 0.  1.
     999900   -1    0    0    0    0 -0.00000000000E+00 -0.00000000000E+00 -0.74505805969E-08  0.93827000000E+00  0.93827000000E+00 0. -1.
     999902    2    1    2    0    0  0.17145770523E-01  0.91424730043E-02 -0.11738356512E-01  0.10212286504E+01  0.10209763000E+01 0.  0.
     999903    2    3    3    0    0 -0.31554319400E-01  0.22205486573E-01  0.12212555631E+00  0.12967837800E+00  0.20324160775E-01 0.  0.
         14    1    1    2    0    0 -0.17145770523E-01 -0.91424730043E-02  0.11738356512E-01  0.22701349587E-01  0.00000000000E+00 0. -1.
     999901    1    3    3    0    0  0.48700089922E-01 -0.13063013568E-01 -0.13386391282E+00  0.89155027241E+00  0.88000000000E+00 0. -1.
        -11    1    4    4    0    0 -0.85099503496E-02  0.17511592445E-01  0.66239073400E-01  0.69043110379E-01  0.51100000000E-03 0. -1.
         11    1    4    4    0    0 -0.23044369050E-01  0.46938941280E-02  0.55886482906E-01  0.60635267622E-01  0.51100000000E-03 0.  1.
</event>
<event>
 8    1  0.1094829E+005  0.1043930E+01  0.7957747E-01            NaN
         13   -1    0    0    0    0  0.00000000000E+00  0.00000000000E+00  0.74505805969E-08  0.10566000000E+00  0.10566000000E+00 0.  1.
     999900   -1    0    0    0    0 -0.00000000000E+00 -0.00000000000E+00 -0.74505805969E-08  0.93827000000E+00  0.93827000000E+00 0. -1.
     999902    2    1    2    0    0 -0.22620945715E-01 -0.54159057070E-02  0.28585873667E-02  0.10204947543E+01  0.10202256284E+01 0.  0.
     999903    2    3    3    0    0  0.39659880071E-01 -0.19236156060E-01 -0.11866328699E+00  0.12985595740E+00  0.28959596085E-01 0.  0.
         14    1    1    2    0    0  0.22620945715E-01  0.54159057070E-02 -0.28585873667E-02  0.23435245709E-01  0.00000000000E+00 0.  1.
     999901    1    3    3    0    0 -0.62280825786E-01  0.13820250353E-01  0.12152187436E+00  0.89063879689E+00  0.88000000000E+00 0.  1.
        -11    1    4    4    0    0  0.39667163574E-01 -0.15466438853E-01 -0.76744281896E-01  0.87764688352E-01  0.51100000000E-03 0.  1.
         11    1    4    4    0    0 -0.72835029540E-05 -0.37697172069E-02 -0.41919005096E-01  0.42091269048E-01  0.51100000000E-03 0. -1.
</event>
<event>
 8    1  0.1094829E+005  0.1043930E+01  0.7957747E-01            NaN
         13   -1    0    0    0    0  0.00000000000E+00  0.00000000000E+00  0.74505805969E-08  0.10566000000E+00  0.10566000000E+00 0. -1.
     999900   -1    0    0    0    0 -0.00000000000E+00 -0.00000000000E+00 -0.74505805969E-08  0.93827000000E+00  0.93827000000E+00 0. -1.
     999902    2    1    2    0    0  0.10151570016E-01 -0.21387797059E-01 -0.28522466156E-02  0.10200840874E+01  0.10198053333E+01 0.  0.
     999903    2    3    3    0    0 -0.82363706248E-01 -0.10057239808E+00 -0.66683252865E-02  0.13169012083E+00  0.19980840858E-01 0.  0.
         14    1    1    2    0    0 -0.10151570016E-01  0.21387797059E-01  0.28522466156E-02  0.23845912597E-01  0.00000000000E+00 0. -1.
     999901    1    3    3    0    0  0.92515276264E-01  0.79184601016E-01  0.38160786709E-02  0.88839396657E+00  0.88000000000E+00 0. -1.
        -11    1    4    4    0    0 -0.63282320419E-01 -0.78583900686E-01 -0.13457433658E-01  0.10179118413E+00  0.51100000000E-03 0. -1.
         11    1    4    4    0    0 -0.19081385829E-01 -0.21988497390E-01  0.67891083710E-02  0.29898936705E-01  0.51100000000E-03 0.  1.
</event>
<event>
 8    1  0.1094829E+005  0.1043930E+01  0.7957747E-01            NaN
         13   -1    0    0    0    0  0.00000000000E+00  0.00000000000E+00  0.74505805969E-08  0.10566000000E+00  0.10566000000E+00 0.  1.
     999900   -1    0    0    0    0 -0.00000000000E+00 -0.00000000000E+00 -0.74505805969E-08  0.93827000000E+00  0.93827000000E+00 0. -1.
     999902    2    1    2    0    0  0.17554413359E-01 -0.77346138272E-02 -0.13820864562E-01  0.10202868620E+01  0.10200128836E+01 0.  0.
     999903    2    3    3    0    0  0.11675490616E+00 -0.20498709901E-01  0.54433623512E-01  0.13199505457E+00  0.20193311800E-01 0.  0.
         14    1    1    2    0    0 -0.17554413359E-01  0.77346138272E-02  0.13820864562E-01  0.23643138046E-01  0.00000000000E+00 0.  1.
     999901    1    3    3    0    0 -0.99200492805E-01  0.12764096074E-01 -0.68254488075E-01  0.88829180738E+00  0.88000000000E+00 0. -1.
        -11    1    4    4    0    0  0.31426763432E-01 -0.19551970867E-02  0.23735913082E-01  0.39434996466E-01  0.51100000000E-03 0.  1.
         11    1    4    4    0    0  0.85328142732E-01 -0.18543512815E-01  0.30697710430E-01  0.92560058105E-01  0.51100000000E-03 0. -1.
</event>
<event>
 8    1  0.1094829E+005  0.1043930E+01  0.7957747E-01            NaN
         13   -1    0    0    0    0  0.00000000000E+00  0.00000000000E+00  0.74505805969E-08  0.10566000000E+00  0.10566000000E+00 0.  1.
     999900   -1    0    0    0    0 -0.00000000000E+00 -0.00000000000E+00 -0.74505805969E-08  0.93827000000E+00  0.93827000000E+00 0. -1.
     999902    2    1    2    0    0  0.18301165492E-01 -0.92925939943E-02 -0.12147330642E-01  0.10200795786E+01  0.10198007178E+01 0.  0.
     999903    2    3    3    0    0 -0.11558352428E+00  0.20159883258E-01 -0.48081810004E-01  0.12874134568E+00  0.22282317136E-01 0.  0.
         14    1    1    2    0    0 -0.18301165492E-01  0.92925939943E-02  0.12147330642E-01  0.23850421448E-01  0.00000000000E+00 0.  1.
     999901    1    3    3    0    0  0.13388468977E+00 -0.29452477253E-01  0.35934479363E-01  0.89133823287E+00  0.88000000000E+00 0. -1.
        -11    1    4    4    0    0 -0.83790191262E-01  0.24011570528E-01 -0.31565036886E-01  0.92703637175E-01  0.51100000000E-03 0.  1.
         11    1    4    4    0    0 -0.31793333016E-01 -0.38516872695E-02 -0.16516773119E-01  0.36037708506E-01  0.51100000000E-03 0. -1.
</event>
<event>
 8    1  0.1094829E+005  0.1043930E+01  0.7957747E-01            NaN
         13   -1    0    0    0    0  0.00000000000E+00  0.00000000000E+00  0.74505805969E-08  0.10566000000E+00  0.10566000000E+00 0. -1.
     999900   -1    0    0    0    0 -0.00000000000E+00 -0.00000000000E+00 -0.74505805969E-08  0.93827000000E+00  0.93827000000E+00 0.  1.
     999902    2    1    2    0    0 -0.87000878366E-02 -0.19092889905E-01 -0.12484826725E-01  0.10195148229E+01  0.10192224356E+01 0.  0.
     999903    2    3    3    0    0  0.62432048479E-01 -0.38319692204E-01  0.10396307653E+00  0.12879064288E+00  0.20311300409E-01 0.  0.
         14    1    1    2    0    0  0.87000878366E-02  0.19092889905E-01  0.12484826725E-01  0.24415177076E-01  0.00000000000E+00 0. -1.
     999901    1    3    3    0    0 -0.71132136315E-01  0.19226802299E-01 -0.11644790325E+00  0.89072418004E+00  0.88000000000E+00 0.  1.
        -11    1    4    4    0    0  0.34709912258E-01 -0.30698083017E-01  0.73589936707E-01  0.86964879206E-01  0.51100000000E-03 0.  1.
         11    1    4    4    0    0  0.27722136221E-01 -0.76216091867E-02  0.30373139822E-01  0.41825763673E-01  0.51100000000E-03 0. -1.
</event>
<event>
 8    1  0.1094829E+005  0.1043930E+01  0.7957747E-01            NaN
         13   -1    0    0    0    0  0.00000000000E+00  0.00000000000E+00  0.74505805969E-08  0.10566000000E+00  0.10566000000E+00 0.  1.
     999900   -1    0    0    0    0 -0.00000000000E+00 -0.00000000000E+00 -0.74505805969E-08  0.93827000000E+00  0.93827000000E+00 0.  1.
     999902    2    1    2    0    0 -0.18274954919E-01  0.54146769955E-02  0.14219792816E-01  0.10201498568E+01  0.10198726563E+01 0.  0.
     999903    2    3    3    0    0 -0.82742842892E-01 -0.97708994276E-02 -0.98532306476E-01  0.13048714191E+00  0.19401810743E-01 0.  0.
         14    1    1    2    0    0  0.18274954919E-01 -0.54146769955E-02 -0.14219792816E-01  0.23780143229E-01  0.00000000000E+00 0.  1.
     999901    1    3    3    0    0  0.64467887972E-01  0.15185576423E-01  0.11275209929E+00  0.88966271486E+00  0.88000000000E+00 0. -1.
        -11    1    4    4    0    0 -0.61302842635E-01  0.10794860542E-02 -0.66694938828E-01  0.90596246013E-01  0.51100000000E-03 0.  1.
         11    1    4    4    0    0 -0.21440000257E-01 -0.10850385482E-01 -0.31837367647E-01  0.39890895901E-01  0.51100000000E-03 0. -1.
</event>
<event>
 8    1  0.1094829E+005  0.1043930E+01  0.7957747E-01            NaN
         13   -1    0    0    0    0  0.00000000000E+00  0.00000000000E+00  0.74505805969E-08  0.10566000000E+00  0.10566000000E+00 0.  1.
     999900   -1    0    0    0    0 -0.00000000000E+00 -0.00000000000E+00 -0.74505805969E-08  0.93827000000E+00  0.93827000000E+00 0. -1.
     999902    2    1    2    0    0 -0.12284722423E-01 -0.14217728025E-01  0.12923158073E-01  0.10211250398E+01  0.10208703545E+01 0.  0.
     999903    2    3    3    0    0 -0.12456148252E+00  0.29720402557E-01  0.30214955799E-01  0.13273569022E+00  0.17520121228E-01 0.  0.
         14    1    1    2    0    0  0.12284722423E-01  0.14217728025E-01 -0.12923158073E-01  0.22804960201E-01  0.00000000000E+00 0.  1.
     999901    1    3    3    0    0  0.11227676010E+00 -0.43938130582E-01 -0.17291797726E-01  0.88838934958E+00  0.88000000000E+00 0.  1.
        -11    1    4    4    0    0 -0.90062393538E-01  0.15120395770E-01  0.16284035742E-01  0.92764713329E-01  0.51100000000E-03 0. -1.
         11    1    4    4    0    0 -0.34499088984E-01  0.14600006787E-01  0.13930920057E-01  0.39970976890E-01  0.51100000000E-03 0.  1.
</event>
<event>
 8    1  0.1094829E+005  0.1043930E+01  0.7957747E-01            NaN
         13   -1    0    0    0    0  0.00000000000E+00  0.00000000000E+00  0.74505805969E-08  0.10566000000E+00  0.10566000000E+00 0.  1.
     999900   -1    0    0    0    0 -0.00000000000E+00 -0.00000000000E+00 -0.74505805969E-08  0.93827000000E+00  0.93827000000E+00 0. -1.
     999902    2    1    2    0    0  0.18953873811E-01  0.13808679343E-01 -0.36998568128E-02  0.10201893619E+01  0.10199130925E+01 0.  0.
     999903    2    3    3    0    0  0.11443038214E+00  0.65137319008E-01  0.18130714334E-02  0.13352099927E+00  0.22076850602E-01 0.  0.
         14    1    1    2    0    0 -0.18953873811E-01 -0.13808679343E-01  0.36998568128E-02  0.23740638114E-01  0.00000000000E+00 0. -1.
     999901    1    3    3    0    0 -0.95476508331E-01 -0.51328639666E-01 -0.55129282462E-02  0.88666836262E+00  0.88000000000E+00 0.  1.
        -11    1    4    4    0    0  0.26474299705E-01  0.24702104469E-01  0.55860283939E-02  0.36640787987E-01  0.51100000000E-03 0. -1.
         11    1    4    4    0    0  0.87956082436E-01  0.40435214539E-01 -0.37729569604E-02  0.96880211280E-01  0.51100000000E-03 0.  1.
</event>
<event>
 8    1  0.1094829E+005  0.1043930E+01  0.7957747E-01            NaN
         13   -1    0    0    0    0  0.00000000000E+00  0.00000000000E+00  0.74505805969E-08  0.10566000000E+00  0.10566000000E+00 0. -1.
     999900   -1    0    0    0    0 -0.00000000000E+00 -0.00000000000E+00 -0.74505805969E-08  0.93827000000E+00  0.93827000000E+00 0.  1.
     999902    2    1    2    0    0  0.10711974949E-02  0.20968839391E-01 -0.97875450650E-02  0.10207646006E+01  0.10205017071E+01 0.  0.
     999903    2    3    3    0    0 -0.58924339237E-01 -0.50525271776E-01  0.10109907603E+00  0.12890883029E+00  0.19276475564E-01 0.  0.
         14    1    1    2    0    0 -0.10711974949E-02 -0.20968839391E-01  0.97875450650E-02  0.23165399368E-01  0.00000000000E+00 0. -1.
     999901    1    3    3    0    0  0.59995536731E-01  0.71494111167E-01 -0.11088662109E+00  0.89185577034E+00  0.88000000000E+00 0.  1.
        -11    1    4    4    0    0 -0.19475484170E-01 -0.79758251010E-02  0.18888810642E-01  0.28283503287E-01  0.51100000000E-03 0.  1.
         11    1    4    4    0    0 -0.39448855067E-01 -0.42549446675E-01  0.82210265385E-01  0.10062532700E+00  0.51100000000E-03 0. -1.
</event>
<event>
 8    1  0.1094829E+005  0.1043930E+01  0.7957747E-01            NaN
         13   -1    0    0    0    0  0.00000000000E+00  0.00000000000E+00  0.74505805969E-08  0.10566000000E+00  0.10566000000E+00 0. -1.
     999900   -1    0    0    0    0 -0.00000000000E+00 -0.00000000000E+00 -0.74505805969E-08  0.93827000000E+00  0.93827000000E+00 0. -1.
     999902    2    1    2    0    0 -0.83535835277E-03  0.44722759711E-02 -0.24453426926E-01  0.10190569390E+01  0.10187533439E+01 0.  0.
     999903    2    3    3    0    0 -0.35616361546E-01  0.11534575555E+00  0.41561487534E-01  0.12896671008E+00  0.18217753156E-01 0.  0.
         14    1    1    2    0    0  0.83535835277E-03 -0.44722759711E-02  0.24453426926E-01  0.24873061017E-01  0.00000000000E+00 0. -1.
     999901    1    3    3    0    0  0.34781003193E-01 -0.11087347958E+00 -0.66014914459E-01  0.89009022890E+00  0.88000000000E+00 0. -1.
        -11    1    4    4    0    0 -0.18432391323E-01  0.35079426082E-01  0.88791147291E-02  0.40613039574E-01  0.51100000000E-03 0. -1.
         11    1    4    4    0    0 -0.17183970223E-01  0.80266329467E-01  0.32682372804E-01  0.88353670506E-01  0.51100000000E-03 0.  1.
</event>
<event>
 8    1  0.1094829E+005  0.1043930E+01  0.7957747E-01            NaN
         13   -1    0    0    0    0  0.00000000000E+00  0.00000000000E+00  0.74505805969E-08  0.10566000000E+00  0.10566000000E+00 0.  1.
     999900   -1    0    0    0    0 -0.00000000000E+00 -0.00000000000E+00 -0.74505805969E-08  0.93827000000E+00  0.93827000000E+00 0.  1.
     999902    2    1    2    0    0 -0.20057056130E-01  0.47778847377E-02  0.15098688228E-01  0.10183744904E+01  0.10180537897E+01 0.  0.
     999903    2    3    3    0    0  0.75323610945E-01  0.97595974495E-01  0.29007434638E-01  0.12825869871E+00  0.20254429832E-01 0.  0.
         14    1    1    2    0    0  0.20057056130E-01 -0.47778847377E-02 -0.15098688228E-01  0.25555509570E-01  0.00000000000E+00 0. -1.
     999901    1    3    3    0    0 -0.95380667075E-01 -0.92818089757E-01 -0.13908746410E-01  0.89011579172E+00  0.88000000000E+00 0.  1.
        -11    1    4    4    0    0  0.58632762901E-01  0.70723870144E-01  0.29887917366E-01  0.96608568041E-01  0.51100000000E-03 0. -1.
         11    1    4    4    0    0  0.16690848045E-01  0.26872104352E-01 -0.88048272783E-03  0.31650130672E-01  0.51100000000E-03 0.  1.
</event>
<event>
 8    1  0.1094829E+005  0.1043930E+01  0.7957747E-01            NaN
         13   -1    0    0    0    0  0.00000000000E+00  0.00000000000E+00  0.74505805969E-08  0.10566000000E+00  0.10566000000E+00 0.  1.
     999900   -1    0    0    0    0 -0.00000000000E+00 -0.00000000000E+00 -0.74505805969E-08  0.93827000000E+00  0.93827000000E+00 0. -1.
     999902    2    1    2    0    0  0.53365000233E-02 -0.13284793554E-01  0.17389245139E-01  0.10214055728E+01  0.10211571840E+01 0.  0.
     999903    2    3    3    0    0  0.12857127048E+00  0.75183148107E-02 -0.19573335040E-01  0.13180689349E+00  0.20071000912E-01 0.  0.
         14    1    1    2    0    0 -0.53365000233E-02  0.13284793554E-01 -0.17389245139E-01  0.22524427157E-01  0.00000000000E+00 0. -1.
     999901    1    3    3    0    0 -0.12323477046E+00 -0.20803108364E-01  0.36962580180E-01  0.88959867935E+00  0.88000000000E+00 0.  1.
        -11    1    4    4    0    0  0.12380817268E+00  0.11184070565E-01 -0.18690307015E-01  0.12571052364E+00  0.51100000000E-03 0. -1.
         11    1    4    4    0    0  0.47630978028E-02 -0.36657557545E-02 -0.88302802491E-03  0.60963698562E-02  0.51100000000E-03 0.  1.
</event>
<event>
 8    1  0.1094829E+005  0.1043930E+01  0.7957747E-01            NaN
         13   -1    0    0    0    0  0.00000000000E+00  0.00000000000E+00  0.74505805969E-08  0.10566000000E+00  0.10566000000E+00 0.  1.
     999900   -1    0    0    0    0 -0.00000000000E+00 -0.00000000000E+00 -0.74505805969E-08  0.93827000000E+00  0.93827000000E+00 0. -1.
     999902    2    1    2    0    0  0.12907768255E-01  0.32032982946E-02 -0.19988716038E-01  0.10199212439E+01  0.10196386239E+01 0.  0.
     999903    2    3    3    0    0 -0.78555434438E-01 -0.97634432344E-01 -0.25181009538E-01  0.12943782165E+00  0.20411461808E-01 0.  0.
         14    1    1    2    0    0 -0.12907768255E-01 -0.32032982946E-02  0.19988716038E-01  0.24008756114E-01  0.00000000000E+00 0.  1.
     999901    1    3    3    0    0  0.91463202693E-01  0.10083773064E+00  0.51922935007E-02  0.89048342224E+00  0.88000000000E+00 0. -1.
        -11    1    4    4    0    0 -0.47553238365E-01 -0.64408569158E-01 -0.25386656824E-01  0.83991176475E-01  0.51100000000E-03 0.  1.
         11    1    4    4    0    0 -0.31002196073E-01 -0.33225863186E-01  0.20564728576E-03  0.45446645174E-01  0.51100000000E-03 0. -1.
</event>
<event>
 8    1  0.1094829E+005  0.1043930E+01  0.7957747E-01            NaN
         13   -1    0    0    0    0  0.00000000000E+00  0.00000000000E+00  0.74505805969E-08  0.10566000000E+00  0.10566000000E+00 0.  1.
     999900   -1    0    0    0    0 -0.00000000000E+00 -0.00000000000E+00 -0.74505805969E-08  0.93827000000E+00  0.93827000000E+00 0. -1.
     999902    2    1    2    0    0 -0.37797597684E-02  0.12345513226E-01 -0.19926027603E-01  0.10201866882E+01  0.10199103558E+01 0.  0.
     999903    2    3    3    0    0 -0.12470271682E+00 -0.33253678618E-01  0.98609760108E-02  0.13024909855E+00  0.14526324356E-01 0.  0.
         14    1    1    2    0    0  0.37797597684E-02 -0.12345513226E-01  0.19926027603E-01  0.23743311832E-01  0.00000000000E+00 0.  1.
     999901    1    3    3    0    0  0.12092295705E+00  0.45599191844E-01 -0.29787003613E-01  0.88993758962E+00  0.88000000000E+00 0. -1.
        -11    1    4    4    0    0 -0.60837212406E-01 -0.22371544187E-01  0.90908171405E-02  0.65456523586E-01  0.51100000000E-03 0. -1.
         11    1    4    4    0    0 -0.63865504417E-01 -0.10882134431E-01  0.77015887024E-03  0.64792574959E-01  0.51100000000E-03 0.  1.
</event>
<event>
 8    1  0.1094829E+005  0.1043930E+01  0.7957747E-01            NaN
         13   -1    0    0    0    0  0.00000000000E+00  0.00000000000E+00  0.74505805969E-08  0.10566000000E+00  0.10566000000E+00 0. -1.
     999900   -1    0    0    0    0 -0.00000000000E+00 -0.00000000000E+00 -0.74505805969E-08  0.93827000000E+00  0.93827000000E+00 0.  1.
     999902    2    1    2    0    0  0.13815854652E-01 -0.15635884837E-01  0.10649088161E-01  0.10205043343E+01  0.10202354309E+01 0.  0.
     999903    2    3    3    0    0 -0.60586839680E-01 -0.31592411423E-01  0.11090204615E+00  0.13154931450E+00  0.18360629162E-01 0.  0.
         14    1    1    2    0    0 -0.13815854652E-01  0.15635884837E-01 -0.10649088161E-01  0.23425665691E-01  0.00000000000E+00 0. -1.
     999901    1    3    3    0    0  0.74402694332E-01  0.15956526586E-01 -0.10025295798E+00  0.88895501981E+00  0.88000000000E+00 0.  1.
        -11    1    4    4    0    0 -0.34516407496E-01 -0.18751332422E-01  0.46370375034E-01  0.60773906044E-01  0.51100000000E-03 0. -1.
         11    1    4    4    0    0 -0.26070432185E-01 -0.12841079001E-01  0.64531671112E-01  0.70775408453E-01  0.51100000000E-03 0.  1.
</event>
<event>
 8    1  0.1094829E+005  0.1043930E+01  0.7957747E-01            NaN
         13   -1    0    0    0    0  0.00000000000E+00  0.00000000000E+00  0.74505805969E-08  0.10566000000E+00  0.10566000000E+00 0. -1.
     999900   -1    0    0    0    0 -0.00000000000E+00 -0.00000000000E+00 -0.74505805969E-08  0.93827000000E+00  0.93827000000E+00 0.  1.
     999902    2    1    2    0    0  0.57993364490E-02  0.13437673897E-01  0.18563994938E-01  0.10202905142E+01  0.10200166214E+01 0.  0.
     999903    2    3    3    0    0 -0.72926669467E-01 -0.91480762274E-01  0.52336281651E-01  0.12992753783E+00  0.21331894524E-01 0.  0.
         14    1    1    2    0    0 -0.57993364490E-02 -0.13437673897E-01 -0.18563994938E-01  0.23639485846E-01  0.00000000000E+00 0.  1.
     999901    1    3    3    0    0  0.78726005916E-01  0.10491843617E+00 -0.33772286713E-01  0.89036297632E+00  0.88000000000E+00 0.  1.
        -11    1    4    4    0    0 -0.51331209596E-01 -0.78082501193E-01  0.39496724795E-01  0.10144960553E+00  0.51100000000E-03 0.  1.
         11    1    4    4    0    0 -0.21595459871E-01 -0.13398261081E-01  0.12839556856E-01  0.28477932304E-01  0.51100000000E-03 0. -1.
</event>
<event>
 8    1  0.1094829E+005  0.1043930E+01  0.7957747E-01            NaN
         13   -1    0    0    0    0  0.00000000000E+00  0.00000000000E+00  0.74505805969E-08  0.10566000000E+00  0.10566000000E+00 0. -1.
     999900   -1    0    0    0    0 -0.00000000000E+00 -0.00000000000E+00 -0.74505805969E-08  0.93827000000E+00  0.93827000000E+00 0.  1.
     999902    2    1    2    0    0 -0.22136576859E-01 -0.61526262876E-02 -0.26630422209E-02  0.10208004812E+01  0.10205384107E+01 0.  0.
     999903    2    3    3    0    0  0.99735509792E-01  0.77898040510E-01  0.94106689051E-02  0.12835267065E+00  0.19250214125E-01 0.  0.
         14    1    1    2    0    0  0.22136576859E-01  0.61526262876E-02  0.26630422209E-02  0.23129518783E-01  0.00000000000E+00 0. -1.
     999901    1    3    3    0    0 -0.12187208665E+00 -0.84050666797E-01 -0.12073711126E-01  0.89244781057E+00  0.88000000000E+00 0.  1.
        -11    1    4    4    0    0  0.36548067977E-01  0.17263980736E-01  0.36593035276E-02  0.40588889206E-01  0.51100000000E-03 0. -1.
         11    1    4    4    0    0  0.63187441815E-01  0.60634059774E-01  0.57513653775E-02  0.87763781439E-01  0.51100000000E-03 0.  1.
</event>
<event>
 8    1  0.1094829E+005  0.1043930E+01  0.7957747E-01            NaN
         13   -1    0    0    0    0  0.00000000000E+00  0.00000000000E+00  0.74505805969E-08  0.10566000000E+00  0.10566000000E+00 0.  1.
     999900   -1    0    0    0    0 -0.00000000000E+00 -0.00000000000E+00 -0.74505805969E-08  0.93827000000E+00  0.93827000000E+00 0.  1.
     999902    2    1    2    0    0  0.17225844275E-01  0.36631796687E-04  0.15886154042E-01  0.10204970970E+01  0.10202280255E+01 0.  0.
     999903    2    3    3    0    0 -0.11801398325E-01 -0.17489900456E-01  0.12930116834E+00  0.13257101583E+00  0.20275908947E-01 0.  0.
         14    1    1    2    0    0 -0.17225844275E-01 -0.36631796687E-04 -0.15886154042E-01  0.23432903002E-01  0.00000000000E+00 0. -1.
     999901    1    3    3    0    0  0.29027242600E-01  0.17526532253E-01 -0.11341501430E+00  0.88792608117E+00  0.88000000000E+00 0.  1.
        -11    1    4    4    0    0  0.26909785134E-02 -0.12828705315E-01  0.43745272213E-01  0.45669760317E-01  0.51100000000E-03 0.  1.
         11    1    4    4    0    0 -0.14492376839E-01 -0.46611951408E-02  0.85555896130E-01  0.86901255515E-01  0.51100000000E-03 0. -1.
</event>
<event>
 8    1  0.1094829E+005  0.1043930E+01  0.7957747E-01            NaN
         13   -1    0    0    0    0  0.00000000000E+00  0.00000000000E+00  0.74505805969E-08  0.10566000000E+00  0.10566000000E+00 0.  1.
     999900   -1    0    0    0    0 -0.00000000000E+00 -0.00000000000E+00 -0.74505805969E-08  0.93827000000E+00  0.93827000000E+00 0.  1.
     999902    2    1    2    0    0 -0.19496020907E-01  0.12466946580E-01 -0.39387614925E-03  0.10207853521E+01  0.10205229347E+01 0.  0.
     999903    2    3    3    0    0 -0.37717980594E-01  0.70445090524E-01  0.10406811097E+00  0.13252536102E+00  0.18645180414E-01 0.  0.
         14    1    1    2    0    0  0.19496020907E-01 -0.12466946580E-01  0.39387614925E-03  0.23144647905E-01  0.00000000000E+00 0.  1.
     999901    1    3    3    0    0  0.18221959687E-01 -0.57978143945E-01 -0.10446198712E+00  0.88825999107E+00  0.88000000000E+00 0.  1.
        -11    1    4    4    0    0 -0.30116693589E-01  0.44519444324E-01  0.79742780625E-01  0.96167397482E-01  0.51100000000E-03 0.  1.
         11    1    4    4    0    0 -0.76012870043E-02  0.25925646200E-01  0.24325330350E-01  0.36357963538E-01  0.51100000000E-03 0. -1.
</event>
<event>
 8    1  0.1094829E+005  0.1043930E+01  0.7957747E-01            NaN
         13   -1    0    0    0    0  0.00000000000E+00  0.00000000000E+00  0.74505805969E-08  0.10566000000E+00  0.10566000000E+00 0. -1.
     999900   -1    0    0    0    0 -0.00000000000E+00 -0.00000000000E+00 -0.74505805969E-08  0.93827000000E+00  0.93827000000E+00 0. -1.
     999902    2    1    2    0    0  0.14841204473E-01 -0.35690679982E-02  0.17025494843E-01  0.10210637132E+01  0.10208076407E+01 0.  0.
     999903    2    3    3    0    0 -0.11727897362E+00 -0.21639713079E-01  0.47850717334E-01  0.13048385491E+00  0.22665180504E-01 0.  0.
         14    1    1    2    0    0 -0.14841204473E-01  0.35690679982E-02 -0.17025494843E-01  0.22866286783E-01  0.00000000000E+00 0.  1.
     999901    1    3    3    0    0  0.13212017810E+00  0.18070645081E-01 -0.30825222491E-01  0.89057985830E+00  0.88000000000E+00 0. -1.
        -11    1    4    4    0    0 -0.46095237337E-01 -0.14519494589E-01  0.29516895243E-01  0.56631218016E-01  0.51100000000E-03 0.  1.
         11    1    4    4    0    0 -0.71183736288E-01 -0.71202184904E-02  0.18333822091E-01  0.73852636898E-01  0.51100000000E-03 0. -1.
</event>
<event>
 8    1  0.1094829E+005  0.1043930E+01  0.7957747E-01            NaN
         13   -1    0    0    0    0  0.00000000000E+00  0.00000000000E+00  0.74505805969E-08  0.10566000000E+00  0.10566000000E+00 0. -1.
     999900   -1    0    0    0    0 -0.00000000000E+00 -0.00000000000E+00 -0.74505805969E-08  0.93827000000E+00  0.93827000000E+00 0. -1.
     999902    2    1    2    0    0  0.14664320320E-01  0.18516389280E-01 -0.10217947958E-02  0.10202880240E+01  0.10200140729E+01 0.  0.
     999903    2    3    3    0    0 -0.84167291117E-01 -0.56601745847E-01  0.75969369429E-01  0.12824651099E+00  0.19695988502E-01 0.  0.
         14    1    1    2    0    0 -0.14664320320E-01 -0.18516389280E-01  0.10217947958E-02  0.23641975954E-01  0.00000000000E+00 0.  1.
     999901    1    3    3    0    0  0.98831611437E-01  0.75118135127E-01 -0.76991164225E-01  0.89204151305E+00  0.88000000000E+00 0. -1.
        -11    1    4    4    0    0 -0.31873927958E-01 -0.12365307711E-01  0.18752960539E-01  0.38997214878E-01  0.51100000000E-03 0.  1.
         11    1    4    4    0    0 -0.52293363159E-01 -0.44236438135E-01  0.57216408890E-01  0.89249296113E-01  0.51100000000E-03 0. -1.
</event>
<event>
 8    1  0.1094829E+005  0.1043930E+01  0.7957747E-01            NaN
         13   -1    0    0    0    0  0.00000000000E+00  0.00000000000E+00  0.74505805969E-08  0.10566000000E+00  0.10566000000E+00 0. -1.
     999900   -1    0    0    0    0 -0.00000000000E+00 -0.00000000000E+00 -0.74505805969E-08  0.93827000000E+00  0.93827000000E+00 0. -1.
     999902    2    1    2    0    0  0.13045979877E-01 -0.11012297549E-01 -0.17025575343E-01  0.10198190377E+01  0.10195339774E+01 0.  0.
     999903    2    3    3    0    0 -0.96308927876E-01 -0.24751341953E-01  0.78190445381E-01  0.12784743062E+00  0.18525151850E-01 0.  0.
         14    1    1    2    0    0 -0.13045979877E-01  0.11012297549E-01  0.17025575343E-01  0.24110962321E-01  0.00000000000E+00 0. -1.
     999901    1    3    3    0    0  0.10935490775E+00  0.13739044404E-01 -0.95216020724E-01  0.89197160706E+00  0.88000000000E+00 0. -1.
        -11    1    4    4    0    0 -0.94011061958E-01 -0.21022997637E-01  0.72095793595E-01  0.12032502140E+00  0.51100000000E-03 0. -1.
         11    1    4    4    0    0 -0.22978659180E-02 -0.37283443156E-02  0.60946517865E-02  0.75224092226E-02  0.51100000000E-03 0.  1.
</event>
<event>
 8    1  0.1094829E+005  0.1043930E+01  0.7957747E-01            NaN
         13   -1    0    0    0    0  0.00000000000E+00  0.00000000000E+00  0.74505805969E-08  0.10566000000E+00  0.10566000000E+00 0.  1.
     999900   -1    0    0    0    0 -0.00000000000E+00 -0.00000000000E+00 -0.74505805969E-08  0.93827000000E+00  0.93827000000E+00 0.  1.
     999902    2    1    2    0    0 -0.64606028311E-02 -0.21901454212E-01  0.73924452883E-02  0.10199287223E+01  0.10196462804E+01 0.  0.
     999903    2    3    3    0    0 -0.54713829930E-01 -0.40628786438E-01 -0.11026517108E+00  0.13059054048E+00  0.15848654095E-01 0.  0.
         14    1    1    2    0    0  0.64606028311E-02  0.21901454212E-01 -0.73924452883E-02  0.24001277735E-01  0.00000000000E+00 0. -1.
     999901    1    3    3    0    0  0.48253227098E-01  0.18727332226E-01  0.11765761636E+00  0.88933818179E+00  0.88000000000E+00 0. -1.
        -11    1    4    4    0    0 -0.21739408832E-01 -0.22077603512E-01 -0.38134792936E-01  0.49138030348E-01  0.51100000000E-03 0.  1.
         11    1    4    4    0    0 -0.32974421097E-01 -0.18551182926E-01 -0.72130378140E-01  0.81452510129E-01  0.51100000000E-03 0. -1.
</event>
<event>
 8    1  0.1094829E+005  0.1043930E+01  0.7957747E-01            NaN
         13   -1    0    0    0    0  0.00000000000E+00  0.00000000000E+00  0.74505805969E-08  0.10566000000E+00  0.10566000000E+00 0.  1.
     999900   -1    0    0    0    0 -0.00000000000E+00 -0.00000000000E+00 -0.74505805969E-08  0.93827000000E+00  0.93827000000E+00 0.  1.
     999902    2    1    2    0    0  0.98225089636E-02  0.15841029403E-01  0.15122295642E-01  0.10199278393E+01  0.10196453764E+01 0.  0.
     999903    2    3    3    0    0 -0.82582438443E-01  0.81955827749E-01 -0.54486673996E-01  0.12989680074E+00  0.19177183281E-01 0.  0.
         14    1    1    2    0    0 -0.98225089636E-02 -0.15841029403E-01 -0.15122295642E-01  0.24002160744E-01  0.00000000000E+00 0. -1.
     999901    1    3    3    0    0  0.92404947407E-01 -0.66114798346E-01  0.69608969638E-01  0.89003103851E+00  0.88000000000E+00 0. -1.
        -11    1    4    4    0    0 -0.48739860620E-01  0.55812368457E-01 -0.42751286549E-01  0.85548396295E-01  0.51100000000E-03 0. -1.
         11    1    4    4    0    0 -0.33842577823E-01  0.26143459292E-01 -0.11735387447E-01  0.44348404447E-01  0.51100000000E-03 0.  1.
</event>
<event>
 8    1  0.1094829E+005  0.1043930E+01  0.7957747E-01            NaN
         13   -1    0    0    0    0  0.00000000000E+00  0.00000000000E+00  0.74505805969E-08  0.10566000000E+00  0.10566000000E+00 0. -1.
     999900   -1    0    0    0    0 -0.00000000000E+00 -0.00000000000E+00 -0.74505805969E-08  0.93827000000E+00  0.93827000000E+00 0. -1.
     999902    2    1    2    0    0 -0.66129305753E-02  0.31529682397E-02 -0.23032777230E-01  0.10197601658E+01  0.10194736950E+01 0.  0.
     999903    2    3    3    0    0  0.38565462091E-01  0.25986107124E-01  0.11678315025E+00  0.12728555383E+00  0.20018376577E-01 0.  0.
         14    1    1    2    0    0  0.66129305753E-02 -0.31529682397E-02  0.23032777230E-01  0.24169834224E-01  0.00000000000E+00 0. -1.
     999901    1    3    3    0    0 -0.45178392666E-01 -0.22833138884E-01 -0.13981592748E+00  0.89247461195E+00  0.88000000000E+00 0. -1.
        -11    1    4    4    0    0  0.21503458958E-01  0.22786971787E-01  0.90604462324E-01  0.95870092022E-01  0.51100000000E-03 0. -1.
         11    1    4    4    0    0  0.17062003133E-01  0.31991353371E-02  0.26178687927E-01  0.31415461805E-01  0.51100000000E-03 0.  1.
</event>
<event>
 8    1  0.1094829E+005  0.1043930E+01  0.7957747E-01            NaN
         13   -1    0    0    0    0  0.00000000000E+00  0.00000000000E+00  0.74505805969E-08  0.10566000000E+00  0.10566000000E+00 0. -1.
     999900   -1    0    0    0    0 -0.00000000000E+00 -0.00000000000E+00 -0.74505805969E-08  0.93827000000E+00  0.93827000000E+00 0. -1.
     999902    2    1    2    0    0 -0.85112992792E-02 -0.75941609469E-02 -0.18904332910E-01  0.10218508855E+01  0.10216123261E+01 0.  0.
     999903    2    3    3    0    0 -0.37594848494E-01  0.11023038577E+00 -0.59986237292E-01  0.13257241417E+00  0.20322050907E-01 0.  0.
         14    1    1    2    0    0  0.85112992792E-02  0.75941609469E-02  0.18904332910E-01  0.22079114535E-01  0.00000000000E+00 0.  1.
     999901    1    3    3    0    0  0.29083549214E-01 -0.11782454672E+00  0.41081904383E-01  0.88927847130E+00  0.88000000000E+00 0.  1.
        -11    1    4    4    0    0 -0.33571163764E-01  0.72730858242E-01 -0.35624814664E-01  0.87670914891E-01  0.51100000000E-03 0. -1.
         11    1    4    4    0    0 -0.40236847298E-02  0.37499527530E-01 -0.24361422628E-01  0.44901499277E-01  0.51100000000E-03 0.  1.
</event>
<event>
 8    1  0.1094829E+005  0.1043930E+01  0.7957747E-01            NaN
         13   -1    0    0    0    0  0.00000000000E+00  0.00000000000E+00  0.74505805969E-08  0.10566000000E+00  0.10566000000E+00 0.  1.
     999900   -1    0    0    0    0 -0.00000000000E+00 -0.00000000000E+00 -0.74505805969E-08  0.93827000000E+00  0.93827000000E+00 0.  1.
     999902    2    1    2    0    0 -0.17648292283E-01 -0.83220165511E-03  0.15935160814E-01  0.10201374774E+01  0.10198599849E+01 0.  0.
     999903    2    3    3    0    0 -0.26986515515E-01 -0.78494551330E-01  0.10127668659E+00  0.13255547052E+00  0.20599002627E-01 0.  0.
         14    1    1    2    0    0  0.17648292283E-01  0.83220165511E-03 -0.15935160814E-01  0.23792522571E-01  0.00000000000E+00 0.  1.
     999901    1    3    3    0    0  0.93382232327E-02  0.77662349675E-01 -0.85341525777E-01  0.88758200691E+00  0.88000000000E+00 0.  1.
        -11    1    4    4    0    0 -0.16825790999E-01 -0.38504846064E-01  0.36025417925E-01  0.55351804585E-01  0.51100000000E-03 0. -1.
         11    1    4    4    0    0 -0.10160724517E-01 -0.39989705266E-01  0.65251268666E-01  0.77203665933E-01  0.51100000000E-03 0.  1.
</event>
<event>
 8    1  0.1094829E+005  0.1043930E+01  0.7957747E-01            NaN
         13   -1    0    0    0    0  0.00000000000E+00  0.00000000000E+00  0.74505805969E-08  0.10566000000E+00  0.10566000000E+00 0. -1.
     999900   -1    0    0    0    0 -0.00000000000E+00 -0.00000000000E+00 -0.74505805969E-08  0.93827000000E+00  0.93827000000E+00 0. -1.
     999902    2    1    2    0    0 -0.46598474995E-02 -0.15610087472E-01 -0.19327958792E-01  0.10186523616E+01  0.10183386838E+01 0.  0.
     999903    2    3    3    0    0 -0.42751204797E-01  0.11497716576E+00 -0.31175051982E-01  0.12812199393E+00  0.19898424719E-01 0.  0.
         14    1    1    2    0    0  0.46598474995E-02  0.15610087472E-01  0.19327958792E-01  0.25277638353E-01  0.00000000000E+00 0.  1.
     999901    1    3    3    0    0  0.38091357298E-01 -0.13058725323E+00  0.11847093190E-01  0.89053036772E+00  0.88000000000E+00 0. -1.
        -11    1    4    4    0    0 -0.80374754787E-02  0.49282433879E-01 -0.11127845092E-01  0.51161014048E-01  0.51100000000E-03 0. -1.
         11    1    4    4    0    0 -0.34713729319E-01  0.65694731877E-01 -0.20047206890E-01  0.76960979884E-01  0.51100000000E-03 0.  1.
</event>
<event>
 8    1  0.1094829E+005  0.1043930E+01  0.7957747E-01            NaN
         13   -1    0    0    0    0  0.00000000000E+00  0.00000000000E+00  0.74505805969E-08  0.10566000000E+00  0.10566000000E+00 0. -1.
     999900   -1    0    0    0    0 -0.00000000000E+00 -0.00000000000E+00 -0.74505805969E-08  0.93827000000E+00  0.93827000000E+00 0.  1.
     999902    2    1    2    0    0 -0.66621473713E-02 -0.68247000185E-02  0.21736485656E-01  0.10201932027E+01  0.10199170237E+01 0.  0.
     999903    2    3    3    0    0 -0.10951070679E+00  0.68183275916E-01 -0.77076416057E-02  0.13054665531E+00  0.18478838092E-01 0.  0.
         14    1    1    2    0    0  0.66621473713E-02  0.68247000185E-02 -0.21736485656E-01  0.23736797312E-01  0.00000000000E+00 0.  1.
     999901    1    3    3    0    0  0.10284855942E+00 -0.75007975934E-01  0.29444127262E-01  0.88964654738E+00  0.88000000000E+00 0. -1.
        -11    1    4    4    0    0 -0.42801420993E-01  0.33832505681E-01 -0.10030410042E-01  0.55474952242E-01  0.51100000000E-03 0.  1.
         11    1    4    4    0    0 -0.66709285799E-01  0.34350770235E-01  0.23227684361E-02  0.75071703070E-01  0.51100000000E-03 0. -1.
</event>
<event>
 8    1  0.1094829E+005  0.1043930E+01  0.7957747E-01            NaN
         13   -1    0    0    0    0  0.00000000000E+00  0.00000000000E+00  0.74505805969E-08  0.10566000000E+00  0.10566000000E+00 0. -1.
     999900   -1    0    0    0    0 -0.00000000000E+00 -0.00000000000E+00 -0.74505805969E-08  0.93827000000E+00  0.93827000000E+00 0.  1.
     999902    2    1    2    0    0  0.20287490723E-02  0.10083285435E-01  0.21824953840E-01  0.10198028974E+01  0.10195174508E+01 0.  0.
     999903    2    3    3    0    0  0.17066168175E-01 -0.12625597599E+00  0.21483089251E-03  0.12891484858E+00  0.19676546012E-01 0.  0.
         14    1    1    2    0    0 -0.20287490723E-02 -0.10083285435E-01 -0.21824953840E-01  0.24127102563E-01  0.00000000000E+00 0.  1.
     999901    1    3    3    0    0 -0.15037419103E-01  0.13633926143E+00  0.21610122948E-01  0.89088804886E+00  0.88000000000E+00 0. -1.
        -11    1    4    4    0    0  0.19804344746E-01 -0.76568204059E-01  0.20353687228E-02  0.79115774600E-01  0.51100000000E-03 0. -1.
         11    1    4    4    0    0 -0.27381765716E-02 -0.49687771931E-01 -0.18205378303E-02  0.49799073981E-01  0.51100000000E-03 0.  1.
</event>
<event>
 8    1  0.1094829E+005  0.1043930E+01  0.7957747E-01            NaN
         13   -1    0    0    0    0  0.00000000000E+00  0.00000000000E+00  0.74505805969E-08  0.10566000000E+00  0.10566000000E+00 0. -1.
     999900   -1    0    0    0    0 -0.00000000000E+00 -0.00000000000E+00 -0.74505805969E-08  0.93827000000E+00  0.93827000000E+00 0. -1.
     999902    2    1    2    0    0 -0.16101030257E-04 -0.21719707689E-01 -0.93647163258E-02  0.10202774341E+01  0.10200032346E+01 0.  0.
     999903    2    3    3    0    0 -0.11933454053E+00  0.18788613418E-01 -0.45385310338E-01  0.13057225975E+00  0.19888289647E-01 0.  0.
         14    1    1    2    0    0  0.16101030257E-04  0.21719707689E-01  0.93647163258E-02  0.23652565890E-01  0.00000000000E+00 0. -1.
     999901    1    3    3    0    0  0.11931843950E+00 -0.40508321107E-01  0.36020594013E-01  0.88970517436E+00  0.88000000000E+00 0.  1.
        -11    1    4    4    0    0 -0.86716599981E-01  0.14732260899E-01 -0.42156321674E-01  0.97540887845E-01  0.51100000000E-03 0. -1.
         11    1    4    4    0    0 -0.32617940548E-01  0.40563525195E-02 -0.32289886644E-02  0.33031371909E-01  0.51100000000E-03 0.  1.
</event>
<event>
 8    1  0.1094829E+005  0.1043930E+01  0.7957747E-01            NaN
         13   -1    0    0    0    0  0.00000000000E+00  0.00000000000E+00  0.74505805969E-08  0.10566000000E+00  0.10566000000E+00 0.  1.
     999900   -1    0    0    0    0 -0.00000000000E+00 -0.00000000000E+00 -0.74505805969E-08  0.93827000000E+00  0.93827000000E+00 0.  1.
     999902    2    1    2    0    0  0.28820340835E-01  0.43766894459E-02  0.54457110976E-02  0.10142749292E+01  0.10138413134E+01 0.  0.
     999903    2    3    3    0    0  0.50416633187E-02 -0.11630956493E+00 -0.41115656874E-01  0.12450048670E+00  0.16016887455E-01 0.  0.
         14    1    1    2    0    0 -0.28820340835E-01 -0.43766894459E-02 -0.54457110976E-02  0.29655070826E-01  0.00000000000E+00 0.  1.
     999901    1    3    3    0    0  0.23778677516E-01  0.12068625438E+00  0.46561367972E-01  0.88977444248E+00  0.88000000000E+00 0.  1.
        -11    1    4    4    0    0  0.31819905113E-02 -0.40543657041E-01 -0.22405653684E-01  0.46434767447E-01  0.51100000000E-03 0.  1.
         11    1    4    4    0    0  0.18596728074E-02 -0.75765907891E-01 -0.18710003190E-01  0.78065719249E-01  0.51100000000E-03 0. -1.
</event>
<event>
 8    1  0.1094829E+005  0.1043930E+01  0.7957747E-01            NaN
         13   -1    0    0    0    0  0.00000000000E+00  0.00000000000E+00  0.74505805969E-08  0.10566000000E+00  0.10566000000E+00 0.  1.
     999900   -1    0    0    0    0 -0.00000000000E+00 -0.00000000000E+00 -0.74505805969E-08  0.93827000000E+00  0.93827000000E+00 0. -1.
     999902    2    1    2    0    0  0.13019481158E-01 -0.10838150812E-01 -0.17640917557E-01  0.10194723964E+01  0.10191789797E+01 0.  0.
     999903    2    3    3    0    0 -0.40344895934E-01  0.56696960674E-01  0.10435365577E+00  0.12689667189E+00  0.19256788038E-01 0.  0.
         14    1    1    2    0    0 -0.13019481158E-01  0.10838150812E-01  0.17640917557E-01  0.24457603621E-01  0.00000000000E+00 0.  1.
     999901    1    3    3    0    0  0.53364377092E-01 -0.67535111486E-01 -0.12199457333E+00  0.89257572449E+00  0.88000000000E+00 0. -1.
        -11    1    4    4    0    0 -0.38857891074E-01  0.41243539192E-01  0.81661687703E-01  0.99397472721E-01  0.51100000000E-03 0. -1.
         11    1    4    4    0    0 -0.14870048598E-02  0.15453421482E-01  0.22691968071E-01  0.27499199168E-01  0.51100000000E-03 0.  1.
</event>
<event>
 8    1  0.1094829E+005  0.1043930E+01  0.7957747E-01            NaN
         13   -1    0    0    0    0  0.00000000000E+00  0.00000000000E+00  0.74505805969E-08  0.10566000000E+00  0.10566000000E+00 0. -1.
     999900   -1    0    0    0    0 -0.00000000000E+00 -0.00000000000E+00 -0.74505805969E-08  0.93827000000E+00  0.93827000000E+00 0. -1.
     999902    2    1    2    0    0 -0.87143209145E-02 -0.46187641673E-02  0.23031572722E-01  0.10188755450E+01  0.10185674502E+01 0.  0.
     999903    2    3    3    0    0 -0.98668425797E-01 -0.50467986894E-01 -0.62773518363E-01  0.12895621956E+00  0.20167201199E-01 0.  0.
         14    1    1    2    0    0  0.87143209145E-02  0.46187641673E-02 -0.23031572722E-01  0.25054454962E-01  0.00000000000E+00 0.  1.
     999901    1    3    3    0    0  0.89954104882E-01  0.45849222727E-01  0.85805091084E-01  0.88991932548E+00  0.88000000000E+00 0.  1.
        -11    1    4    4    0    0 -0.52700490051E-01 -0.30301778262E-01 -0.23336090350E-01  0.65118151473E-01  0.51100000000E-03 0.  1.
         11    1    4    4    0    0 -0.45967935746E-01 -0.20166208632E-01 -0.39437428012E-01  0.63838068083E-01  0.51100000000E-03 0. -1.
</event>
<event>
 8    1  0.1094829E+005  0.1043930E+01  0.7957747E-01            NaN
         13   -1    0    0    0    0  0.00000000000E+00  0.00000000000E+00  0.74505805969E-08  0.10566000000E+00  0.10566000000E+00 0. -1.
     999900   -1    0    0    0    0 -0.00000000000E+00 -0.00000000000E+00 -0.74505805969E-08  0.93827000000E+00  0.93827000000E+00 0. -1.
     999902    2    1    2    0    0  0.29425165759E-01  0.85283852502E-02 -0.55864231247E-02  0.10127886792E+01  0.10123097979E+01 0.  0.
     999903    2    3    3    0    0 -0.56235896618E-01  0.91286873366E-01 -0.57423762181E-01  0.12325290443E+00  0.19950455369E-01 0.  0.
         14    1    1    2    0    0 -0.29425165759E-01 -0.85283852502E-02  0.55864231247E-02  0.31141320753E-01  0.00000000000E+00 0. -1.
     999901    1    3    3    0    0  0.85661062377E-01 -0.82758488116E-01  0.51837339056E-01  0.88953577482E+00  0.88000000000E+00 0.  1.
        -11    1    4    4    0    0 -0.76645799651E-02  0.14674726772E-01 -0.13736811250E-02  0.16620514815E-01  0.51100000000E-03 0. -1.
         11    1    4    4    0    0 -0.48571316653E-01  0.76612146594E-01 -0.56050081056E-01  0.10663238961E+00  0.51100000000E-03 0.  1.
</event>
<event>
 8    1  0.1094829E+005  0.1043930E+01  0.7957747E-01            NaN
         13   -1    0    0    0    0  0.00000000000E+00  0.00000000000E+00  0.74505805969E-08  0.10566000000E+00  0.10566000000E+00 0. -1.
     999900   -1    0    0    0    0 -0.00000000000E+00 -0.00000000000E+00 -0.74505805969E-08  0.93827000000E+00  0.93827000000E+00 0. -1.
     999902    2    1    2    0    0 -0.55161908705E-02 -0.29011715563E-02 -0.22695791614E-01  0.10203939826E+01  0.10201225101E+01 0.  0.
     999903    2    3    3    0    0 -0.55951943061E-01 -0.11551119606E+00 -0.21086910619E-01  0.13178418566E+00  0.21188615861E-01 0.  0.
         14    1    1    2    0    0  0.55161908705E-02  0.29011715563E-02  0.22695791614E-01  0.23536017401E-01  0.00000000000E+00 0. -1.
     999901    1    3    3    0    0  0.50435752190E-01  0.11261002451E+00 -0.16088809953E-02  0.88860979694E+00  0.88000000000E+00 0. -1.
        -11    1    4    4    0    0 -0.49804893323E-01 -0.98260975720E-01 -0.10593086894E-01  0.11067168273E+00  0.51100000000E-03 0.  1.
         11    1    4    4    0    0 -0.61470497374E-02 -0.17250220344E-01 -0.10493823724E-01  0.21112502925E-01  0.51100000000E-03 0. -1.
</event>
<event>
 8    1  0.1094829E+005  0.1043930E+01  0.7957747E-01            NaN
         13   -1    0    0    0    0  0.00000000000E+00  0.00000000000E+00  0.74505805969E-08  0.10566000000E+00  0.10566000000E+00 0.  1.
     999900   -1    0    0    0    0 -0.00000000000E+00 -0.00000000000E+00 -0.74505805969E-08  0.93827000000E+00  0.93827000000E+00 0. -1.
     999902    2    1    2    0    0  0.20249368035E-01  0.11191828768E-01  0.29516309146E-01  0.10064265809E+01  0.10057275756E+01 0.  0.
     999903    2    3    3    0    0 -0.75116813266E-01  0.44901146034E-01 -0.71675920785E-01  0.11487125790E+00  0.19982985795E-01 0.  0.
         14    1    1    2    0    0 -0.20249368035E-01 -0.11191828768E-01 -0.29516309146E-01  0.37503419079E-01  0.00000000000E+00 0. -1.
     999901    1    3    3    0    0  0.95366181301E-01 -0.33709317265E-01  0.10119222993E+00  0.89155532302E+00  0.88000000000E+00 0.  1.
        -11    1    4    4    0    0 -0.17766343072E-01  0.50812009857E-02 -0.24138060319E-01  0.30403431165E-01  0.51100000000E-03 0.  1.
         11    1    4    4    0    0 -0.57350470194E-01  0.39819945048E-01 -0.47537860465E-01  0.84467826737E-01  0.51100000000E-03 0. -1.
</event>
<event>
 8    1  0.1094829E+005  0.1043930E+01  0.7957747E-01            NaN
         13   -1    0    0    0    0  0.00000000000E+00  0.00000000000E+00  0.74505805969E-08  0.10566000000E+00  0.10566000000E+00 0.  1.
     999900   -1    0    0    0    0 -0.00000000000E+00 -0.00000000000E+00 -0.74505805969E-08  0.93827000000E+00  0.93827000000E+00 0.  1.
     999902    2    1    2    0    0  0.43357906388E-02 -0.92284456739E-02 -0.20632420041E-01  0.10209156556E+01  0.10206562183E+01 0.  0.
     999903    2    3    3    0    0 -0.66561593490E-01  0.10477567865E+00 -0.35357064311E-01  0.13061222725E+00  0.20026066679E-01 0.  0.
         14    1    1    2    0    0 -0.43357906388E-02  0.92284456739E-02  0.20632420041E-01  0.23014344370E-01  0.00000000000E+00 0.  1.
     999901    1    3    3    0    0  0.70897384129E-01 -0.11400412432E+00  0.14724644270E-01  0.89030342838E+00  0.88000000000E+00 0. -1.
        -11    1    4    4    0    0 -0.52931903505E-01  0.65883967791E-01 -0.24403565696E-01  0.87967486950E-01  0.51100000000E-03 0.  1.
         11    1    4    4    0    0 -0.13629689985E-01  0.38891710855E-01 -0.10953498615E-01  0.42644740299E-01  0.51100000000E-03 0. -1.
</event>
<event>
 8    1  0.1094829E+005  0.1043930E+01  0.7957747E-01            NaN
         13   -1    0    0    0    0  0.00000000000E+00  0.00000000000E+00  0.74505805969E-08  0.10566000000E+00  0.10566000000E+00 0. -1.
     999900   -1    0    0    0    0 -0.00000000000E+00 -0.00000000000E+00 -0.74505805969E-08  0.93827000000E+00  0.93827000000E+00 0.  1.
     999902    2    1    2    0    0  0.19789416570E-02  0.15208645731E-02  0.23330075789E-01  0.10204668017E+01  0.10201970259E+01 0.  0.
     999903    2    3    3    0    0 -0.12627577732E+00 -0.23823807359E-02 -0.23126054649E-01  0.12994859282E+00  0.20014362251E-01 0.  0.
         14    1    1    2    0    0 -0.19789416570E-02 -0.15208645731E-02 -0.23330075789E-01  0.23463198321E-01  0.00000000000E+00 0.  1.
     999901    1    3    3    0    0  0.12825471897E+00  0.39032453090E-02  0.46456130438E-01  0.89051820886E+00  0.88000000000E+00 0.  1.
        -11    1    4    4    0    0 -0.94683061897E-01  0.93425164252E-03 -0.87986172200E-02  0.95096960111E-01  0.51100000000E-03 0. -1.
         11    1    4    4    0    0 -0.31592715419E-01 -0.33166323784E-02 -0.14327437429E-01  0.34851632704E-01  0.51100000000E-03 0.  1.
</event>
<event>
 8    1  0.1094829E+005  0.1043930E+01  0.7957747E-01            NaN
         13   -1    0    0    0    0  0.00000000000E+00  0.00000000000E+00  0.74505805969E-08  0.10566000000E+00  0.10566000000E+00 0. -1.
     999900   -1    0    0    0    0 -0.00000000000E+00 -0.00000000000E+00 -0.74505805969E-08  0.93827000000E+00  0.93827000000E+00 0. -1.
     999902    2    1    2    0    0  0.59223811536E-02 -0.19220900215E-01  0.12024664062E-01  0.10204969006E+01  0.10202278245E+01 0.  0.
     999903    2    3    3    0    0 -0.25550941229E-01  0.28410571253E-01  0.12370827123E+00  0.13160289383E+00  0.23570620180E-01 0.  0.
         14    1    1    2    0    0 -0.59223811536E-02  0.19220900215E-01 -0.12024664062E-01  0.23433099440E-01  0.00000000000E+00 0. -1.
     999901    1    3    3    0    0  0.31473322383E-01 -0.47631471467E-01 -0.11168360717E+00  0.88889400673E+00  0.88000000000E+00 0. -1.
        -11    1    4    4    0    0 -0.20580131033E-01  0.60237902799E-02  0.69691455947E-01  0.72917679583E-01  0.51100000000E-03 0. -1.
         11    1    4    4    0    0 -0.49708101962E-02  0.22386780973E-01  0.54016815285E-01  0.58685214244E-01  0.51100000000E-03 0.  1.
</event>
<event>
 8    1  0.1094829E+005  0.1043930E+01  0.7957747E-01            NaN
         13   -1    0    0    0    0  0.00000000000E+00  0.00000000000E+00  0.74505805969E-08  0.10566000000E+00  0.10566000000E+00 0. -1.
     999900   -1    0    0    0    0 -0.00000000000E+00 -0.00000000000E+00 -0.74505805969E-08  0.93827000000E+00  0.93827000000E+00 0. -1.
     999902    2    1    2    0    0 -0.14574653811E-02  0.17932958518E-01 -0.15257319338E-01  0.10203397266E+01  0.10200669864E+01 0.  0.
     999903    2    3    3    0    0 -0.52584861163E-01  0.10478066317E+00 -0.60306616362E-01  0.13344290419E+00  0.20638936608E-01 0.  0.
         14    1    1    2    0    0  0.14574653811E-02 -0.17932958518E-01  0.15257319338E-01  0.23590273418E-01  0.00000000000E+00 0. -1.
     999901    1    3    3    0    0  0.51127395782E-01 -0.86847704652E-01  0.45049297025E-01  0.88689682239E+00  0.88000000000E+00 0.  1.
        -11    1    4    4    0    0 -0.32429262077E-02  0.22892579598E-01 -0.80523249673E-02  0.24488524443E-01  0.51100000000E-03 0. -1.
         11    1    4    4    0    0 -0.49341934955E-01  0.81888083572E-01 -0.52254291395E-01  0.10895437975E+00  0.51100000000E-03 0.  1.
</event>
<event>
 8    1  0.1094829E+005  0.1043930E+01  0.7957747E-01            NaN
         13   -1    0    0    0    0  0.00000000000E+00  0.00000000000E+00  0.74505805969E-08  0.10566000000E+00  0.10566000000E+00 0. -1.
     999900   -1    0    0    0    0 -0.00000000000E+00 -0.00000000000E+00 -0.74505805969E-08  0.93827000000E+00  0.93827000000E+00 0.  1.
     999902    2    1    2    0    0  0.57502007824E-02  0.16743424370E-01  0.58576438425E-02  0.10252827734E+01  0.10251131871E+01 0.  0.
     999903    2    3    3    0    0 -0.64399381498E-01 -0.11092067758E+00  0.27807451327E-01  0.13303791862E+00  0.21798082237E-01 0.  0.
         14    1    1    2    0    0 -0.57502007824E-02 -0.16743424370E-01 -0.58576438425E-02  0.18647226605E-01  0.00000000000E+00 0.  1.
     999901    1    3    3    0    0  0.70149582280E-01  0.12766410195E+00 -0.21949807485E-01  0.89224485477E+00  0.88000000000E+00 0.  1.
        -11    1    4    4    0    0 -0.47049630136E-01 -0.96651745048E-01  0.20702000562E-01  0.10947173820E+00  0.51100000000E-03 0. -1.
         11    1    4    4    0    0 -0.17349751361E-01 -0.14268932535E-01  0.71054507650E-02  0.23566180419E-01  0.51100000000E-03 0.  1.
</event>
<event>
 8    1  0.1094829E+005  0.1043930E+01  0.7957747E-01            NaN
         13   -1    0    0    0    0  0.00000000000E+00  0.00000000000E+00  0.74505805969E-08  0.10566000000E+00  0.10566000000E+00 0.  1.
     999900   -1    0    0    0    0 -0.00000000000E+00 -0.00000000000E+00 -0.74505805969E-08  0.93827000000E+00  0.93827000000E+00 0. -1.
     999902    2    1    2    0    0  0.12282322747E-03  0.20252884727E-01 -0.15166729236E-01  0.10186273499E+01  0.10183130432E+01 0.  0.
     999903    2    3    3    0    0  0.10427190311E+00 -0.65241151755E-01  0.27727982796E-01  0.12733827368E+00  0.17808909381E-01 0.  0.
         14    1    1    2    0    0 -0.12282322747E-03 -0.20252884727E-01  0.15166729236E-01  0.25302650079E-01  0.00000000000E+00 0.  1.
     999901    1    3    3    0    0 -0.10414907988E+00  0.85494036481E-01 -0.42894712031E-01  0.89128907624E+00  0.88000000000E+00 0. -1.
        -11    1    4    4    0    0  0.17452382886E-01 -0.44871338324E-02  0.10116498984E-02  0.18055597330E-01  0.51100000000E-03 0. -1.
         11    1    4    4    0    0  0.86819520220E-01 -0.60754017922E-01  0.26716332897E-01  0.10928267635E+00  0.51100000000E-03 0.  1.
</event>
<event>
 8    1  0.1094829E+005  0.1043930E+01  0.7957747E-01            NaN
         13   -1    0    0    0    0  0.00000000000E+00  0.00000000000E+00  0.74505805969E-08  0.10566000000E+00  0.10566000000E+00 0. -1.
     999900   -1    0    0    0    0 -0.00000000000E+00 -0.00000000000E+00 -0.74505805969E-08  0.93827000000E+00  0.93827000000E+00 0.  1.
     999902    2    1    2    0    0 -0.44443491404E-02 -0.23173088426E-01  0.50560389366E-02  0.10197989454E+01  0.10195134041E+01 0.  0.
     999903    2    3    3    0    0 -0.32968445798E-01  0.72522586686E-02  0.12479584724E+00  0.13071124020E+00  0.19284998146E-01 0.  0.
         14    1    1    2    0    0  0.44443491404E-02  0.23173088426E-01 -0.50560389366E-02  0.24131054602E-01  0.00000000000E+00 0. -1.
     999901    1    3    3    0    0  0.28524096658E-01 -0.30425347095E-01 -0.11973980830E+00  0.88908770519E+00  0.88000000000E+00 0.  1.
        -11    1    4    4    0    0 -0.25605867724E-01  0.13727549553E-01  0.93641212729E-01  0.98046131596E-01  0.51100000000E-03 0.  1.
         11    1    4    4    0    0 -0.73625780744E-02 -0.64752908839E-02  0.31154634509E-01  0.32665108607E-01  0.51100000000E-03 0. -1.
</event>
<event>
 8    1  0.1094829E+005  0.1043930E+01  0.7957747E-01            NaN
         13   -1    0    0    0    0  0.00000000000E+00  0.00000000000E+00  0.74505805969E-08  0.10566000000E+00  0.10566000000E+00 0.  1.
     999900   -1    0    0    0    0 -0.00000000000E+00 -0.00000000000E+00 -0.74505805969E-08  0.93827000000E+00  0.93827000000E+00 0. -1.
     999902    2    1    2    0    0  0.20591644774E-01  0.55193396210E-02 -0.12892783731E-01  0.10190160919E+01  0.10187114865E+01 0.  0.
     999903    2    3    3    0    0 -0.27524008120E-01 -0.63813245161E-01  0.10460196691E+00  0.12720493488E+00  0.20244078002E-01 0.  0.
         14    1    1    2    0    0 -0.20591644774E-01 -0.55193396210E-02  0.12892783731E-01  0.24913908098E-01  0.00000000000E+00 0.  1.
     999901    1    3    3    0    0  0.48115652895E-01  0.69332584782E-01 -0.11749475064E+00  0.89181115703E+00  0.88000000000E+00 0. -1.
        -11    1    4    4    0    0 -0.24414799719E-01 -0.33865111516E-01  0.53141486685E-01  0.67581113866E-01  0.51100000000E-03 0. -1.
         11    1    4    4    0    0 -0.31092084018E-02 -0.29948133645E-01  0.51460480228E-01  0.59623821011E-01  0.51100000000E-03 0.  1.
</event>
<event>
 8    1  0.1094829E+005  0.1043930E+01  0.7957747E-01            NaN
         13   -1    0    0    0    0  0.00000000000E+00  0.00000000000E+00  0.74505805969E-08  0.10566000000E+00  0.10566000000E+00 0.  1.
     999900   -1    0    0    0    0 -0.00000000000E+00 -0.00000000000E+00 -0.74505805969E-08  0.93827000000E+00  0.93827000000E+00 0.  1.
     999902    2    1    2    0    0 -0.18575346231E-01  0.13135728319E-01  0.54186818162E-02  0.10205429746E+01  0.10202749678E+01 0.  0.
     999903    2    3    3    0    0 -0.63470455735E-01 -0.10122635438E+00 -0.47770249010E-01  0.13041752319E+00  0.21247590313E-01 0.  0.
         14    1    1    2    0    0  0.18575346231E-01 -0.13135728319E-01 -0.54186818162E-02  0.23387025435E-01  0.00000000000E+00 0.  1.
     999901    1    3    3    0    0  0.44895109504E-01  0.11436208270E+00  0.53188930827E-01  0.89012545137E+00  0.88000000000E+00 0. -1.
        -11    1    4    4    0    0 -0.19416579390E-01 -0.49097596801E-01 -0.25405379807E-01  0.58594129492E-01  0.51100000000E-03 0.  1.
         11    1    4    4    0    0 -0.44053876345E-01 -0.52128757576E-01 -0.22364869204E-01  0.71823393702E-01  0.51100000000E-03 0. -1.
</event>
<event>
 8    1  0.1094829E+005  0.1043930E+01  0.7957747E-01            NaN
         13   -1    0    0    0    0  0.00000000000E+00  0.00000000000E+00  0.74505805969E-08  0.10566000000E+00  0.10566000000E+00 0. -1.
     999900   -1    0    0    0    0 -0.00000000000E+00 -0.00000000000E+00 -0.74505805969E-08  0.93827000000E+00  0.93827000000E+00 0. -1.
     999902    2    1    2    0    0 -0.87637406802E-03 -0.22690470741E-01 -0.31198294116E-03  0.10212204684E+01  0.10209679340E+01 0.  0.
     999903    2    3    3    0    0  0.11811417765E+00 -0.35046203041E-01  0.43248102613E-01  0.13205856152E+00  0.19745125520E-01 0.  0.
         14    1    1    2    0    0  0.87637406802E-03  0.22690470741E-01  0.31198294116E-03  0.22709531640E-01  0.00000000000E+00 0.  1.
     999901    1    3    3    0    0 -0.11899055172E+00  0.12355732300E-01 -0.43560085555E-01  0.88916190684E+00  0.88000000000E+00 0.  1.
        -11    1    4    4    0    0  0.54744019441E-01 -0.16840965504E-01  0.30534396501E-01  0.64908676418E-01  0.51100000000E-03 0. -1.
         11    1    4    4    0    0  0.63370158210E-01 -0.18205237537E-01  0.12713706112E-01  0.67149885103E-01  0.51100000000E-03 0.  1.
</event>
<event>
 8    1  0.1094829E+005  0.1043930E+01  0.7957747E-01            NaN
         13   -1    0    0    0    0  0.00000000000E+00  0.00000000000E+00  0.74505805969E-08  0.10566000000E+00  0.10566000000E+00 0. -1.
     999900   -1    0    0    0    0 -0.00000000000E+00 -0.00000000000E+00 -0.74505805969E-08  0.93827000000E+00  0.93827000000E+00 0.  1.
     999902    2    1    2    0    0 -0.14875849882E-01  0.11767776157E-02  0.19956355534E-01  0.10190114960E+01  0.10187067768E+01 0.  0.
     999903    2    3    3    0    0 -0.16059182141E-01  0.37487837659E-01  0.12414396642E+00  0.13212088741E+00  0.19518431976E-01 0.  0.
         14    1    1    2    0    0  0.14875849882E-01 -0.11767776157E-02 -0.19956355534E-01  0.24918503997E-01  0.00000000000E+00 0.  1.
     999901    1    3    3    0    0  0.11833322597E-02 -0.36311060043E-01 -0.10418761089E+00  0.88689060860E+00  0.88000000000E+00 0.  1.
        -11    1    4    4    0    0  0.39609479778E-02  0.44650049029E-02  0.25303929287E-01  0.26003371628E-01  0.51100000000E-03 0.  1.
         11    1    4    4    0    0 -0.20020130119E-01  0.33022832756E-01  0.98840037134E-01  0.10611751578E+00  0.51100000000E-03 0. -1.
</event>
<event>
 8    1  0.1094829E+005  0.1043930E+01  0.7957747E-01            NaN
         13   -1    0    0    0    0  0.00000000000E+00  0.00000000000E+00  0.74505805969E-08  0.10566000000E+00  0.10566000000E+00 0.  1.
     999900   -1    0    0    0    0 -0.00000000000E+00 -0.00000000000E+00 -0.74505805969E-08  0.93827000000E+00  0.93827000000E+00 0. -1.
     999902    2    1    2    0    0  0.21037963404E-01  0.94072495433E-02 -0.83717925160E-02  0.10194110449E+01  0.10191161363E+01 0.  0.
     999903    2    3    3    0    0  0.16718795841E-01 -0.13989604071E-01  0.12558722793E+00  0.12895549459E+00  0.19548417034E-01 0.  0.
         14    1    1    2    0    0 -0.21037963404E-01 -0.94072495433E-02  0.83717925160E-02  0.24518955077E-01  0.00000000000E+00 0.  1.
     999901    1    3    3    0    0  0.43191675627E-02  0.23396853615E-01 -0.13395902044E+00  0.89045555034E+00  0.88000000000E+00 0. -1.
        -11    1    4    4    0    0  0.16112797220E-01 -0.17592558920E-01  0.11932455916E+00  0.12168702438E+00  0.51100000000E-03 0.  1.
         11    1    4    4    0    0  0.60599862142E-03  0.36029548486E-02  0.62626687681E-02  0.72684702014E-02  0.51100000000E-03 0. -1.
</event>
<event>
 8    1  0.1094829E+005  0.1043930E+01  0.7957747E-01            NaN
         13   -1    0    0    0    0  0.00000000000E+00  0.00000000000E+00  0.74505805969E-08  0.10566000000E+00  0.10566000000E+00 0. -1.
     999900   -1    0    0    0    0 -0.00000000000E+00 -0.00000000000E+00 -0.74505805969E-08  0.93827000000E+00  0.93827000000E+00 0. -1.
     999902    2    1    2    0    0  0.14237722080E-02 -0.21736032597E-01  0.75291108172E-02  0.10208828798E+01  0.10206226945E+01 0.  0.
     999903    2    3    3    0    0  0.10257817665E-02 -0.13003036321E+00  0.26773646971E-01  0.13403555775E+00  0.18432443751E-01 0.  0.
         14    1    1    2    0    0 -0.14237722080E-02  0.21736032597E-01 -0.75291108172E-02  0.23047120212E-01  0.00000000000E+00 0.  1.
     999901    1    3    3    0    0  0.39799044148E-03  0.10829433062E+00 -0.19244536154E-01  0.88684732204E+00  0.88000000000E+00 0. -1.
        -11    1    4    4    0    0 -0.66776386119E-02 -0.75985227721E-01  0.21121264829E-01  0.79149950336E-01  0.51100000000E-03 0. -1.
         11    1    4    4    0    0  0.77034203784E-02 -0.54045135493E-01  0.56523821421E-02  0.54885607411E-01  0.51100000000E-03 0.  1.
</event>
<event>
 8    1  0.1094829E+005  0.1043930E+01  0.7957747E-01            NaN
         13   -1    0    0    0    0  0.00000000000E+00  0.00000000000E+00  0.74505805969E-08  0.10566000000E+00  0.10566000000E+00 0.  1.
     999900   -1    0    0    0    0 -0.00000000000E+00 -0.00000000000E+00 -0.74505805969E-08  0.93827000000E+00  0.93827000000E+00 0.  1.
     999902    2    1    2    0    0  0.45042862257E-02 -0.81932194622E-02 -0.21572847225E-01  0.10204181907E+01  0.10201472829E+01 0.  0.
     999903    2    3    3    0    0 -0.30482525864E-01 -0.12601112931E+00  0.71105013790E-02  0.13141432603E+00  0.20277493995E-01 0.  0.
         14    1    1    2    0    0 -0.45042862257E-02  0.81932194622E-02  0.21572847225E-01  0.23511809308E-01  0.00000000000E+00 0.  1.
     999901    1    3    3    0    0  0.34986812090E-01  0.11781790985E+00 -0.28683348604E-01  0.88900386466E+00  0.88000000000E+00 0. -1.
        -11    1    4    4    0    0 -0.87287595242E-02 -0.67239329277E-01 -0.32960885815E-02  0.67885521030E-01  0.51100000000E-03 0.  1.
         11    1    4    4    0    0 -0.21753766340E-01 -0.58771800031E-01  0.10406589960E-01  0.63528804998E-01  0.51100000000E-03 0. -1.
</event>
<event>
 8    1  0.1094829E+005  0.1043930E+01  0.7957747E-01            NaN
         13   -1    0    0    0    0  0.00000000000E+00  0.00000000000E+00  0.74505805969E-08  0.10566000000E+00  0.10566000000E+00 0. -1.
     999900   -1    0    0    0    0 -0.00000000000E+00 -0.00000000000E+00 -0.74505805969E-08  0.93827000000E+00  0.93827000000E+00 0. -1.
     999902    2    1    2    0    0 -0.14236607001E-01  0.17880575700E-01 -0.83214771719E-02  0.10196062883E+01  0.10193161140E+01 0.  0.
     999903    2    3    3    0    0 -0.34346237011E-01 -0.44354971779E-01  0.11329072939E+00  0.12883853558E+00  0.24850580764E-01 0.  0.
         14    1    1    2    0    0  0.14236607001E-01 -0.17880575700E-01  0.83214771719E-02  0.24323711654E-01  0.00000000000E+00 0. -1.
     999901    1    3    3    0    0  0.20109630010E-01  0.62235547479E-01 -0.12161220657E+00  0.89076775277E+00  0.88000000000E+00 0. -1.
        -11    1    4    4    0    0 -0.19230006520E-01 -0.66504130854E-02  0.44777123779E-01  0.49186106574E-01  0.51100000000E-03 0.  1.
         11    1    4    4    0    0 -0.15116230492E-01 -0.37704558693E-01  0.68513605616E-01  0.79652429002E-01  0.51100000000E-03 0. -1.
</event>
<event>
 8    1  0.1094829E+005  0.1043930E+01  0.7957747E-01            NaN
         13   -1    0    0    0    0  0.00000000000E+00  0.00000000000E+00  0.74505805969E-08  0.10566000000E+00  0.10566000000E+00 0.  1.
     999900   -1    0    0    0    0 -0.00000000000E+00 -0.00000000000E+00 -0.74505805969E-08  0.93827000000E+00  0.93827000000E+00 0.  1.
     999902    2    1    2    0    0  0.21148303456E-01  0.81165427387E-02  0.75734669167E-02  0.10200451427E+01  0.10197654666E+01 0.  0.
     999903    2    3    3    0    0 -0.47892989098E-01  0.11392078036E+00 -0.35567412733E-01  0.12997639693E+00  0.18898156197E-01 0.  0.
         14    1    1    2    0    0 -0.21148303456E-01 -0.81165427387E-02 -0.75734669167E-02  0.23884857258E-01  0.00000000000E+00 0. -1.
     999901    1    3    3    0    0  0.69041292554E-01 -0.10580423762E+00  0.43140879650E-01  0.89006874581E+00  0.88000000000E+00 0.  1.
        -11    1    4    4    0    0 -0.28068978507E-01  0.72306016589E-01 -0.12985165008E-01  0.78644155668E-01  0.51100000000E-03 0. -1.
         11    1    4    4    0    0 -0.19824010591E-01  0.41614763770E-01 -0.22582247725E-01  0.51332241261E-01  0.51100000000E-03 0.  1.
</event>
<event>
 8    1  0.1227234E+005  0.1043930E+01  0.7957747E-01            NaN
         13   -1    0    0    0    0  0.00000000000E+00  0.00000000000E+00  0.74505805969E-08  0.10566000000E+00  0.10566000000E+00 0. -1.
     999900   -1    0    0    0    0 -0.00000000000E+00 -0.00000000000E+00 -0.74505805969E-08  0.93827000000E+00  0.93827000000E+00 0.  1.
     999902    2    1    2    0    0  0.12155586720E-01  0.13977118103E-01 -0.14995846800E-01  0.10200973849E+01  0.10198189453E+01 0.  0.
     999903    2    3    3    0    0 -0.40498790140E-02 -0.47539154165E-02 -0.13053158031E+00  0.13219988273E+00  0.19982850242E-01 0.  0.
         14    1    1    2    0    0 -0.12155586720E-01 -0.13977118103E-01  0.14995846800E-01  0.23832615052E-01  0.00000000000E+00 0. -1.
     999901    1    3    3    0    0  0.16205465734E-01  0.18731033520E-01  0.11553573351E+00  0.88789750222E+00  0.88000000000E+00 0. -1.
        -11    1    4    4    0    0  0.74358915988E-02 -0.17790267035E-02 -0.76267553836E-01  0.76651538203E-01  0.51100000000E-03 0. -1.
         11    1    4    4    0    0 -0.11485770613E-01 -0.29748887130E-02 -0.54264026469E-01  0.55548344522E-01  0.51100000000E-03 0.  1.
</event>
<event>
 8    1  0.1125228E+005  0.1043930E+01  0.7957747E-01            NaN
         13   -1    0    0    0    0  0.00000000000E+00  0.00000000000E+00  0.74505805969E-08  0.10566000000E+00  0.10566000000E+00 0. -1.
     999900   -1    0    0    0    0 -0.00000000000E+00 -0.00000000000E+00 -0.74505805969E-08  0.93827000000E+00  0.93827000000E+00 0. -1.
     999902    2    1    2    0    0 -0.56156432341E-02  0.21744690355E-01 -0.11835108650E-02  0.10214407202E+01  0.10211931145E+01 0.  0.
     999903    2    3    3    0    0 -0.36940011235E-01 -0.23953827900E-01 -0.12223081528E+00  0.13142834922E+00  0.19866768074E-01 0.  0.
         14    1    1    2    0    0  0.56156432341E-02 -0.21744690355E-01  0.11835108650E-02  0.22489279791E-01  0.00000000000E+00 0.  1.
     999901    1    3    3    0    0  0.31324368001E-01  0.45698518255E-01  0.12104730442E+00  0.89001237099E+00  0.88000000000E+00 0.  1.
        -11    1    4    4    0    0 -0.15576106802E-01 -0.20622588467E-01 -0.54320983320E-01  0.60157598091E-01  0.51100000000E-03 0.  1.
         11    1    4    4    0    0 -0.21363904433E-01 -0.33312394334E-02 -0.67909831962E-01  0.71270751132E-01  0.51100000000E-03 0. -1.
</event>
<event>
 8    1  0.1094829E+005  0.1043930E+01  0.7957747E-01            NaN
         13   -1    0    0    0    0  0.00000000000E+00  0.00000000000E+00  0.74505805969E-08  0.10566000000E+00  0.10566000000E+00 0. -1.
     999900   -1    0    0    0    0 -0.00000000000E+00 -0.00000000000E+00 -0.74505805969E-08  0.93827000000E+00  0.93827000000E+00 0.  1.
     999902    2    1    2    0    0 -0.20814554879E-01 -0.11694114529E-01  0.52263626483E-02  0.10194900148E+01  0.10191970258E+01 0.  0.
     999903    2    3    3    0    0 -0.99664847866E-01  0.36725673387E-01 -0.73874936105E-01  0.13111010732E+00  0.21224916300E-01 0.  0.
         14    1    1    2    0    0  0.20814554879E-01  0.11694114529E-01 -0.52263626483E-02  0.24439985187E-01  0.00000000000E+00 0.  1.
     999901    1    3    3    0    0  0.78850292987E-01 -0.48419787916E-01  0.79101298753E-01  0.88837990749E+00  0.88000000000E+00 0. -1.
        -11    1    4    4    0    0 -0.13294910667E-01  0.98651508672E-02 -0.19450411402E-01  0.25547122656E-01  0.51100000000E-03 0.  1.
         11    1    4    4    0    0 -0.86369937199E-01  0.26860522520E-01 -0.54424524702E-01  0.10556298467E+00  0.51100000000E-03 0. -1.
</event>
<event>
 8    1  0.1094829E+005  0.1043930E+01  0.7957747E-01            NaN
         13   -1    0    0    0    0  0.00000000000E+00  0.00000000000E+00  0.74505805969E-08  0.10566000000E+00  0.10566000000E+00 0. -1.
     999900   -1    0    0    0    0 -0.00000000000E+00 -0.00000000000E+00 -0.74505805969E-08  0.93827000000E+00  0.93827000000E+00 0. -1.
     999902    2    1    2    0    0  0.96128722334E-05 -0.24133124076E-01 -0.41641995018E-02  0.10194402404E+01  0.10191460422E+01 0.  0.
     999903    2    3    3    0    0 -0.36636385350E-01  0.50937172708E-01 -0.11154336488E+00  0.12898599459E+00  0.16082420729E-01 0.  0.
         14    1    1    2    0    0 -0.96128722334E-05  0.24133124076E-01  0.41641995018E-02  0.24489759647E-01  0.00000000000E+00 0. -1.
     999901    1    3    3    0    0  0.36645998222E-01 -0.75070296784E-01  0.10737916538E+00  0.89045424577E+00  0.88000000000E+00 0.  1.
        -11    1    4    4    0    0 -0.24172742741E-01  0.44676521298E-01 -0.86307520183E-01  0.10014770196E+00  0.51100000000E-03 0. -1.
         11    1    4    4    0    0 -0.12463642609E-01  0.62606514094E-02 -0.25235844694E-01  0.28838292626E-01  0.51100000000E-03 0.  1.
</event>
<event>
 8    1  0.1094829E+005  0.1043930E+01  0.7957747E-01            NaN
         13   -1    0    0    0    0  0.00000000000E+00  0.00000000000E+00  0.74505805969E-08  0.10566000000E+00  0.10566000000E+00 0. -1.
     999900   -1    0    0    0    0 -0.00000000000E+00 -0.00000000000E+00 -0.74505805969E-08  0.93827000000E+00  0.93827000000E+00 0.  1.
     999902    2    1    2    0    0 -0.15513122472E-01  0.33207043108E-03 -0.30552083449E-01  0.10096634413E+01  0.10090817944E+01 0.  0.
     999903    2    3    3    0    0  0.84787737939E-01 -0.91827484837E-02  0.77945134224E-01  0.11729443660E+00  0.20230114494E-01 0.  0.
         14    1    1    2    0    0  0.15513122472E-01 -0.33207043108E-03  0.30552083449E-01  0.34266558664E-01  0.00000000000E+00 0. -1.
     999901    1    3    3    0    0 -0.10030086041E+00  0.95148189148E-02 -0.10849721767E+00  0.89236900474E+00  0.88000000000E+00 0. -1.
        -11    1    4    4    0    0  0.43463928483E-01 -0.14120504126E-01  0.45830515926E-01  0.64724022024E-01  0.51100000000E-03 0.  1.
         11    1    4    4    0    0  0.41323809457E-01  0.49377556420E-02  0.32114618298E-01  0.52570414571E-01  0.51100000000E-03 0. -1.
</event>
<event>
 8    1  0.1094829E+005  0.1043930E+01  0.7957747E-01            NaN
         13   -1    0    0    0    0  0.00000000000E+00  0.00000000000E+00  0.74505805969E-08  0.10566000000E+00  0.10566000000E+00 0.  1.
     999900   -1    0    0    0    0 -0.00000000000E+00 -0.00000000000E+00 -0.74505805969E-08  0.93827000000E+00  0.93827000000E+00 0. -1.
     999902    2    1    2    0    0 -0.97344019259E-03 -0.10006820473E-01 -0.28616597413E-01  0.10135986023E+01  0.10131446752E+01 0.  0.
     999903    2    3    3    0    0  0.62055340162E-01  0.45151736771E-01  0.92023314725E-01  0.12142760856E+00  0.19667971201E-01 0.  0.
         14    1    1    2    0    0  0.97344019259E-03  0.10006820473E-01  0.28616597413E-01  0.30331397747E-01  0.00000000000E+00 0.  1.
     999901    1    3    3    0    0 -0.63028780354E-01 -0.55158557243E-01 -0.12063991214E+00  0.89217099370E+00  0.88000000000E+00 0. -1.
        -11    1    4    4    0    0  0.34499038137E-01  0.36654875226E-01  0.60424403636E-01  0.78645617716E-01  0.51100000000E-03 0.  1.
         11    1    4    4    0    0  0.27556302025E-01  0.84968615452E-02  0.31598911089E-01  0.42781990842E-01  0.51100000000E-03 0. -1.
</event>
<event>
 8    1  0.1094829E+005  0.1043930E+01  0.7957747E-01            NaN
         13   -1    0    0    0    0  0.00000000000E+00  0.00000000000E+00  0.74505805969E-08  0.10566000000E+00  0.10566000000E+00 0.  1.
     999900   -1    0    0    0    0 -0.00000000000E+00 -0.00000000000E+00 -0.74505805969E-08  0.93827000000E+00  0.93827000000E+00 0.  1.
     999902    2    1    2    0    0  0.18588554216E-01 -0.10072892140E-02  0.14739242811E-01  0.10201856479E+01  0.10199092910E+01 0.  0.
     999903    2    3    3    0    0 -0.73781145343E-01 -0.39182172011E-01 -0.94596415012E-01  0.12780469270E+00  0.20165756427E-01 0.  0.
         14    1    1    2    0    0 -0.18588554216E-01  0.10072892140E-02 -0.14739242811E-01  0.23744352129E-01  0.00000000000E+00 0. -1.
     999901    1    3    3    0    0  0.92369699559E-01  0.38174882797E-01  0.10933565782E+00  0.89238095517E+00  0.88000000000E+00 0. -1.
        -11    1    4    4    0    0 -0.34898021407E-01 -0.13115654527E-01 -0.55235957940E-01  0.66642062260E-01  0.51100000000E-03 0. -1.
         11    1    4    4    0    0 -0.38883123936E-01 -0.26066517485E-01 -0.39360457073E-01  0.61162630443E-01  0.51100000000E-03 0.  1.
</event>
<event>
 8    1  0.1094829E+005  0.1043930E+01  0.7957747E-01            NaN
         13   -1    0    0    0    0  0.00000000000E+00  0.00000000000E+00  0.74505805969E-08  0.10566000000E+00  0.10566000000E+00 0.  1.
     999900   -1    0    0    0    0 -0.00000000000E+00 -0.00000000000E+00 -0.74505805969E-08  0.93827000000E+00  0.93827000000E+00 0.  1.
     999902    2    1    2    0    0  0.69095948761E-02  0.11999850647E-01  0.18319856894E-01  0.10209657653E+01  0.10207074693E+01 0.  0.
     999903    2    3    3    0    0 -0.49763765179E-01 -0.53552506096E-01  0.10818890899E+00  0.13215452118E+00  0.20388089836E-01 0.  0.
         14    1    1    2    0    0 -0.69095948761E-02 -0.11999850647E-01 -0.18319856894E-01  0.22964234660E-01  0.00000000000E+00 0. -1.
     999901    1    3    3    0    0  0.56673360055E-01  0.65552356743E-01 -0.89869052095E-01  0.88881124416E+00  0.88000000000E+00 0.  1.
        -11    1    4    4    0    0 -0.65820776679E-02 -0.18810389543E-01  0.22059122744E-01  0.29732482547E-01  0.51100000000E-03 0.  1.
         11    1    4    4    0    0 -0.43181687511E-01 -0.34742116553E-01  0.86129786245E-01  0.10242203864E+00  0.51100000000E-03 0. -1.
</event>
<event>
 8    1  0.1094829E+005  0.1043930E+01  0.7957747E-01            NaN
         13   -1    0    0    0    0  0.00000000000E+00  0.00000000000E+00  0.74505805969E-08  0.10566000000E+00  0.10566000000E+00 0.  1.
     999900   -1    0    0    0    0 -0.00000000000E+00 -0.00000000000E+00 -0.74505805969E-08  0.93827000000E+00  0.93827000000E+00 0.  1.
     999902    2    1    2    0    0  0.18802828228E-02 -0.22273116608E-01 -0.19395376384E-01  0.10143359497E+01  0.10139041429E+01 0.  0.
     999903    2    3    3    0    0 -0.82121263641E-01  0.18377036977E-01  0.87393441768E-01  0.12298161699E+00  0.20130748202E-01 0.  0.
         14    1    1    2    0    0 -0.18802828228E-02  0.22273116608E-01  0.19395376384E-01  0.29594050280E-01  0.00000000000E+00 0. -1.
     999901    1    3    3    0    0  0.84001546463E-01 -0.40650153585E-01 -0.10678881815E+00  0.89135433273E+00  0.88000000000E+00 0.  1.
        -11    1    4    4    0    0 -0.11228875816E-01 -0.28798985520E-02  0.18674324359E-01  0.21985744905E-01  0.51100000000E-03 0.  1.
         11    1    4    4    0    0 -0.70892387824E-01  0.21256935529E-01  0.68719117409E-01  0.10099587208E+00  0.51100000000E-03 0. -1.
</event>
<event>
 8    1  0.1094829E+005  0.1043930E+01  0.7957747E-01            NaN
         13   -1    0    0    0    0  0.00000000000E+00  0.00000000000E+00  0.74505805969E-08  0.10566000000E+00  0.10566000000E+00 0. -1.
     999900   -1    0    0    0    0 -0.00000000000E+00 -0.00000000000E+00 -0.74505805969E-08  0.93827000000E+00  0.93827000000E+00 0. -1.
     999902    2    1    2    0    0 -0.18115190939E-01  0.94625288269E-02 -0.11877225844E-01  0.10202917241E+01  0.10200178597E+01 0.  0.
     999903    2    3    3    0    0  0.15601527081E-01 -0.38903327103E-01 -0.12281317223E+00  0.13136942304E+00  0.20444400949E-01 0.  0.
         14    1    1    2    0    0  0.18115190939E-01 -0.94625288269E-02  0.11877225844E-01  0.23638275917E-01  0.00000000000E+00 0.  1.
     999901    1    3    3    0    0 -0.33716718021E-01  0.48365855930E-01  0.11093594638E+00  0.88892230104E+00  0.88000000000E+00 0.  1.
        -11    1    4    4    0    0 -0.19130066932E-03 -0.15749786003E-01 -0.68026376781E-01  0.69827941499E-01  0.51100000000E-03 0.  1.
         11    1    4    4    0    0  0.15792827751E-01 -0.23153541100E-01 -0.54786795446E-01  0.61541481540E-01  0.51100000000E-03 0. -1.
</event>
<event>
 8    1  0.1094829E+005  0.1043930E+01  0.7957747E-01            NaN
         13   -1    0    0    0    0  0.00000000000E+00  0.00000000000E+00  0.74505805969E-08  0.10566000000E+00  0.10566000000E+00 0. -1.
     999900   -1    0    0    0    0 -0.00000000000E+00 -0.00000000000E+00 -0.74505805969E-08  0.93827000000E+00  0.93827000000E+00 0.  1.
     999902    2    1    2    0    0 -0.87257371682E-02 -0.22730739166E-01  0.71037989325E-02  0.10185668584E+01  0.10182510280E+01 0.  0.
     999903    2    3    3    0    0 -0.65715691115E-01  0.22252523171E-01  0.10807980525E+00  0.12982195542E+00  0.18941197433E-01 0.  0.
         14    1    1    2    0    0  0.87257371682E-02  0.22730739166E-01 -0.71037989325E-02  0.25363141592E-01  0.00000000000E+00 0.  1.
     999901    1    3    3    0    0  0.56989953947E-01 -0.44983262337E-01 -0.10097600631E+00  0.88874490299E+00  0.88000000000E+00 0.  1.
        -11    1    4    4    0    0 -0.20446030799E-01 -0.19888079793E-02  0.29621081729E-01  0.36050868733E-01  0.51100000000E-03 0. -1.
         11    1    4    4    0    0 -0.45269660316E-01  0.24241331150E-01  0.78458723516E-01  0.93771086684E-01  0.51100000000E-03 0.  1.
</event>
<event>
 8    1  0.1094829E+005  0.1043930E+01  0.7957747E-01            NaN
         13   -1    0    0    0    0  0.00000000000E+00  0.00000000000E+00  0.74505805969E-08  0.10566000000E+00  0.10566000000E+00 0.  1.
     999900   -1    0    0    0    0 -0.00000000000E+00 -0.00000000000E+00 -0.74505805969E-08  0.93827000000E+00  0.93827000000E+00 0.  1.
     999902    2    1    2    0    0 -0.11907793061E-01 -0.20365503655E-01 -0.25448343784E-02  0.10202018425E+01  0.10199258669E+01 0.  0.
     999903    2    3    3    0    0 -0.83549967647E-01 -0.25042512857E-01 -0.97206279791E-01  0.13221802239E+00  0.20611163707E-01 0.  0.
         14    1    1    2    0    0  0.11907793061E-01  0.20365503655E-01  0.25448343784E-02  0.23728157465E-01  0.00000000000E+00 0. -1.
     999901    1    3    3    0    0  0.71642174587E-01  0.46770092023E-02  0.94661445413E-01  0.88798382015E+00  0.88000000000E+00 0. -1.
        -11    1    4    4    0    0 -0.59093439212E-01 -0.27194984712E-01 -0.71650510977E-01  0.96776332828E-01  0.51100000000E-03 0. -1.
         11    1    4    4    0    0 -0.24456528435E-01  0.21524718550E-02 -0.25555768814E-01  0.35441689560E-01  0.51100000000E-03 0.  1.
</event>
<event>
 8    1  0.1094829E+005  0.1043930E+01  0.7957747E-01            NaN
         13   -1    0    0    0    0  0.00000000000E+00  0.00000000000E+00  0.74505805969E-08  0.10566000000E+00  0.10566000000E+00 0.  1.
     999900   -1    0    0    0    0 -0.00000000000E+00 -0.00000000000E+00 -0.74505805969E-08  0.93827000000E+00  0.93827000000E+00 0.  1.
     999902    2    1    2    0    0 -0.81555238243E-02  0.44089437547E-02  0.22080011669E-01  0.10199825937E+01  0.10197014333E+01 0.  0.
     999903    2    3    3    0    0  0.97840106557E-01  0.56739014566E-01 -0.57259459896E-01  0.12854091768E+00  0.21263102909E-01 0.  0.
         14    1    1    2    0    0  0.81555238243E-02 -0.44089437547E-02 -0.22080011669E-01  0.23947406315E-01  0.00000000000E+00 0. -1.
     999901    1    3    3    0    0 -0.10599563038E+00 -0.52330070811E-01  0.79339471565E-01  0.89144167601E+00  0.88000000000E+00 0.  1.
        -11    1    4    4    0    0  0.89910156811E-01  0.50283174034E-01 -0.44593709833E-01  0.11225459441E+00  0.51100000000E-03 0. -1.
         11    1    4    4    0    0  0.79299497462E-02  0.64558405320E-02 -0.12665750063E-01  0.16286323269E-01  0.51100000000E-03 0.  1.
</event>
<event>
 8    1  0.1094829E+005  0.1043930E+01  0.7957747E-01            NaN
         13   -1    0    0    0    0  0.00000000000E+00  0.00000000000E+00  0.74505805969E-08  0.10566000000E+00  0.10566000000E+00 0. -1.
     999900   -1    0    0    0    0 -0.00000000000E+00 -0.00000000000E+00 -0.74505805969E-08  0.93827000000E+00  0.93827000000E+00 0. -1.
     999902    2    1    2    0    0  0.20725238812E-01 -0.11182630150E-01  0.22984454978E-02  0.10202684364E+01  0.10199940258E+01 0.  0.
     999903    2    3    3    0    0  0.67551109536E-01  0.22994574709E-01 -0.10856314081E+00  0.13142028579E+00  0.19835148334E-01 0.  0.
         14    1    1    2    0    0 -0.20725238812E-01  0.11182630150E-01 -0.22984454978E-02  0.23661563613E-01  0.00000000000E+00 0. -1.
     999901    1    3    3    0    0 -0.46825870724E-01 -0.34177204859E-01  0.11086158631E+00  0.88884815060E+00  0.88000000000E+00 0.  1.
        -11    1    4    4    0    0  0.16437780149E-02  0.56547207256E-02 -0.87004024487E-02  0.10518364722E-01  0.51100000000E-03 0.  1.
         11    1    4    4    0    0  0.65907331521E-01  0.17339853983E-01 -0.99862738360E-01  0.12090192107E+00  0.51100000000E-03 0. -1.
</event>
<event>
 8    1  0.1094829E+005  0.1043930E+01  0.7957747E-01            NaN
         13   -1    0    0    0    0  0.00000000000E+00  0.00000000000E+00  0.74505805969E-08  0.10566000000E+00  0.10566000000E+00 0. -1.
     999900   -1    0    0    0    0 -0.00000000000E+00 -0.00000000000E+00 -0.74505805969E-08  0.93827000000E+00  0.93827000000E+00 0. -1.
     999902    2    1    2    0    0 -0.20272402453E-01 -0.11390628533E-01 -0.91352423451E-03  0.10206587464E+01  0.10203934169E+01 0.  0.
     999903    2    3    3    0    0  0.22159159860E-01 -0.11700114725E-01 -0.12639521705E+00  0.13074516151E+00  0.22150063514E-01 0.  0.
         14    1    1    2    0    0  0.20272402453E-01  0.11390628533E-01  0.91352423451E-03  0.23271253643E-01  0.00000000000E+00 0.  1.
     999901    1    3    3    0    0 -0.42431562313E-01  0.30948619239E-03  0.12548169282E+00  0.88991358485E+00  0.88000000000E+00 0.  1.
        -11    1    4    4    0    0  0.76623107860E-02 -0.15940439292E-01 -0.55311463736E-01  0.58072607596E-01  0.51100000000E-03 0.  1.
         11    1    4    4    0    0  0.14496849074E-01  0.42403245663E-02 -0.71083753319E-01  0.72672553914E-01  0.51100000000E-03 0. -1.
</event>
<event>
 8    1  0.1094829E+005  0.1043930E+01  0.7957747E-01            NaN
         13   -1    0    0    0    0  0.00000000000E+00  0.00000000000E+00  0.74505805969E-08  0.10566000000E+00  0.10566000000E+00 0.  1.
     999900   -1    0    0    0    0 -0.00000000000E+00 -0.00000000000E+00 -0.74505805969E-08  0.93827000000E+00  0.93827000000E+00 0. -1.
     999902    2    1    2    0    0  0.19117132970E-01  0.13887568901E-01  0.26822889740E-02  0.10201492511E+01  0.10198720364E+01 0.  0.
     999903    2    3    3    0    0  0.19455374535E-01 -0.12599601653E+00 -0.22541307171E-02  0.12908701979E+00  0.20121376519E-01 0.  0.
         14    1    1    2    0    0 -0.19117132970E-01 -0.13887568901E-01 -0.26822889740E-02  0.23780748876E-01  0.00000000000E+00 0. -1.
     999901    1    3    3    0    0 -0.33824156556E-03  0.13988358543E+00  0.49364196911E-02  0.89106223134E+00  0.88000000000E+00 0. -1.
        -11    1    4    4    0    0  0.13193331306E-01 -0.10341609470E+00  0.54983814524E-02  0.10440041166E+00  0.51100000000E-03 0.  1.
         11    1    4    4    0    0  0.62620432288E-02 -0.22579921824E-01 -0.77525121695E-02  0.24686608129E-01  0.51100000000E-03 0. -1.
</event>
<event>
 8    1  0.1094829E+005  0.1043930E+01  0.7957747E-01            NaN
         13   -1    0    0    0    0  0.00000000000E+00  0.00000000000E+00  0.74505805969E-08  0.10566000000E+00  0.10566000000E+00 0. -1.
     999900   -1    0    0    0    0 -0.00000000000E+00 -0.00000000000E+00 -0.74505805969E-08  0.93827000000E+00  0.93827000000E+00 0. -1.
     999902    2    1    2    0    0  0.98861846218E-02  0.19138647125E-01  0.11586390617E-01  0.10194704639E+01  0.10191770002E+01 0.  0.
     999903    2    3    3    0    0 -0.16962338886E-01  0.14325684688E-01 -0.12507384279E+00  0.12850468046E+00  0.19417532449E-01 0.  0.
         14    1    1    2    0    0 -0.98861846218E-02 -0.19138647125E-01 -0.11586390617E-01  0.24459536129E-01  0.00000000000E+00 0.  1.
     999901    1    3    3    0    0  0.26848523508E-01  0.48129624369E-02  0.13666023341E+00  0.89096578342E+00  0.88000000000E+00 0.  1.
        -11    1    4    4    0    0 -0.39020072450E-02  0.66536521073E-02 -0.89549062049E-01  0.89882102678E-01  0.51100000000E-03 0. -1.
         11    1    4    4    0    0 -0.13060331641E-01  0.76720325805E-02 -0.35524780741E-01  0.38622577778E-01  0.51100000000E-03 0.  1.
</event>
<event>
 8    1  0.1094829E+005  0.1043930E+01  0.7957747E-01            NaN
         13   -1    0    0    0    0  0.00000000000E+00  0.00000000000E+00  0.74505805969E-08  0.10566000000E+00  0.10566000000E+00 0. -1.
     999900   -1    0    0    0    0 -0.00000000000E+00 -0.00000000000E+00 -0.74505805969E-08  0.93827000000E+00  0.93827000000E+00 0.  1.
     999902    2    1    2    0    0  0.58522382842E-02 -0.22248833924E-01  0.20943582331E-02  0.10208292286E+01  0.10205678166E+01 0.  0.
     999903    2    3    3    0    0 -0.78872895622E-01  0.74930323560E-01 -0.65876889123E-01  0.12884143301E+00  0.20612212117E-01 0.  0.
         14    1    1    2    0    0 -0.58522382842E-02  0.22248833924E-01 -0.20943582331E-02  0.23100771423E-01  0.00000000000E+00 0. -1.
     999901    1    3    3    0    0  0.84725133906E-01 -0.97179157484E-01  0.67971247356E-01  0.89198779556E+00  0.88000000000E+00 0. -1.
        -11    1    4    4    0    0 -0.69185242392E-01  0.72680228578E-01 -0.62969705070E-01  0.11846711893E+00  0.51100000000E-03 0.  1.
         11    1    4    4    0    0 -0.96876532297E-02  0.22500949815E-02 -0.29071840529E-02  0.10374314081E-01  0.51100000000E-03 0. -1.
</event>
<event>
 8    1  0.1094829E+005  0.1043930E+01  0.7957747E-01            NaN
         13   -1    0    0    0    0  0.00000000000E+00  0.00000000000E+00  0.74505805969E-08  0.10566000000E+00  0.10566000000E+00 0. -1.
     999900   -1    0    0    0    0 -0.00000000000E+00 -0.00000000000E+00 -0.74505805969E-08  0.93827000000E+00  0.93827000000E+00 0.  1.
     999902    2    1    2    0    0 -0.43678925005E-02 -0.22655332566E-01 -0.64592445265E-02  0.10199703585E+01  0.10196889074E+01 0.  0.
     999903    2    3    3    0    0 -0.70866664590E-01  0.37479934168E-01 -0.10092301205E+00  0.13038520784E+00  0.19698183845E-01 0.  0.
         14    1    1    2    0    0  0.43678925005E-02  0.22655332566E-01  0.64592445265E-02  0.23959641450E-01  0.00000000000E+00 0.  1.
     999901    1    3    3    0    0  0.66498772089E-01 -0.60135266734E-01  0.94463767520E-01  0.88958515071E+00  0.88000000000E+00 0. -1.
        -11    1    4    4    0    0 -0.38307450226E-01  0.21719717831E-01 -0.70460972191E-01  0.83091615754E-01  0.51100000000E-03 0. -1.
         11    1    4    4    0    0 -0.32559214363E-01  0.15760216337E-01 -0.30462039856E-01  0.47293592083E-01  0.51100000000E-03 0.  1.
</event>
<event>
 8    1  0.1094829E+005  0.1043930E+01  0.7957747E-01            NaN
         13   -1    0    0    0    0  0.00000000000E+00  0.00000000000E+00  0.74505805969E-08  0.10566000000E+00  0.10566000000E+00 0.  1.
     999900   -1    0    0    0    0 -0.00000000000E+00 -0.00000000000E+00 -0.74505805969E-08  0.93827000000E+00  0.93827000000E+00 0.  1.
     999902    2    1    2    0    0  0.16656697469E-01 -0.87924538939E-02  0.15680382109E-01  0.10194223033E+01  0.10191276687E+01 0.  0.
     999903    2    3    3    0    0  0.45838238945E-01  0.40621747262E-01  0.11512696065E+00  0.13196360134E+00  0.20221387440E-01 0.  0.
         14    1    1    2    0    0 -0.16656697469E-01  0.87924538939E-02 -0.15680382109E-01  0.24507696733E-01  0.00000000000E+00 0. -1.
     999901    1    3    3    0    0 -0.29181541475E-01 -0.49414201156E-01 -0.99446578542E-01  0.88745870193E+00  0.88000000000E+00 0.  1.
        -11    1    4    4    0    0  0.14005669202E-01  0.18925860928E-01  0.27274633280E-01  0.36034895909E-01  0.51100000000E-03 0.  1.
         11    1    4    4    0    0  0.31832569743E-01  0.21695886334E-01  0.87852327372E-01  0.95928705432E-01  0.51100000000E-03 0. -1.
</event>
<event>
 8    1  0.1094829E+005  0.1043930E+01  0.7957747E-01            NaN
         13   -1    0    0    0    0  0.00000000000E+00  0.00000000000E+00  0.74505805969E-08  0.10566000000E+00  0.10566000000E+00 0.  1.
     999900   -1    0    0    0    0 -0.00000000000E+00 -0.00000000000E+00 -0.74505805969E-08  0.93827000000E+00  0.93827000000E+00 0.  1.
     999902    2    1    2    0    0  0.14678644100E-01  0.24909104415E-02 -0.16652556805E-01  0.10215922545E+01  0.10213480110E+01 0.  0.
     999903    2    3    3    0    0  0.38940946911E-01  0.37363645617E-01  0.11721046009E+00  0.13045585958E+00  0.19183325707E-01 0.  0.
         14    1    1    2    0    0 -0.14678644100E-01 -0.24909104415E-02  0.16652556805E-01  0.22337745535E-01  0.00000000000E+00 0.  1.
     999901    1    3    3    0    0 -0.24262302810E-01 -0.34872735175E-01 -0.13386301689E+00  0.89113639488E+00  0.88000000000E+00 0.  1.
        -11    1    4    4    0    0  0.27363882799E-01  0.17214971078E-01  0.83199385393E-01  0.89261056244E-01  0.51100000000E-03 0. -1.
         11    1    4    4    0    0  0.11577064112E-01  0.20148674539E-01  0.34011074693E-01  0.41194803336E-01  0.51100000000E-03 0.  1.
</event>
<event>
 8    1  0.1094829E+005  0.1043930E+01  0.7957747E-01            NaN
         13   -1    0    0    0    0  0.00000000000E+00  0.00000000000E+00  0.74505805969E-08  0.10566000000E+00  0.10566000000E+00 0. -1.
     999900   -1    0    0    0    0 -0.00000000000E+00 -0.00000000000E+00 -0.74505805969E-08  0.93827000000E+00  0.93827000000E+00 0. -1.
     999902    2    1    2    0    0 -0.82882072287E-02  0.13100511074E-01  0.17214019650E-01  0.10207645032E+01  0.10205016074E+01 0.  0.
     999903    2    3    3    0    0  0.70719793625E-01  0.38896878851E-02 -0.10433716738E+00  0.12885543018E+00  0.26477509482E-01 0.  0.
         14    1    1    2    0    0  0.82882072287E-02 -0.13100511074E-01 -0.17214019650E-01  0.23165496800E-01  0.00000000000E+00 0.  1.
     999901    1    3    3    0    0 -0.79008000854E-01  0.92108231885E-02  0.12155118703E+00  0.89190907302E+00  0.88000000000E+00 0.  1.
        -11    1    4    4    0    0  0.27372589261E-01  0.14476142825E-01 -0.44238637164E-01  0.54001254551E-01  0.51100000000E-03 0. -1.
         11    1    4    4    0    0  0.43347204364E-01 -0.10586454939E-01 -0.60098530216E-01  0.74854175631E-01  0.51100000000E-03 0.  1.
</event>
<event>
 8    1  0.1094829E+005  0.1043930E+01  0.7957747E-01            NaN
         13   -1    0    0    0    0  0.00000000000E+00  0.00000000000E+00  0.74505805969E-08  0.10566000000E+00  0.10566000000E+00 0. -1.
     999900   -1    0    0    0    0 -0.00000000000E+00 -0.00000000000E+00 -0.74505805969E-08  0.93827000000E+00  0.93827000000E+00 0.  1.
     999902    2    1    2    0    0 -0.22185905192E-02 -0.20030346342E-01 -0.15796034434E-01  0.10183243049E+01  0.10180023273E+01 0.  0.
     999903    2    3    3    0    0 -0.12221181953E+00  0.13284609420E-01 -0.34884946361E-01  0.12935149999E+00  0.20065925986E-01 0.  0.
         14    1    1    2    0    0  0.22185905192E-02  0.20030346342E-01  0.15796034434E-01  0.25605695115E-01  0.00000000000E+00 0. -1.
     999901    1    3    3    0    0  0.11999322901E+00 -0.33314955762E-01  0.19088911927E-01  0.88897280490E+00  0.88000000000E+00 0. -1.
        -11    1    4    4    0    0 -0.77149353248E-01  0.13741143804E-02 -0.28711284959E-01  0.82331706541E-01  0.51100000000E-03 0. -1.
         11    1    4    4    0    0 -0.45062466285E-01  0.11910495040E-01 -0.61736614021E-02  0.47019793448E-01  0.51100000000E-03 0.  1.
</event>
<event>
 8    1  0.1094829E+005  0.1043930E+01  0.7957747E-01            NaN
         13   -1    0    0    0    0  0.00000000000E+00  0.00000000000E+00  0.74505805969E-08  0.10566000000E+00  0.10566000000E+00 0.  1.
     999900   -1    0    0    0    0 -0.00000000000E+00 -0.00000000000E+00 -0.74505805969E-08  0.93827000000E+00  0.93827000000E+00 0.  1.
     999902    2    1    2    0    0  0.15684502049E-01  0.11159995814E-01  0.12846581574E-01  0.10207873172E+01  0.10205249449E+01 0.  0.
     999903    2    3    3    0    0 -0.25869323083E-01  0.12779353455E+00 -0.31552292268E-02  0.13197566068E+00  0.20179449742E-01 0.  0.
         14    1    1    2    0    0 -0.15684502049E-01 -0.11159995814E-01 -0.12846581574E-01  0.23142682844E-01  0.00000000000E+00 0. -1.
     999901    1    3    3    0    0  0.41553825132E-01 -0.11663353873E+00  0.16001810801E-01  0.88881165648E+00  0.88000000000E+00 0. -1.
        -11    1    4    4    0    0 -0.16551195281E-01  0.74134160007E-01 -0.11660336638E-01  0.76850766533E-01  0.51100000000E-03 0. -1.
         11    1    4    4    0    0 -0.93181278017E-02  0.53659374539E-01  0.85051074113E-02  0.55124894147E-01  0.51100000000E-03 0.  1.
</event>
<event>
 8    1  0.1094829E+005  0.1043930E+01  0.7957747E-01            NaN
         13   -1    0    0    0    0  0.00000000000E+00  0.00000000000E+00  0.74505805969E-08  0.10566000000E+00  0.10566000000E+00 0. -1.
     999900   -1    0    0    0    0 -0.00000000000E+00 -0.00000000000E+00 -0.74505805969E-08  0.93827000000E+00  0.93827000000E+00 0.  1.
     999902    2    1    2    0    0  0.20280435842E-01  0.74002366799E-02  0.12420752214E-02  0.10223058854E+01  0.10220771600E+01 0.  0.
     999903    2    3    3    0    0  0.11981451226E+00  0.12034340448E-01 -0.57099076507E-01  0.13476309925E+00  0.20011138939E-01 0.  0.
         14    1    1    2    0    0 -0.20280435842E-01 -0.74002366799E-02 -0.12420752214E-02  0.21624114588E-01  0.00000000000E+00 0. -1.
     999901    1    3    3    0    0 -0.99534076422E-01 -0.46341037679E-02  0.58341151728E-01  0.88754278616E+00  0.88000000000E+00 0. -1.
        -11    1    4    4    0    0  0.57307438109E-01  0.43911730055E-02 -0.16362939636E-01  0.59761457291E-01  0.51100000000E-03 0.  1.
         11    1    4    4    0    0  0.62507074155E-01  0.76431674424E-02 -0.40736136871E-01  0.75001641956E-01  0.51100000000E-03 0. -1.
</event>
<event>
 8    1  0.1094829E+005  0.1043930E+01  0.7957747E-01            NaN
         13   -1    0    0    0    0  0.00000000000E+00  0.00000000000E+00  0.74505805969E-08  0.10566000000E+00  0.10566000000E+00 0.  1.
     999900   -1    0    0    0    0 -0.00000000000E+00 -0.00000000000E+00 -0.74505805969E-08  0.93827000000E+00  0.93827000000E+00 0.  1.
     999902    2    1    2    0    0 -0.23583874844E-01  0.17929569959E-02  0.35148965801E-02  0.10200183220E+01  0.10197380099E+01 0.  0.
     999903    2    3    3    0    0  0.12376104876E+00 -0.95598941637E-02 -0.19641890086E-01  0.12739541700E+00  0.20871024412E-01 0.  0.
         14    1    1    2    0    0  0.23583874844E-01 -0.17929569959E-02 -0.35148965801E-02  0.23911678013E-01  0.00000000000E+00 0. -1.
     999901    1    3    3    0    0 -0.14734492360E+00  0.11352851160E-01  0.23156786666E-01  0.89262290499E+00  0.88000000000E+00 0.  1.
        -11    1    4    4    0    0  0.12286290697E-01  0.43272708803E-03  0.41237257475E-02  0.12977150183E-01  0.51100000000E-03 0. -1.
         11    1    4    4    0    0  0.11147475806E+00 -0.99926212518E-02 -0.23765615833E-01  0.11441826682E+00  0.51100000000E-03 0.  1.
</event>
<event>
 8    1  0.1094829E+005  0.1043930E+01  0.7957747E-01            NaN
         13   -1    0    0    0    0  0.00000000000E+00  0.00000000000E+00  0.74505805969E-08  0.10566000000E+00  0.10566000000E+00 0. -1.
     999900   -1    0    0    0    0 -0.00000000000E+00 -0.00000000000E+00 -0.74505805969E-08  0.93827000000E+00  0.93827000000E+00 0. -1.
     999902    2    1    2    0    0  0.77226084818E-02  0.91762876100E-02  0.20338053586E-01  0.10203189992E+01  0.10200457738E+01 0.  0.
     999903    2    3    3    0    0 -0.61312431881E-01  0.10527341540E+00 -0.41709443887E-01  0.13023451627E+00  0.19484486801E-01 0.  0.
         14    1    1    2    0    0 -0.77226084818E-02 -0.91762876100E-02 -0.20338053586E-01  0.23611000821E-01  0.00000000000E+00 0.  1.
     999901    1    3    3    0    0  0.69035040363E-01 -0.96097127793E-01  0.62047497473E-01  0.89008448291E+00  0.88000000000E+00 0. -1.
        -11    1    4    4    0    0 -0.24729373414E-01  0.45674348822E-01 -0.27865610123E-01  0.58944392425E-01  0.51100000000E-03 0.  1.
         11    1    4    4    0    0 -0.36583058467E-01  0.59599066581E-01 -0.13843833763E-01  0.71290123849E-01  0.51100000000E-03 0. -1.
</event>
<event>
 8    1  0.1094829E+005  0.1043930E+01  0.7957747E-01            NaN
         13   -1    0    0    0    0  0.00000000000E+00  0.00000000000E+00  0.74505805969E-08  0.10566000000E+00  0.10566000000E+00 0. -1.
     999900   -1    0    0    0    0 -0.00000000000E+00 -0.00000000000E+00 -0.74505805969E-08  0.93827000000E+00  0.93827000000E+00 0.  1.
     999902    2    1    2    0    0 -0.68243632154E-02 -0.17594996535E-01  0.15134863093E-01  0.10197386810E+01  0.10194516945E+01 0.  0.
     999903    2    3    3    0    0  0.23593595295E-01  0.12331820637E+00 -0.11045871826E-01  0.12762477913E+00  0.20050815469E-01 0.  0.
         14    1    1    2    0    0  0.68243632154E-02  0.17594996535E-01 -0.15134863093E-01  0.24191319047E-01  0.00000000000E+00 0. -1.
     999901    1    3    3    0    0 -0.30417958510E-01 -0.14091320291E+00  0.26180734919E-01  0.89211390183E+00  0.88000000000E+00 0. -1.
        -11    1    4    4    0    0  0.17758171000E-01  0.52882222189E-01 -0.11425679067E-01  0.56944616287E-01  0.51100000000E-03 0.  1.
         11    1    4    4    0    0  0.58354242949E-02  0.70435984182E-01  0.37980724081E-03  0.70680162838E-01  0.51100000000E-03 0. -1.
</event>
<event>
 8    1  0.1094829E+005  0.1043930E+01  0.7957747E-01            NaN
         13   -1    0    0    0    0  0.00000000000E+00  0.00000000000E+00  0.74505805969E-08  0.10566000000E+00  0.10566000000E+00 0.  1.
     999900   -1    0    0    0    0 -0.00000000000E+00 -0.00000000000E+00 -0.74505805969E-08  0.93827000000E+00  0.93827000000E+00 0.  1.
     999902    2    1    2    0    0 -0.17365094622E-02 -0.17534507212E-01 -0.16581341940E-01  0.10197346428E+01  0.10194475595E+01 0.  0.
     999903    2    3    3    0    0  0.33163291412E-01  0.10383360163E-01  0.12159904354E+00  0.12783149654E+00  0.18626487944E-01 0.  0.
         14    1    1    2    0    0  0.17365094622E-02  0.17534507212E-01  0.16581341940E-01  0.24195357175E-01  0.00000000000E+00 0.  1.
     999901    1    3    3    0    0 -0.34899800874E-01 -0.27917867375E-01 -0.13818038548E+00  0.89190314628E+00  0.88000000000E+00 0.  1.
        -11    1    4    4    0    0  0.23237492898E-01 -0.18073847487E-02  0.63627365736E-01  0.67763932201E-01  0.51100000000E-03 0.  1.
         11    1    4    4    0    0  0.99257985141E-02  0.12190744912E-01  0.57971677802E-01  0.60067564341E-01  0.51100000000E-03 0. -1.
</event>
<event>
 8    1  0.1094829E+005  0.1043930E+01  0.7957747E-01            NaN
         13   -1    0    0    0    0  0.00000000000E+00  0.00000000000E+00  0.74505805969E-08  0.10566000000E+00  0.10566000000E+00 0.  1.
     999900   -1    0    0    0    0 -0.00000000000E+00 -0.00000000000E+00 -0.74505805969E-08  0.93827000000E+00  0.93827000000E+00 0. -1.
     999902    2    1    2    0    0 -0.85274367692E-02  0.13013458680E-01 -0.16612503944E-01  0.10211694514E+01  0.10209157683E+01 0.  0.
     999903    2    3    3    0    0  0.10981264818E+00  0.27772408898E-01 -0.63767079133E-01  0.13187436187E+00  0.22236963414E-01 0.  0.
         14    1    1    2    0    0  0.85274367692E-02 -0.13013458680E-01  0.16612503944E-01  0.22760548586E-01  0.00000000000E+00 0.  1.
     999901    1    3    3    0    0 -0.11834008495E+00 -0.14758950218E-01  0.47154575190E-01  0.88929508954E+00  0.88000000000E+00 0.  1.
        -11    1    4    4    0    0  0.65651348732E-01  0.26260781987E-01 -0.45326427402E-01  0.83990918575E-01  0.51100000000E-03 0.  1.
         11    1    4    4    0    0  0.44161299449E-01  0.15116269110E-02 -0.18440651731E-01  0.47883443300E-01  0.51100000000E-03 0. -1.
</event>
<event>
 8    1  0.1094829E+005  0.1043930E+01  0.7957747E-01            NaN
         13   -1    0    0    0    0  0.00000000000E+00  0.00000000000E+00  0.74505805969E-08  0.10566000000E+00  0.10566000000E+00 0.  1.
     999900   -1    0    0    0    0 -0.00000000000E+00 -0.00000000000E+00 -0.74505805969E-08  0.93827000000E+00  0.93827000000E+00 0. -1.
     999902    2    1    2    0    0 -0.19380511805E-01 -0.12861082349E-01 -0.48180744800E-02  0.10201765683E+01  0.10198999975E+01 0.  0.
     999903    2    3    3    0    0  0.10340929541E+00 -0.72263361497E-01 -0.21144842618E-01  0.12951808666E+00  0.20306516461E-01 0.  0.
         14    1    1    2    0    0  0.19380511805E-01  0.12861082349E-01  0.48180744800E-02  0.23753431724E-01  0.00000000000E+00 0.  1.
     999901    1    3    3    0    0 -0.12278980721E+00  0.59402279148E-01  0.16326768138E-01  0.89065848162E+00  0.88000000000E+00 0.  1.
        -11    1    4    4    0    0  0.31769710422E-01 -0.20200951132E-01 -0.15688588682E-01  0.40789531289E-01  0.51100000000E-03 0. -1.
         11    1    4    4    0    0  0.71639584983E-01 -0.52062410365E-01 -0.54562539358E-02  0.88728555368E-01  0.51100000000E-03 0.  1.
</event>
<event>
 8    1  0.1094829E+005  0.1043930E+01  0.7957747E-01            NaN
         13   -1    0    0    0    0  0.00000000000E+00  0.00000000000E+00  0.74505805969E-08  0.10566000000E+00  0.10566000000E+00 0. -1.
     999900   -1    0    0    0    0 -0.00000000000E+00 -0.00000000000E+00 -0.74505805969E-08  0.93827000000E+00  0.93827000000E+00 0. -1.
     999902    2    1    2    0    0 -0.19953840506E-01 -0.75779021631E-02 -0.13526865864E-01  0.10186603254E+01  0.10183468477E+01 0.  0.
     999903    2    3    3    0    0  0.11438951204E+00 -0.51637367706E-01  0.46112998618E-02  0.12719054697E+00  0.20119466774E-01 0.  0.
         14    1    1    2    0    0  0.19953840506E-01  0.75779021631E-02  0.13526865864E-01  0.25269674557E-01  0.00000000000E+00 0. -1.
     999901    1    3    3    0    0 -0.13434335255E+00  0.44059465543E-01 -0.18138165726E-01  0.89146977847E+00  0.88000000000E+00 0. -1.
        -11    1    4    4    0    0  0.10247398958E+00 -0.44368909378E-01  0.10230357398E-01  0.11213581049E+00  0.51100000000E-03 0. -1.
         11    1    4    4    0    0  0.11915522461E-01 -0.72684583286E-02 -0.56190575359E-02  0.15054736483E-01  0.51100000000E-03 0.  1.
</event>
<event>
 8    1  0.1094829E+005  0.1043930E+01  0.7957747E-01            NaN
         13   -1    0    0    0    0  0.00000000000E+00  0.00000000000E+00  0.74505805969E-08  0.10566000000E+00  0.10566000000E+00 0.  1.
     999900   -1    0    0    0    0 -0.00000000000E+00 -0.00000000000E+00 -0.74505805969E-08  0.93827000000E+00  0.93827000000E+00 0.  1.
     999902    2    1    2    0    0  0.10642227173E-01 -0.17372377983E-01 -0.11096747938E-01  0.10207309843E+01  0.10204673184E+01 0.  0.
     999903    2    3    3    0    0 -0.12632011704E+00  0.17415231696E-01  0.83827042995E-02  0.12924441086E+00  0.19333539271E-01 0.  0.
         14    1    1    2    0    0 -0.10642227173E-01  0.17372377983E-01  0.11096747938E-01  0.23199015729E-01  0.00000000000E+00 0. -1.
     999901    1    3    3    0    0  0.13696234422E+00 -0.34787609679E-01 -0.19479452238E-01  0.89148657342E+00  0.88000000000E+00 0.  1.
        -11    1    4    4    0    0 -0.10417041980E+00  0.11750569868E-01 -0.16048199859E-03  0.10483243358E+00  0.51100000000E-03 0.  1.
         11    1    4    4    0    0 -0.22149697242E-01  0.56646618279E-02  0.85431862981E-02  0.24411977279E-01  0.51100000000E-03 0. -1.
</event>
<event>
 8    1  0.1094829E+005  0.1043930E+01  0.7957747E-01            NaN
         13   -1    0    0    0    0  0.00000000000E+00  0.00000000000E+00  0.74505805969E-08  0.10566000000E+00  0.10566000000E+00 0.  1.
     999900   -1    0    0    0    0 -0.00000000000E+00 -0.00000000000E+00 -0.74505805969E-08  0.93827000000E+00  0.93827000000E+00 0. -1.
     999902    2    1    2    0    0  0.11013705100E-01  0.18491931857E-01 -0.23130318588E-01  0.10123346699E+01  0.10118414990E+01 0.  0.
     999903    2    3    3    0    0  0.48665667081E-01 -0.10684907712E+00  0.28439620025E-01  0.12116269027E+00  0.93012415149E-02 0.  0.
         14    1    1    2    0    0 -0.11013705100E-01 -0.18491931857E-01  0.23130318588E-01  0.31595330064E-01  0.00000000000E+00 0.  1.
     999901    1    3    3    0    0 -0.37651961981E-01  0.12534100897E+00 -0.51569938613E-01  0.89117197966E+00  0.88000000000E+00 0.  1.
        -11    1    4    4    0    0  0.29762702369E-01 -0.72767830843E-01  0.22160676579E-01  0.81684345901E-01  0.51100000000E-03 0.  1.
         11    1    4    4    0    0  0.18902964712E-01 -0.34081246273E-01  0.62789434465E-02  0.39478344370E-01  0.51100000000E-03 0. -1.
</event>
<event>
 8    1  0.1094829E+005  0.1043930E+01  0.7957747E-01            NaN
         13   -1    0    0    0    0  0.00000000000E+00  0.00000000000E+00  0.74505805969E-08  0.10566000000E+00  0.10566000000E+00 0.  1.
     999900   -1    0    0    0    0 -0.00000000000E+00 -0.00000000000E+00 -0.74505805969E-08  0.93827000000E+00  0.93827000000E+00 0. -1.
     999902    2    1    2    0    0 -0.75871813986E-02 -0.49911527453E-02  0.21962240425E-01  0.10201641225E+01  0.10198872585E+01 0.  0.
     999903    2    3    3    0    0 -0.10409833394E+00  0.47521415248E-02 -0.72795772819E-01  0.12977745629E+00  0.26151819093E-01 0.  0.
         14    1    1    2    0    0  0.75871813986E-02  0.49911527453E-02 -0.21962240425E-01  0.23765877467E-01  0.00000000000E+00 0. -1.
     999901    1    3    3    0    0  0.96511152545E-01 -0.97432942701E-02  0.94758013244E-01  0.89038666624E+00  0.88000000000E+00 0.  1.
        -11    1    4    4    0    0 -0.17450771151E-01  0.30690882318E-02 -0.25473190151E-01  0.31033743793E-01  0.51100000000E-03 0. -1.
         11    1    4    4    0    0 -0.86647562793E-01  0.16830532930E-02 -0.47322582668E-01  0.98743712497E-01  0.51100000000E-03 0.  1.
</event>
<event>
 8    1  0.1094829E+005  0.1043930E+01  0.7957747E-01            NaN
         13   -1    0    0    0    0  0.00000000000E+00  0.00000000000E+00  0.74505805969E-08  0.10566000000E+00  0.10566000000E+00 0.  1.
     999900   -1    0    0    0    0 -0.00000000000E+00 -0.00000000000E+00 -0.74505805969E-08  0.93827000000E+00  0.93827000000E+00 0. -1.
     999902    2    1    2    0    0 -0.26082557606E-03 -0.20036286235E-01 -0.89302388455E-02  0.10219921341E+01  0.10217566501E+01 0.  0.
     999903    2    3    3    0    0  0.15802122078E-01 -0.28803420382E-01  0.12584236464E+00  0.13154363158E+00  0.19699801552E-01 0.  0.
         14    1    1    2    0    0  0.26082557606E-03  0.20036286235E-01  0.89302388455E-02  0.21937865938E-01  0.00000000000E+00 0.  1.
     999901    1    3    3    0    0 -0.16062947654E-01  0.87671341468E-02 -0.13477260349E+00  0.89044850249E+00  0.88000000000E+00 0. -1.
        -11    1    4    4    0    0  0.12362964505E-01 -0.71273283515E-02  0.30081987453E-01  0.33299080932E-01  0.51100000000E-03 0. -1.
         11    1    4    4    0    0  0.34391575725E-02 -0.21676092030E-01  0.95760377191E-01  0.98244550644E-01  0.51100000000E-03 0.  1.
</event>
<event>
 7    1  0.1198756E+005  0.1043930E+01  0.7957747E-01            NaN
         13   -1    0    0    0    0  0.00000000000E+00  0.00000000000E+00  0.74505805969E-08  0.10566000000E+00  0.10566000000E+00 0. -1.
     999900   -1    0    0    0    0 -0.00000000000E+00 -0.00000000000E+00 -0.74505805969E-08  0.93827000000E+00  0.93827000000E+00 0. -1.
     999903    2    1    2    0    0 -0.56861060422E-01 -0.50074120770E-01  0.30156911306E-01  0.83827330431E-01  0.19416082625E-01 0.  0.
         14    1    1    2    0    0 -0.67933385720E-01 -0.40063879837E-02  0.98255176507E-02  0.68757085723E-01  0.00000000000E+00 0. -1.
     999901    1    1    2    0    0  0.12479444614E+00  0.54080508754E-01 -0.39982428957E-01  0.89134558385E+00  0.88000000000E+00 0. -1.
        -11    1    3    3    0    0 -0.29852061710E-01 -0.14098367769E-01  0.15797880286E-01  0.36602509540E-01  0.51100000000E-03 0. -1.
         11    1    3    3    0    0 -0.27008998712E-01 -0.35975753001E-01  0.14359031020E-01  0.47224820892E-01  0.51100000000E-03 0.  1.
</event>
<event>
 8    1  0.1094829E+005  0.1043930E+01  0.7957747E-01            NaN
         13   -1    0    0    0    0  0.00000000000E+00  0.00000000000E+00  0.74505805969E-08  0.10566000000E+00  0.10566000000E+00 0. -1.
     999900   -1    0    0    0    0 -0.00000000000E+00 -0.00000000000E+00 -0.74505805969E-08  0.93827000000E+00  0.93827000000E+00 0.  1.
     999902    2    1    2    0    0 -0.30607057702E-02  0.20899623134E-01 -0.12352430846E-02  0.10227713613E+01  0.10225524776E+01 0.  0.
     999903    2    3    3    0    0  0.10028980493E+00  0.22148555484E-01 -0.82158357274E-01  0.13303463713E+00  0.19990385782E-01 0.  0.
         14    1    1    2    0    0  0.30607057702E-02 -0.20899623134E-01  0.12352430846E-02  0.21158638719E-01  0.00000000000E+00 0. -1.
     999901    1    3    3    0    0 -0.10335051070E+00 -0.12489323500E-02  0.80923114189E-01  0.88973672415E+00  0.88000000000E+00 0. -1.
        -11    1    4    4    0    0  0.14379577410E-01 -0.58197842078E-03 -0.19748997691E-01  0.24441664759E-01  0.51100000000E-03 0.  1.
         11    1    4    4    0    0  0.85910227518E-01  0.22730533905E-01 -0.62409359583E-01  0.10859297237E+00  0.51100000000E-03 0. -1.
</event>
<event>
 8    1  0.1094829E+005  0.1043930E+01  0.7957747E-01            NaN
         13   -1    0    0    0    0  0.00000000000E+00  0.00000000000E+00  0.74505805969E-08  0.10566000000E+00  0.10566000000E+00 0. -1.
     999900   -1    0    0    0    0 -0.00000000000E+00 -0.00000000000E+00 -0.74505805969E-08  0.93827000000E+00  0.93827000000E+00 0.  1.
     999902    2    1    2    0    0 -0.92525723030E-02 -0.22706554071E-01 -0.55046993254E-03  0.10194044886E+01  0.10191094204E+01 0.  0.
     999903    2    3    3    0    0  0.11238155014E+00  0.15468519935E-02 -0.54752636401E-01  0.12905570173E+00  0.32023700497E-01 0.  0.
         14    1    1    2    0    0  0.92525723030E-02  0.22706554071E-01  0.55046993254E-03  0.24525511394E-01  0.00000000000E+00 0. -1.
     999901    1    3    3    0    0 -0.12163412244E+00 -0.24253406064E-01  0.54202166468E-01  0.89034878688E+00  0.88000000000E+00 0. -1.
        -11    1    4    4    0    0  0.18361350542E-01 -0.40009659797E-03 -0.23767570303E-01  0.30040935240E-01  0.51100000000E-03 0.  1.
         11    1    4    4    0    0  0.94020199593E-01  0.19469485915E-02 -0.30985066098E-01  0.99014766487E-01  0.51100000000E-03 0. -1.
</event>
<event>
 8    1  0.1094829E+005  0.1043930E+01  0.7957747E-01            NaN
         13   -1    0    0    0    0  0.00000000000E+00  0.00000000000E+00  0.74505805969E-08  0.10566000000E+00  0.10566000000E+00 0. -1.
     999900   -1    0    0    0    0 -0.00000000000E+00 -0.00000000000E+00 -0.74505805969E-08  0.93827000000E+00  0.93827000000E+00 0.  1.
     999902    2    1    2    0    0  0.26589343972E-01 -0.71467359781E-02 -0.39928105277E-02  0.10161089363E+01  0.10157279945E+01 0.  0.
     999903    2    3    3    0    0  0.80133136385E-01 -0.43486360190E-01  0.88772623903E-01  0.12886999905E+00  0.20359637306E-01 0.  0.
         14    1    1    2    0    0 -0.26589343972E-01  0.71467359781E-02  0.39928105277E-02  0.27821063673E-01  0.00000000000E+00 0. -1.
     999901    1    3    3    0    0 -0.53543792414E-01  0.36339624212E-01 -0.92765434431E-01  0.88723893728E+00  0.88000000000E+00 0.  1.
        -11    1    4    4    0    0  0.35289990981E-01 -0.12471841457E-01  0.47545459502E-01  0.60512495677E-01  0.51100000000E-03 0.  1.
         11    1    4    4    0    0  0.44843145404E-01 -0.31014518733E-01  0.41227164401E-01  0.68357503374E-01  0.51100000000E-03 0. -1.
</event>
<event>
 8    1  0.1094829E+005  0.1043930E+01  0.7957747E-01            NaN
         13   -1    0    0    0    0  0.00000000000E+00  0.00000000000E+00  0.74505805969E-08  0.10566000000E+00  0.10566000000E+00 0. -1.
     999900   -1    0    0    0    0 -0.00000000000E+00 -0.00000000000E+00 -0.74505805969E-08  0.93827000000E+00  0.93827000000E+00 0. -1.
     999902    2    1    2    0    0 -0.10435830025E-01  0.30370655941E-02  0.21119407933E-01  0.10201779536E+01  0.10199014155E+01 0.  0.
     999903    2    3    3    0    0 -0.12612639776E+00  0.26794472404E-01  0.21082868547E-01  0.13228791360E+00  0.20731444111E-01 0.  0.
         14    1    1    2    0    0  0.10435830025E-01 -0.30370655941E-02 -0.21119407933E-01  0.23752046379E-01  0.00000000000E+00 0.  1.
     999901    1    3    3    0    0  0.11569056773E+00 -0.23757406809E-01  0.36539386636E-04  0.88789004002E+00  0.88000000000E+00 0.  1.
        -11    1    4    4    0    0 -0.79949399867E-01  0.26676260456E-01  0.10757874017E-01  0.84967772629E-01  0.51100000000E-03 0. -1.
         11    1    4    4    0    0 -0.46176997889E-01  0.11821194717E-03  0.10324994530E-01  0.47320140967E-01  0.51100000000E-03 0.  1.
</event>
<event>
 8    1  0.1094829E+005  0.1043930E+01  0.7957747E-01            NaN
         13   -1    0    0    0    0  0.00000000000E+00  0.00000000000E+00  0.74505805969E-08  0.10566000000E+00  0.10566000000E+00 0. -1.
     999900   -1    0    0    0    0 -0.00000000000E+00 -0.00000000000E+00 -0.74505805969E-08  0.93827000000E+00  0.93827000000E+00 0.  1.
     999902    2    1    2    0    0  0.63604248059E-02  0.23291494957E-01 -0.22060314654E-03  0.10197846608E+01  0.10194987773E+01 0.  0.
     999903    2    3    3    0    0 -0.70870096833E-01 -0.48219560115E-01 -0.93941564244E-01  0.12857088000E+00  0.18914467730E-01 0.  0.
         14    1    1    2    0    0 -0.63604248059E-02 -0.23291494957E-01  0.22060314654E-03  0.24145339235E-01  0.00000000000E+00 0.  1.
     999901    1    3    3    0    0  0.77230521639E-01  0.71511055071E-01  0.93720961097E-01  0.89121378076E+00  0.88000000000E+00 0. -1.
        -11    1    4    4    0    0 -0.13069438945E-01 -0.17527418141E-01 -0.18040428573E-01  0.28350287567E-01  0.51100000000E-03 0.  1.
         11    1    4    4    0    0 -0.57800657888E-01 -0.30692141974E-01 -0.75901135671E-01  0.10022059244E+00  0.51100000000E-03 0. -1.
</event>
<event>
 8    1  0.1094829E+005  0.1043930E+01  0.7957747E-01            NaN
         13   -1    0    0    0    0  0.00000000000E+00  0.00000000000E+00  0.74505805969E-08  0.10566000000E+00  0.10566000000E+00 0. -1.
     999900   -1    0    0    0    0 -0.00000000000E+00 -0.00000000000E+00 -0.74505805969E-08  0.93827000000E+00  0.93827000000E+00 0.  1.
     999902    2    1    2    0    0 -0.15861388030E-01  0.15878008253E-01 -0.11830957197E-01  0.10185594201E+01  0.10182434021E+01 0.  0.
     999903    2    3    3    0    0  0.16348988797E-01  0.95029840145E-01  0.83277341448E-01  0.12931923357E+00  0.22144719908E-01 0.  0.
         14    1    1    2    0    0  0.15861388030E-01 -0.15878008253E-01  0.11830957197E-01  0.25370579901E-01  0.00000000000E+00 0. -1.
     999901    1    3    3    0    0 -0.32210376827E-01 -0.79151831891E-01 -0.95108298645E-01  0.88924018653E+00  0.88000000000E+00 0.  1.
        -11    1    4    4    0    0  0.18181192039E-01  0.40789963016E-01  0.37947102219E-01  0.58605635519E-01  0.51100000000E-03 0. -1.
         11    1    4    4    0    0 -0.18322032427E-02  0.54239877128E-01  0.45330239229E-01  0.70713598050E-01  0.51100000000E-03 0.  1.
</event>
<event>
 8    1  0.1094829E+005  0.1043930E+01  0.7957747E-01            NaN
         13   -1    0    0    0    0  0.00000000000E+00  0.00000000000E+00  0.74505805969E-08  0.10566000000E+00  0.10566000000E+00 0.  1.
     999900   -1    0    0    0    0 -0.00000000000E+00 -0.00000000000E+00 -0.74505805969E-08  0.93827000000E+00  0.93827000000E+00 0. -1.
     999902    2    1    2    0    0  0.15820394068E-01 -0.26669605520E-02  0.17901604990E-01  0.10198911771E+01  0.10196078403E+01 0.  0.
     999903    2    3    3    0    0  0.96959333315E-01 -0.17642290022E-01  0.87650543038E-01  0.13328376546E+00  0.19224508453E-01 0.  0.
         14    1    1    2    0    0 -0.15820394068E-01  0.26669605520E-02 -0.17901604990E-01  0.24038822938E-01  0.00000000000E+00 0. -1.
     999901    1    3    3    0    0 -0.81138939247E-01  0.14975329470E-01 -0.69748938048E-01  0.88660741161E+00  0.88000000000E+00 0. -1.
        -11    1    4    4    0    0  0.79873583026E-01 -0.19963182715E-01  0.65499647626E-01  0.10520828337E+00  0.51100000000E-03 0. -1.
         11    1    4    4    0    0  0.17085750289E-01  0.23208926932E-02  0.22150895412E-01  0.28075482086E-01  0.51100000000E-03 0.  1.
</event>
<event>
 8    1  0.1094829E+005  0.1043930E+01  0.7957747E-01            NaN
         13   -1    0    0    0    0  0.00000000000E+00  0.00000000000E+00  0.74505805969E-08  0.10566000000E+00  0.10566000000E+00 0. -1.
     999900   -1    0    0    0    0 -0.00000000000E+00 -0.00000000000E+00 -0.74505805969E-08  0.93827000000E+00  0.93827000000E+00 0. -1.
     999902    2    1    2    0    0 -0.11345284115E-01 -0.11234490851E-01 -0.19912386839E-01  0.10184068261E+01  0.10180869467E+01 0.  0.
     999903    2    3    3    0    0  0.48281211591E-01  0.10188419955E+00  0.52738778621E-01  0.12620205759E+00  0.20835427964E-01 0.  0.
         14    1    1    2    0    0  0.11345284115E-01  0.11234490851E-01  0.19912386839E-01  0.25523173901E-01  0.00000000000E+00 0. -1.
     999901    1    3    3    0    0 -0.59626495706E-01 -0.11311869040E+00 -0.72651165460E-01  0.89220476851E+00  0.88000000000E+00 0. -1.
        -11    1    4    4    0    0  0.25852418861E-01  0.54300362793E-01  0.39501378140E-01  0.71954825803E-01  0.51100000000E-03 0. -1.
         11    1    4    4    0    0  0.22428792729E-01  0.47583836759E-01  0.13237400481E-01  0.54247231787E-01  0.51100000000E-03 0.  1.
</event>
<event>
 8    1  0.1371517E+005  0.1043930E+01  0.7957747E-01            NaN
         13   -1    0    0    0    0  0.00000000000E+00  0.00000000000E+00  0.74505805969E-08  0.10566000000E+00  0.10566000000E+00 0.  1.
     999900   -1    0    0    0    0 -0.00000000000E+00 -0.00000000000E+00 -0.74505805969E-08  0.93827000000E+00  0.93827000000E+00 0.  1.
     999902    2    1    2    0    0 -0.94762438813E-02 -0.82040283200E-02 -0.17933044123E-01  0.10220508010E+01  0.10218165884E+01 0.  0.
     999903    2    3    3    0    0  0.35062473504E-01 -0.42267997617E-01 -0.12105066790E+00  0.13425730263E+00  0.18862620165E-01 0.  0.
         14    1    1    2    0    0  0.94762438813E-02  0.82040283200E-02  0.17933044123E-01  0.21879199033E-01  0.00000000000E+00 0.  1.
     999901    1    3    3    0    0 -0.44538717386E-01  0.34063969297E-01  0.10311762378E+00  0.88779349833E+00  0.88000000000E+00 0. -1.
        -11    1    4    4    0    0  0.16942634462E-01 -0.12151440303E-01 -0.63329167582E-01  0.66674994950E-01  0.51100000000E-03 0. -1.
         11    1    4    4    0    0  0.18119839043E-01 -0.30116557313E-01 -0.57721500322E-01  0.67582307683E-01  0.51100000000E-03 0.  1.
</event>
<event>
 8    1  0.1094829E+005  0.1043930E+01  0.7957747E-01            NaN
         13   -1    0    0    0    0  0.00000000000E+00  0.00000000000E+00  0.74505805969E-08  0.10566000000E+00  0.10566000000E+00 0. -1.
     999900   -1    0    0    0    0 -0.00000000000E+00 -0.00000000000E+00 -0.74505805969E-08  0.93827000000E+00  0.93827000000E+00 0. -1.
     999902    2    1    2    0    0 -0.21489385180E-02 -0.23762234602E-01 -0.27122333085E-02  0.10199171297E+01  0.10196344117E+01 0.  0.
     999903    2    3    3    0    0  0.91610380507E-01  0.58285731982E-01 -0.66497951416E-01  0.12885523705E+00  0.19799146497E-01 0.  0.
         14    1    1    2    0    0  0.21489385180E-02  0.23762234602E-01  0.27122333085E-02  0.24012870290E-01  0.00000000000E+00 0. -1.
     999901    1    3    3    0    0 -0.93759319025E-01 -0.82047966585E-01  0.63785718108E-01  0.89106189266E+00  0.88000000000E+00 0. -1.
        -11    1    4    4    0    0  0.23550513750E-01  0.19810959748E-01 -0.28413141350E-01  0.41888763964E-01  0.51100000000E-03 0. -1.
         11    1    4    4    0    0  0.68059866757E-01  0.38474772235E-01 -0.38084810066E-01  0.86966473082E-01  0.51100000000E-03 0.  1.
</event>
<event>
 8    1  0.1094829E+005  0.1043930E+01  0.7957747E-01            NaN
         13   -1    0    0    0    0  0.00000000000E+00  0.00000000000E+00  0.74505805969E-08  0.10566000000E+00  0.10566000000E+00 0.  1.
     999900   -1    0    0    0    0 -0.00000000000E+00 -0.00000000000E+00 -0.74505805969E-08  0.93827000000E+00  0.93827000000E+00 0. -1.
     999902    2    1    2    0    0  0.20056611063E-01 -0.46976096986E-02 -0.10861068030E-01  0.10206427077E+01  0.10203770082E+01 0.  0.
     999903    2    3    3    0    0  0.49108772842E-01  0.89701438308E-01  0.78753461029E-01  0.13059441002E+00  0.19868887748E-01 0.  0.
         14    1    1    2    0    0 -0.20056611063E-01  0.46976096986E-02  0.10861068030E-01  0.23287292307E-01  0.00000000000E+00 0.  1.
     999901    1    3    3    0    0 -0.29052161779E-01 -0.94399048007E-01 -0.89614529059E-01  0.89004829767E+00  0.88000000000E+00 0. -1.
        -11    1    4    4    0    0  0.41340584128E-01  0.73369549809E-01  0.54409936275E-01  0.10026383706E+00  0.51100000000E-03 0.  1.
         11    1    4    4    0    0  0.77681887140E-02  0.16331888499E-01  0.24343524754E-01  0.30330572964E-01  0.51100000000E-03 0. -1.
</event>
<event>
 8    1  0.1094829E+005  0.1043930E+01  0.7957747E-01            NaN
         13   -1    0    0    0    0  0.00000000000E+00  0.00000000000E+00  0.74505805969E-08  0.10566000000E+00  0.10566000000E+00 0. -1.
     999900   -1    0    0    0    0 -0.00000000000E+00 -0.00000000000E+00 -0.74505805969E-08  0.93827000000E+00  0.93827000000E+00 0.  1.
     999902    2    1    2    0    0 -0.48206526330E-02 -0.13783523864E-01  0.20326229133E-01  0.10189024190E+01  0.10185949929E+01 0.  0.
     999903    2    3    3    0    0  0.33714875177E-01  0.49801748582E-01 -0.10937222158E+00  0.12629401552E+00  0.19261062591E-01 0.  0.
         14    1    1    2    0    0  0.48206526330E-02  0.13783523864E-01 -0.20326229133E-01  0.25027581039E-01  0.00000000000E+00 0. -1.
     999901    1    3    3    0    0 -0.38535527810E-01 -0.63585272446E-01  0.12969845072E+00  0.89260840344E+00  0.88000000000E+00 0. -1.
        -11    1    4    4    0    0  0.12140219003E-01  0.34319957216E-01 -0.67930502177E-01  0.77071775818E-01  0.51100000000E-03 0.  1.
         11    1    4    4    0    0  0.21574656174E-01  0.15481791366E-01 -0.41441719406E-01  0.49222239702E-01  0.51100000000E-03 0. -1.
</event>
<event>
 8    1  0.1094829E+005  0.1043930E+01  0.7957747E-01            NaN
         13   -1    0    0    0    0  0.00000000000E+00  0.00000000000E+00  0.74505805969E-08  0.10566000000E+00  0.10566000000E+00 0. -1.
     999900   -1    0    0    0    0 -0.00000000000E+00 -0.00000000000E+00 -0.74505805969E-08  0.93827000000E+00  0.93827000000E+00 0. -1.
     999902    2    1    2    0    0 -0.10472371974E-01 -0.20337414166E-01 -0.11502541680E-01  0.10183255189E+01  0.10180035721E+01 0.  0.
     999903    2    3    3    0    0 -0.47441008607E-02 -0.12968936057E+00  0.56963624226E-02  0.13137204568E+00  0.19604313404E-01 0.  0.
         14    1    1    2    0    0  0.10472371974E-01  0.20337414166E-01  0.11502541680E-01  0.25604481147E-01  0.00000000000E+00 0. -1.
     999901    1    3    3    0    0 -0.57282711135E-02  0.10935194640E+00 -0.17198904102E-01  0.88695347317E+00  0.88000000000E+00 0.  1.
        -11    1    4    4    0    0 -0.57897246808E-02 -0.18687810155E-01  0.56295166793E-02  0.20364374267E-01  0.51100000000E-03 0. -1.
         11    1    4    4    0    0  0.10456238201E-02 -0.11100155041E+00  0.66845743382E-04  0.11100767141E+00  0.51100000000E-03 0.  1.
</event>
<event>
 8    1  0.1094829E+005  0.1043930E+01  0.7957747E-01            NaN
         13   -1    0    0    0    0  0.00000000000E+00  0.00000000000E+00  0.74505805969E-08  0.10566000000E+00  0.10566000000E+00 0.  1.
     999900   -1    0    0    0    0 -0.00000000000E+00 -0.00000000000E+00 -0.74505805969E-08  0.93827000000E+00  0.93827000000E+00 0.  1.
     999902    2    1    2    0    0 -0.46022060049E-02  0.14817664574E-01  0.18013487441E-01  0.10201554503E+01  0.10198783818E+01 0.  0.
     999903    2    3    3    0    0 -0.12531435010E-01  0.82881082123E-01  0.10194235689E+00  0.13351033719E+00  0.20160738364E-01 0.  0.
         14    1    1    2    0    0  0.46022060049E-02 -0.14817664574E-01 -0.18013487441E-01  0.23774549697E-01  0.00000000000E+00 0. -1.
     999901    1    3    3    0    0  0.79292290056E-02 -0.68063417549E-01 -0.83928869447E-01  0.88664511311E+00  0.88000000000E+00 0.  1.
        -11    1    4    4    0    0  0.96300158707E-03  0.57061488496E-01  0.68076462423E-01  0.88834715615E-01  0.51100000000E-03 0. -1.
         11    1    4    4    0    0 -0.13494436598E-01  0.25819593627E-01  0.33865894465E-01  0.44675621574E-01  0.51100000000E-03 0.  1.
</event>
<event>
 8    1  0.1094829E+005  0.1043930E+01  0.7957747E-01            NaN
         13   -1    0    0    0    0  0.00000000000E+00  0.00000000000E+00  0.74505805969E-08  0.10566000000E+00  0.10566000000E+00 0. -1.
     999900   -1    0    0    0    0 -0.00000000000E+00 -0.00000000000E+00 -0.74505805969E-08  0.93827000000E+00  0.93827000000E+00 0.  1.
     999902    2    1    2    0    0  0.18791233588E-01 -0.95168670627E-02  0.11144158063E-01  0.10200999040E+01  0.10198215239E+01 0.  0.
     999903    2    3    3    0    0  0.92990767226E-01 -0.72461738958E-01  0.59311223862E-01  0.13342764550E+00  0.19675591621E-01 0.  0.
         14    1    1    2    0    0 -0.18791233588E-01  0.95168670627E-02 -0.11144158063E-01  0.23830096042E-01  0.00000000000E+00 0.  1.
     999901    1    3    3    0    0 -0.74199533638E-01  0.62944871896E-01 -0.48167065799E-01  0.88667225846E+00  0.88000000000E+00 0. -1.
        -11    1    4    4    0    0  0.47824916163E-01 -0.46654483177E-01  0.40381520710E-01  0.78069147186E-01  0.51100000000E-03 0. -1.
         11    1    4    4    0    0  0.45165851063E-01 -0.25807255782E-01  0.18929703152E-01  0.55358498315E-01  0.51100000000E-03 0.  1.
</event>
<event>
 8    1  0.1094829E+005  0.1043930E+01  0.7957747E-01            NaN
         13   -1    0    0    0    0  0.00000000000E+00  0.00000000000E+00  0.74505805969E-08  0.10566000000E+00  0.10566000000E+00 0. -1.
     999900   -1    0    0    0    0 -0.00000000000E+00 -0.00000000000E+00 -0.74505805969E-08  0.93827000000E+00  0.93827000000E+00 0. -1.
     999902    2    1    2    0    0  0.13978841075E-01  0.90027510321E-02  0.17369237017E-01  0.10198852933E+01  0.10196018162E+01 0.  0.
     999903    2    3    3    0    0 -0.11715715056E+00 -0.43857863455E-01  0.19912389213E-01  0.12859557586E+00  0.22158717754E-01 0.  0.
         14    1    1    2    0    0 -0.13978841075E-01 -0.90027510321E-02 -0.17369237017E-01  0.24044706663E-01  0.00000000000E+00 0.  1.
     999901    1    3    3    0    0  0.13113599163E+00  0.52860614487E-01 -0.25431521964E-02  0.89128971748E+00  0.88000000000E+00 0. -1.
        -11    1    4    4    0    0 -0.72883403876E-01 -0.37804850759E-01  0.16732888864E-01  0.83794080890E-01  0.51100000000E-03 0.  1.
         11    1    4    4    0    0 -0.44273746680E-01 -0.60530126957E-02  0.31795003489E-02  0.44801494966E-01  0.51100000000E-03 0. -1.
</event>
<event>
 8    1  0.1129195E+005  0.1043930E+01  0.7957747E-01            NaN
         13   -1    0    0    0    0  0.00000000000E+00  0.00000000000E+00  0.74505805969E-08  0.10566000000E+00  0.10566000000E+00 0.  1.
     999900   -1    0    0    0    0 -0.00000000000E+00 -0.00000000000E+00 -0.74505805969E-08  0.93827000000E+00  0.93827000000E+00 0. -1.
     999902    2    1    2    0    0  0.21673789902E-02  0.15325412419E-01 -0.11022460942E-01  0.10249284095E+01  0.10247522550E+01 0.  0.
     999903    2    3    3    0    0 -0.24446040042E-01 -0.11576724679E-01 -0.13169990791E+00  0.13588676519E+00  0.19715927154E-01 0.  0.
         14    1    1    2    0    0 -0.21673789902E-02 -0.15325412419E-01  0.11022460942E-01  0.19001590531E-01  0.00000000000E+00 0. -1.
     999901    1    3    3    0    0  0.26613419032E-01  0.26902137098E-01  0.12067744697E+00  0.88904164428E+00  0.88000000000E+00 0.  1.
        -11    1    4    4    0    0 -0.45631407687E-02 -0.11544002891E-01 -0.68944274088E-01  0.70054695110E-01  0.51100000000E-03 0.  1.
         11    1    4    4    0    0 -0.19882899274E-01 -0.32721787920E-04 -0.62755633818E-01  0.65832070081E-01  0.51100000000E-03 0. -1.
</event>
<event>
 8    1  0.1094829E+005  0.1043930E+01  0.7957747E-01            NaN
         13   -1    0    0    0    0  0.00000000000E+00  0.00000000000E+00  0.74505805969E-08  0.10566000000E+00  0.10566000000E+00 0. -1.
     999900   -1    0    0    0    0 -0.00000000000E+00 -0.00000000000E+00 -0.74505805969E-08  0.93827000000E+00  0.93827000000E+00 0.  1.
     999902    2    1    2    0    0 -0.55569468200E-02  0.22639927622E-01 -0.36124884556E-02  0.10203398314E+01  0.10200670936E+01 0.  0.
     999903    2    3    3    0    0  0.50354691150E-01  0.11394323131E+00 -0.41735570069E-01  0.13303166969E+00  0.20902450794E-01 0.  0.
         14    1    1    2    0    0  0.55569468200E-02 -0.22639927622E-01  0.36124884556E-02  0.23590168578E-01  0.00000000000E+00 0. -1.
     999901    1    3    3    0    0 -0.55911637970E-01 -0.91303303689E-01  0.38123081613E-01  0.88730816173E+00  0.88000000000E+00 0. -1.
        -11    1    4    4    0    0  0.24362486835E-01  0.49727708663E-01 -0.79192626333E-02  0.55940607927E-01  0.51100000000E-03 0. -1.
         11    1    4    4    0    0  0.25992204314E-01  0.64215522648E-01 -0.33816307436E-01  0.77091061762E-01  0.51100000000E-03 0.  1.
</event>
<event>
 8    1  0.1094829E+005  0.1043930E+01  0.7957747E-01            NaN
         13   -1    0    0    0    0  0.00000000000E+00  0.00000000000E+00  0.74505805969E-08  0.10566000000E+00  0.10566000000E+00 0. -1.
     999900   -1    0    0    0    0 -0.00000000000E+00 -0.00000000000E+00 -0.74505805969E-08  0.93827000000E+00  0.93827000000E+00 0. -1.
     999902    2    1    2    0    0 -0.25075471598E-02  0.57084222267E-02  0.22885990259E-01  0.10202099151E+01  0.10199341295E+01 0.  0.
     999903    2    3    3    0    0 -0.78153192751E-01  0.10033949828E+00  0.29007436008E-01  0.13188859017E+00  0.19422472044E-01 0.  0.
         14    1    1    2    0    0  0.25075471598E-02 -0.57084222267E-02 -0.22885990259E-01  0.23720084890E-01  0.00000000000E+00 0. -1.
     999901    1    3    3    0    0  0.75645645591E-01 -0.94631076052E-01 -0.61214457493E-02  0.88832132494E+00  0.88000000000E+00 0. -1.
        -11    1    4    4    0    0 -0.60304367539E-01  0.71575284040E-01  0.13187176426E-01  0.94518785290E-01  0.51100000000E-03 0. -1.
         11    1    4    4    0    0 -0.17848825212E-01  0.28764214238E-01  0.15820259582E-01  0.37369804876E-01  0.51100000000E-03 0.  1.
</event>
<event>
 8    1  0.1094829E+005  0.1043930E+01  0.7957747E-01            NaN
         13   -1    0    0    0    0  0.00000000000E+00  0.00000000000E+00  0.74505805969E-08  0.10566000000E+00  0.10566000000E+00 0.  1.
     999900   -1    0    0    0    0 -0.00000000000E+00 -0.00000000000E+00 -0.74505805969E-08  0.93827000000E+00  0.93827000000E+00 0.  1.
     999902    2    1    2    0    0  0.18096694106E-02 -0.20106948874E-01  0.80291057811E-02  0.10222037294E+01  0.10219728145E+01 0.  0.
     999903    2    3    3    0    0  0.84013018001E-02 -0.10614674308E+00 -0.78535023717E-01  0.13375584438E+00  0.19625570514E-01 0.  0.
         14    1    1    2    0    0 -0.18096694106E-02  0.20106948874E-01 -0.80291057811E-02  0.21726270643E-01  0.00000000000E+00 0. -1.
     999901    1    3    3    0    0 -0.65916323895E-02  0.86039794202E-01  0.86564129498E-01  0.88844788498E+00  0.88000000000E+00 0. -1.
        -11    1    4    4    0    0 -0.28667310084E-02 -0.75041479743E-01 -0.56962067425E-01  0.94256989529E-01  0.51100000000E-03 0.  1.
         11    1    4    4    0    0  0.11268032809E-01 -0.31105263333E-01 -0.21572956292E-01  0.39498854852E-01  0.51100000000E-03 0. -1.
</event>
<event>
 8    1  0.1094829E+005  0.1043930E+01  0.7957747E-01            NaN
         13   -1    0    0    0    0  0.00000000000E+00  0.00000000000E+00  0.74505805969E-08  0.10566000000E+00  0.10566000000E+00 0.  1.
     999900   -1    0    0    0    0 -0.00000000000E+00 -0.00000000000E+00 -0.74505805969E-08  0.93827000000E+00  0.93827000000E+00 0.  1.
     999902    2    1    2    0    0  0.11208317387E-01 -0.19412144833E-01 -0.77036145253E-02  0.10202276072E+01  0.10199522377E+01 0.  0.
     999903    2    3    3    0    0  0.12399174739E+00  0.12309972515E-01 -0.38496566486E-01  0.13192889583E+00  0.19943898312E-01 0.  0.
         14    1    1    2    0    0 -0.11208317387E-01  0.19412144833E-01  0.77036145253E-02  0.23702392757E-01  0.00000000000E+00 0.  1.
     999901    1    3    3    0    0 -0.11278343000E+00 -0.31722117348E-01  0.30792951961E-01  0.88829871142E+00  0.88000000000E+00 0. -1.
        -11    1    4    4    0    0  0.19080770663E-01  0.87916034023E-02 -0.92418875196E-02  0.22957388907E-01  0.51100000000E-03 0.  1.
         11    1    4    4    0    0  0.10491097672E+00  0.35183691126E-02 -0.29254678966E-01  0.10897150692E+00  0.51100000000E-03 0. -1.
</event>
<event>
 8    1  0.1094829E+005  0.1043930E+01  0.7957747E-01            NaN
         13   -1    0    0    0    0  0.00000000000E+00  0.00000000000E+00  0.74505805969E-08  0.10566000000E+00  0.10566000000E+00 0. -1.
     999900   -1    0    0    0    0 -0.00000000000E+00 -0.00000000000E+00 -0.74505805969E-08  0.93827000000E+00  0.93827000000E+00 0. -1.
     999902    2    1    2    0    0 -0.17751821421E-01 -0.15505790988E-01  0.37737414486E-02  0.10200595613E+01  0.10197802267E+01 0.  0.
     999903    2    3    3    0    0  0.22298560068E-02  0.73545016562E-01 -0.10406744460E+00  0.12879134403E+00  0.18529316005E-01 0.  0.
         14    1    1    2    0    0  0.17751821421E-01  0.15505790988E-01 -0.37737414486E-02  0.23870438673E-01  0.00000000000E+00 0.  1.
     999901    1    3    3    0    0 -0.19981677428E-01 -0.89050807550E-01  0.10784118605E+00  0.89126821730E+00  0.88000000000E+00 0.  1.
        -11    1    4    4    0    0 -0.40291318887E-02  0.49161054334E-01 -0.56756257441E-01  0.75196921790E-01  0.51100000000E-03 0. -1.
         11    1    4    4    0    0  0.62589878955E-02  0.24383962228E-01 -0.47311187161E-01  0.53594422238E-01  0.51100000000E-03 0.  1.
</event>
<event>
 8    1  0.1094829E+005  0.1043930E+01  0.7957747E-01            NaN
         13   -1    0    0    0    0  0.00000000000E+00  0.00000000000E+00  0.74505805969E-08  0.10566000000E+00  0.10566000000E+00 0.  1.
     999900   -1    0    0    0    0 -0.00000000000E+00 -0.00000000000E+00 -0.74505805969E-08  0.93827000000E+00  0.93827000000E+00 0.  1.
     999902    2    1    2    0    0  0.14424825379E-01 -0.61448931410E-02 -0.13943434875E-01  0.10229477533E+01  0.10227325415E+01 0.  0.
     999903    2    3    3    0    0 -0.63118714840E-01  0.10510942168E+00 -0.44892101717E-01  0.13202219911E+00  0.19560101566E-01 0.  0.
         14    1    1    2    0    0 -0.14424825379E-01  0.61448931410E-02  0.13943434875E-01  0.20982246663E-01  0.00000000000E+00 0. -1.
     999901    1    3    3    0    0  0.77543540219E-01 -0.11125431482E+00  0.30948666842E-01  0.89092555423E+00  0.88000000000E+00 0. -1.
        -11    1    4    4    0    0 -0.48634459197E-01  0.84229719470E-01 -0.27007506040E-01  0.10094366135E+00  0.51100000000E-03 0. -1.
         11    1    4    4    0    0 -0.14484255643E-01  0.20879702205E-01 -0.17884595677E-01  0.31078537759E-01  0.51100000000E-03 0.  1.
</event>
<event>
 8    1  0.1094829E+005  0.1043930E+01  0.7957747E-01            NaN
         13   -1    0    0    0    0  0.00000000000E+00  0.00000000000E+00  0.74505805969E-08  0.10566000000E+00  0.10566000000E+00 0. -1.
     999900   -1    0    0    0    0 -0.00000000000E+00 -0.00000000000E+00 -0.74505805969E-08  0.93827000000E+00  0.93827000000E+00 0. -1.
     999902    2    1    2    0    0  0.42420489181E-02  0.50356336839E-02 -0.23079707001E-01  0.10199294696E+01  0.10196470455E+01 0.  0.
     999903    2    3    3    0    0  0.38336316738E-01 -0.11377043327E+00 -0.48361287185E-01  0.13093202360E+00  0.19773619753E-01 0.  0.
         14    1    1    2    0    0 -0.42420489181E-02 -0.50356336839E-02  0.23079707001E-01  0.24000530429E-01  0.00000000000E+00 0. -1.
     999901    1    3    3    0    0 -0.34094267820E-01  0.11880606696E+00  0.25281580184E-01  0.88899744597E+00  0.88000000000E+00 0. -1.
        -11    1    4    4    0    0  0.14040119427E-01 -0.32997027059E-01 -0.23933532811E-01  0.43116167061E-01  0.51100000000E-03 0.  1.
         11    1    4    4    0    0  0.24296197311E-01 -0.80773406214E-01 -0.24427754374E-01  0.87815856540E-01  0.51100000000E-03 0. -1.
</event>
<event>
 8    1  0.1094829E+005  0.1043930E+01  0.7957747E-01            NaN
         13   -1    0    0    0    0  0.00000000000E+00  0.00000000000E+00  0.74505805969E-08  0.10566000000E+00  0.10566000000E+00 0. -1.
     999900   -1    0    0    0    0 -0.00000000000E+00 -0.00000000000E+00 -0.74505805969E-08  0.93827000000E+00  0.93827000000E+00 0. -1.
     999902    2    1    2    0    0 -0.16440602895E-01  0.18430683604E-01  0.41911573130E-02  0.10188790655E+01  0.10185710583E+01 0.  0.
     999903    2    3    3    0    0 -0.12040995542E+00  0.33347685103E-01  0.37904147856E-01  0.13199197629E+00  0.19352827056E-01 0.  0.
         14    1    1    2    0    0  0.16440602895E-01 -0.18430683604E-01 -0.41911573130E-02  0.25050934539E-01  0.00000000000E+00 0.  1.
     999901    1    3    3    0    0  0.10396935253E+00 -0.14917001499E-01 -0.33712990543E-01  0.88688708917E+00  0.88000000000E+00 0. -1.
        -11    1    4    4    0    0 -0.57440803760E-01  0.67287841001E-02  0.13408208656E-01  0.59369719996E-01  0.51100000000E-03 0.  1.
         11    1    4    4    0    0 -0.62969151662E-01  0.26618901003E-01  0.24495939200E-01  0.72622256299E-01  0.51100000000E-03 0. -1.
</event>
<event>
 7    1  0.1094829E+005  0.1043930E+01  0.7957747E-01            NaN
         13   -1    0    0    0    0  0.00000000000E+00  0.00000000000E+00  0.74505805969E-08  0.10566000000E+00  0.10566000000E+00 0.  1.
     999900   -1    0    0    0    0 -0.00000000000E+00 -0.00000000000E+00 -0.74505805969E-08  0.93827000000E+00  0.93827000000E+00 0.  1.
     999902    2    1    2    0    0  0.20185997612E-01  0.68724082924E-03  0.11758491819E-01  0.10205588869E+01  0.10202912489E+01 0.  0.
         14    1    1    2    0    0 -0.20185997612E-01 -0.68724082924E-03 -0.11758491819E-01  0.23371113140E-01  0.00000000000E+00 0. -1.
     999901    1    3    3    0    0  0.19659713453E-01  0.75120855722E-01 -0.90799834329E-01  0.88807334000E+00  0.88000000000E+00 0.  1.
        -11    1    3    3    0    0 -0.28843264783E-02 -0.43965544753E-01  0.28886778815E-01  0.52687717506E-01  0.51100000000E-03 0. -1.
         11    1    3    3    0    0  0.34106106376E-02 -0.30468070139E-01  0.73671547333E-01  0.79797829359E-01  0.51100000000E-03 0.  1.
</event>
<event>
 8    1  0.1094829E+005  0.1043930E+01  0.7957747E-01            NaN
         13   -1    0    0    0    0  0.00000000000E+00  0.00000000000E+00  0.74505805969E-08  0.10566000000E+00  0.10566000000E+00 0.  1.
     999900   -1    0    0    0    0 -0.00000000000E+00 -0.00000000000E+00 -0.74505805969E-08  0.93827000000E+00  0.93827000000E+00 0.  1.
     999902    2    1    2    0    0  0.92258454072E-02  0.19440192468E-01  0.87613939354E-02  0.10206964180E+01  0.10204319568E+01 0.  0.
     999903    2    3    3    0    0 -0.10272905037E+00  0.47703304046E-01  0.63257808905E-01  0.13148184248E+00  0.21378996845E-01 0.  0.
         14    1    1    2    0    0 -0.92258454072E-02 -0.19440192468E-01 -0.87613939354E-02  0.23233581953E-01  0.00000000000E+00 0. -1.
     999901    1    3    3    0    0  0.11195489578E+00 -0.28263111578E-01 -0.54496414969E-01  0.88921457557E+00  0.88000000000E+00 0. -1.
        -11    1    4    4    0    0 -0.23798425619E-01  0.21493944272E-01  0.18777809540E-01  0.37164794557E-01  0.51100000000E-03 0. -1.
         11    1    4    4    0    0 -0.78930624752E-01  0.26209359773E-01  0.44479999364E-01  0.94317047918E-01  0.51100000000E-03 0.  1.
</event>
<event>
 8    1  0.1094829E+005  0.1043930E+01  0.7957747E-01            NaN
         13   -1    0    0    0    0  0.00000000000E+00  0.00000000000E+00  0.74505805969E-08  0.10566000000E+00  0.10566000000E+00 0.  1.
     999900   -1    0    0    0    0 -0.00000000000E+00 -0.00000000000E+00 -0.74505805969E-08  0.93827000000E+00  0.93827000000E+00 0.  1.
     999902    2    1    2    0    0 -0.90473808548E-02  0.23429276300E-01  0.10213487512E-01  0.10168172463E+01  0.10164557102E+01 0.  0.
     999903    2    3    3    0    0  0.87417587986E-01 -0.64204790149E-01 -0.57918798030E-01  0.12461366627E+00  0.20245712837E-01 0.  0.
         14    1    1    2    0    0  0.90473808548E-02 -0.23429276300E-01 -0.10213487512E-01  0.27112753741E-01  0.00000000000E+00 0. -1.
     999901    1    3    3    0    0 -0.96464968841E-01  0.87634066448E-01  0.68132285542E-01  0.89220357999E+00  0.88000000000E+00 0. -1.
        -11    1    4    4    0    0  0.50393660479E-01 -0.45144435821E-01 -0.43981701316E-01  0.80698155330E-01  0.51100000000E-03 0.  1.
         11    1    4    4    0    0  0.37023927506E-01 -0.19060354328E-01 -0.13937096713E-01  0.43915510938E-01  0.51100000000E-03 0. -1.
</event>
<event>
 8    1  0.1150437E+005  0.1043930E+01  0.7957747E-01            NaN
         13   -1    0    0    0    0  0.00000000000E+00  0.00000000000E+00  0.74505805969E-08  0.10566000000E+00  0.10566000000E+00 0.  1.
     999900   -1    0    0    0    0 -0.00000000000E+00 -0.00000000000E+00 -0.74505805969E-08  0.93827000000E+00  0.93827000000E+00 0.  1.
     999902    2    1    2    0    0 -0.20402110599E-01 -0.15167145751E-02  0.12263170075E-01  0.10200777070E+01  0.10197988020E+01 0.  0.
     999903    2    3    3    0    0 -0.63022940971E-01  0.58837588365E-01 -0.95773140782E-01  0.13039741527E+00  0.19930843462E-01 0.  0.
         14    1    1    2    0    0  0.20402110599E-01  0.15167145751E-02 -0.12263170075E-01  0.23852292978E-01  0.00000000000E+00 0. -1.
     999901    1    3    3    0    0  0.42620830372E-01 -0.60354302940E-01  0.10803631086E+00  0.88968029175E+00  0.88000000000E+00 0. -1.
        -11    1    4    4    0    0 -0.41736623597E-01  0.30955582028E-01 -0.45356645869E-01  0.68975939671E-01  0.51100000000E-03 0.  1.
         11    1    4    4    0    0 -0.21286317374E-01  0.27882006337E-01 -0.50416494913E-01  0.61421475601E-01  0.51100000000E-03 0. -1.
</event>
<event>
 8    1  0.1094829E+005  0.1043930E+01  0.7957747E-01            NaN
         13   -1    0    0    0    0  0.00000000000E+00  0.00000000000E+00  0.74505805969E-08  0.10566000000E+00  0.10566000000E+00 0. -1.
     999900   -1    0    0    0    0 -0.00000000000E+00 -0.00000000000E+00 -0.74505805969E-08  0.93827000000E+00  0.93827000000E+00 0.  1.
     999902    2    1    2    0    0  0.16925155809E-01  0.12846074991E-01  0.10952436199E-01  0.10200252222E+01  0.10197450738E+01 0.  0.
     999903    2    3    3    0    0  0.11807479142E+00  0.26616944674E-01  0.51734206014E-01  0.13318586902E+00  0.20296046984E-01 0.  0.
         14    1    1    2    0    0 -0.16925155809E-01 -0.12846074991E-01 -0.10952436199E-01  0.23904777776E-01  0.00000000000E+00 0.  1.
     999901    1    3    3    0    0 -0.10114963561E+00 -0.13770869683E-01 -0.40781769815E-01  0.88683935320E+00  0.88000000000E+00 0. -1.
        -11    1    4    4    0    0  0.25546069362E-01  0.11540540712E-01  0.19073033705E-01  0.33909106085E-01  0.51100000000E-03 0. -1.
         11    1    4    4    0    0  0.92528722057E-01  0.15076403962E-01  0.32661172310E-01  0.99276762938E-01  0.51100000000E-03 0.  1.
</event>
<event>
 8    1  0.1129698E+005  0.1043930E+01  0.7957747E-01            NaN
         13   -1    0    0    0    0  0.00000000000E+00  0.00000000000E+00  0.74505805969E-08  0.10566000000E+00  0.10566000000E+00 0. -1.
     999900   -1    0    0    0    0 -0.00000000000E+00 -0.00000000000E+00 -0.74505805969E-08  0.93827000000E+00  0.93827000000E+00 0. -1.
     999902    2    1    2    0    0  0.89922080272E-02  0.31433194428E-01 -0.94672717972E-02  0.10098927446E+01  0.10093189887E+01 0.  0.
     999903    2    3    3    0    0 -0.21436661242E-01 -0.80708355992E-01 -0.82936311407E-01  0.11921921119E+00  0.19011033472E-01 0.  0.
         14    1    1    2    0    0 -0.89922080272E-02 -0.31433194428E-01  0.94672717972E-02  0.34037255360E-01  0.00000000000E+00 0. -1.
     999901    1    3    3    0    0  0.30428869269E-01  0.11214155042E+00  0.73469039610E-01  0.89067353345E+00  0.88000000000E+00 0.  1.
        -11    1    4    4    0    0 -0.21826898740E-01 -0.46644918820E-01 -0.52297466923E-01  0.73399237924E-01  0.51100000000E-03 0. -1.
         11    1    4    4    0    0  0.39023749860E-03 -0.34063437172E-01 -0.30638844485E-01  0.45819973261E-01  0.51100000000E-03 0.  1.
</event>
<event>
 8    1  0.1094829E+005  0.1043930E+01  0.7957747E-01            NaN
         13   -1    0    0    0    0  0.00000000000E+00  0.00000000000E+00  0.74505805969E-08  0.10566000000E+00  0.10566000000E+00 0.  1.
     999900   -1    0    0    0    0 -0.00000000000E+00 -0.00000000000E+00 -0.74505805969E-08  0.93827000000E+00  0.93827000000E+00 0. -1.
     999902    2    1    2    0    0  0.21513653874E-01  0.79945971680E-02  0.56347218040E-02  0.10202973747E+01  0.10200236428E+01 0.  0.
     999903    2    3    3    0    0 -0.56208973325E-01  0.60774850376E-01  0.98864831899E-01  0.13039939444E+00  0.19409172164E-01 0.  0.
         14    1    1    2    0    0 -0.21513653874E-01 -0.79945971680E-02 -0.56347218040E-02  0.23632625260E-01  0.00000000000E+00 0. -1.
     999901    1    3    3    0    0  0.77722627199E-01 -0.52780253208E-01 -0.93230110095E-01  0.88989798030E+00  0.88000000000E+00 0. -1.
        -11    1    4    4    0    0 -0.33042001666E-01  0.31580716796E-01  0.68363802828E-01  0.82237377181E-01  0.51100000000E-03 0.  1.
         11    1    4    4    0    0 -0.23166971660E-01  0.29194133580E-01  0.30501029071E-01  0.48162017262E-01  0.51100000000E-03 0. -1.
</event>
<event>
 8    1  0.1094829E+005  0.1043930E+01  0.7957747E-01            NaN
         13   -1    0    0    0    0  0.00000000000E+00  0.00000000000E+00  0.74505805969E-08  0.10566000000E+00  0.10566000000E+00 0.  1.
     999900   -1    0    0    0    0 -0.00000000000E+00 -0.00000000000E+00 -0.74505805969E-08  0.93827000000E+00  0.93827000000E+00 0.  1.
     999902    2    1    2    0    0 -0.14941591005E-01  0.16608679623E-01 -0.89702693808E-02  0.10198558414E+01  0.10195716611E+01 0.  0.
     999903    2    3    3    0    0  0.12241399391E+00 -0.16970818975E-01  0.25082255594E-01  0.12791766309E+00  0.21461928695E-01 0.  0.
         14    1    1    2    0    0  0.14941591005E-01 -0.16608679623E-01  0.89702693808E-02  0.24074158621E-01  0.00000000000E+00 0. -1.
     999901    1    3    3    0    0 -0.13735558491E+00  0.33579498598E-01 -0.34052524974E-01  0.89193817829E+00  0.88000000000E+00 0. -1.
        -11    1    4    4    0    0  0.28379075656E-01 -0.48231767616E-02  0.15281545124E-01  0.32594811114E-01  0.51100000000E-03 0.  1.
         11    1    4    4    0    0  0.94034918252E-01 -0.12147642214E-01  0.98007104695E-02  0.95322851975E-01  0.51100000000E-03 0. -1.
</event>
<event>
 8    1  0.1094829E+005  0.1043930E+01  0.7957747E-01            NaN
         13   -1    0    0    0    0  0.00000000000E+00  0.00000000000E+00  0.74505805969E-08  0.10566000000E+00  0.10566000000E+00 0. -1.
     999900   -1    0    0    0    0 -0.00000000000E+00 -0.00000000000E+00 -0.74505805969E-08  0.93827000000E+00  0.93827000000E+00 0.  1.
     999902    2    1    2    0    0  0.21819987367E-01 -0.89049367763E-02 -0.16137898377E-02  0.10203076787E+01  0.10200341882E+01 0.  0.
     999903    2    3    3    0    0 -0.53272724733E-01 -0.66164755032E-01 -0.96541227497E-01  0.13017913704E+00  0.20264281485E-01 0.  0.
         14    1    1    2    0    0 -0.21819987367E-01  0.89049367763E-02  0.16137898377E-02  0.23622321337E-01  0.00000000000E+00 0.  1.
     999901    1    3    3    0    0  0.75092712100E-01  0.57259818256E-01  0.94927437659E-01  0.89012854163E+00  0.88000000000E+00 0.  1.
        -11    1    4    4    0    0 -0.17007770805E-01 -0.23725263623E-01 -0.48095579717E-01  0.56263649998E-01  0.51100000000E-03 0. -1.
         11    1    4    4    0    0 -0.36264953927E-01 -0.42439491408E-01 -0.48445647780E-01  0.73915487039E-01  0.51100000000E-03 0.  1.
</event>
<event>
 8    1  0.1094829E+005  0.1043930E+01  0.7957747E-01            NaN
         13   -1    0    0    0    0  0.00000000000E+00  0.00000000000E+00  0.74505805969E-08  0.10566000000E+00  0.10566000000E+00 0.  1.
     999900   -1    0    0    0    0 -0.00000000000E+00 -0.00000000000E+00 -0.74505805969E-08  0.93827000000E+00  0.93827000000E+00 0. -1.
     999902    2    1    2    0    0 -0.24591493941E-01  0.28334474626E-02 -0.84399616949E-02  0.10177765499E+01  0.10174404664E+01 0.  0.
     999903    2    3    3    0    0  0.10994342408E+00 -0.11501849571E-01 -0.57325565195E-01  0.12609558277E+00  0.19850101479E-01 0.  0.
         14    1    1    2    0    0  0.24591493941E-01 -0.28334474626E-02  0.84399616949E-02  0.26153450101E-01  0.00000000000E+00 0.  1.
     999901    1    3    3    0    0 -0.13453491802E+00  0.14335297034E-01  0.48885603500E-01  0.89168096713E+00  0.88000000000E+00 0.  1.
        -11    1    4    4    0    0  0.78716249870E-01 -0.38814028963E-02 -0.31562965931E-01  0.84898735099E-01  0.51100000000E-03 0.  1.
         11    1    4    4    0    0  0.31227174206E-01 -0.76204466748E-02 -0.25762599264E-01  0.41196847674E-01  0.51100000000E-03 0. -1.
</event>
<event>
 8    1  0.1094829E+005  0.1043930E+01  0.7957747E-01            NaN
         13   -1    0    0    0    0  0.00000000000E+00  0.00000000000E+00  0.74505805969E-08  0.10566000000E+00  0.10566000000E+00 0. -1.
     999900   -1    0    0    0    0 -0.00000000000E+00 -0.00000000000E+00 -0.74505805969E-08  0.93827000000E+00  0.93827000000E+00 0.  1.
     999902    2    1    2    0    0  0.12259198368E-01  0.19945841876E-01 -0.18156079127E-02  0.10204476452E+01  0.10201774236E+01 0.  0.
     999903    2    3    3    0    0 -0.58213491461E-01 -0.65978680143E-01  0.91389728052E-01  0.12857508812E+00  0.20915880827E-01 0.  0.
         14    1    1    2    0    0 -0.12259198368E-01 -0.19945841876E-01  0.18156079127E-02  0.23482354756E-01  0.00000000000E+00 0. -1.
     999901    1    3    3    0    0  0.70472689828E-01  0.85924522019E-01 -0.93205335965E-01  0.89187255712E+00  0.88000000000E+00 0.  1.
        -11    1    4    4    0    0 -0.72953957716E-02 -0.13415595133E-01  0.68078560479E-02  0.16727492855E-01  0.51100000000E-03 0.  1.
         11    1    4    4    0    0 -0.50918095689E-01 -0.52563085009E-01  0.84581872004E-01  0.11184759527E+00  0.51100000000E-03 0. -1.
</event>
<event>
 8    1  0.1094829E+005  0.1043930E+01  0.7957747E-01            NaN
         13   -1    0    0    0    0  0.00000000000E+00  0.00000000000E+00  0.74505805969E-08  0.10566000000E+00  0.10566000000E+00 0.  1.
     999900   -1    0    0    0    0 -0.00000000000E+00 -0.00000000000E+00 -0.74505805969E-08  0.93827000000E+00  0.93827000000E+00 0.  1.
     999902    2    1    2    0    0  0.11241574401E-01 -0.20889612898E-01 -0.24583047842E-02  0.10200806356E+01  0.10198017998E+01 0.  0.
     999903    2    3    3    0    0 -0.23069672390E-01  0.65221568753E-01 -0.10709401406E+00  0.12904694993E+00  0.19948048119E-01 0.  0.
         14    1    1    2    0    0 -0.11241574401E-01  0.20889612898E-01  0.24583047842E-02  0.23849364445E-01  0.00000000000E+00 0.  1.
     999901    1    3    3    0    0  0.34311246791E-01 -0.86111181651E-01  0.10463570928E+00  0.89103368562E+00  0.88000000000E+00 0. -1.
        -11    1    4    4    0    0 -0.14830198314E-01  0.25681034748E-01 -0.60517134434E-01  0.67394621512E-01  0.51100000000E-03 0.  1.
         11    1    4    4    0    0 -0.82394740763E-02  0.39540534006E-01 -0.46576879628E-01  0.61652328418E-01  0.51100000000E-03 0. -1.
</event>
<event>
 8    1  0.1094829E+005  0.1043930E+01  0.7957747E-01            NaN
         13   -1    0    0    0    0  0.00000000000E+00  0.00000000000E+00  0.74505805969E-08  0.10566000000E+00  0.10566000000E+00 0. -1.
     999900   -1    0    0    0    0 -0.00000000000E+00 -0.00000000000E+00 -0.74505805969E-08  0.93827000000E+00  0.93827000000E+00 0. -1.
     999902    2    1    2    0    0 -0.14882644939E-01  0.14264906410E-01  0.11150649823E-01  0.10204924731E+01  0.10202232942E+01 0.  0.
     999903    2    3    3    0    0  0.89937705567E-01 -0.14843233617E-01 -0.87902132537E-01  0.12827834893E+00  0.20480171691E-01 0.  0.
         14    1    1    2    0    0  0.14882644939E-01 -0.14264906410E-01 -0.11150649823E-01  0.23437526890E-01  0.00000000000E+00 0. -1.
     999901    1    3    3    0    0 -0.10482035051E+00  0.29108140026E-01  0.99052782359E-01  0.89221412418E+00  0.88000000000E+00 0.  1.
        -11    1    4    4    0    0  0.55583937541E-01 -0.15327599167E-01 -0.44016194820E-01  0.72540994866E-01  0.51100000000E-03 0. -1.
         11    1    4    4    0    0  0.34353768026E-01  0.48436554998E-03 -0.43885937717E-01  0.55737354062E-01  0.51100000000E-03 0.  1.
</event>
<event>
 8    1  0.1094829E+005  0.1043930E+01  0.7957747E-01            NaN
         13   -1    0    0    0    0  0.00000000000E+00  0.00000000000E+00  0.74505805969E-08  0.10566000000E+00  0.10566000000E+00 0.  1.
     999900   -1    0    0    0    0 -0.00000000000E+00 -0.00000000000E+00 -0.74505805969E-08  0.93827000000E+00  0.93827000000E+00 0.  1.
     999902    2    1    2    0    0  0.50198567367E-02 -0.14743553538E-02 -0.23634778249E-01  0.10197230707E+01  0.10194357093E+01 0.  0.
     999903    2    3    3    0    0  0.32586925277E-01 -0.10699420883E+00  0.61034026488E-01  0.12895756322E+00  0.19880450194E-01 0.  0.
         14    1    1    2    0    0 -0.50198567367E-02  0.14743553538E-02  0.23634778249E-01  0.24206929344E-01  0.00000000000E+00 0.  1.
     999901    1    3    3    0    0 -0.27567068540E-01  0.10551985348E+00 -0.84668804737E-01  0.89076550744E+00  0.88000000000E+00 0.  1.
        -11    1    4    4    0    0  0.16841851914E-01 -0.62217377483E-01  0.24109993434E-01  0.68820076585E-01  0.51100000000E-03 0.  1.
         11    1    4    4    0    0  0.15745073363E-01 -0.44776831346E-01  0.36924033055E-01  0.60137486633E-01  0.51100000000E-03 0. -1.
</event>
<event>
 8    1  0.1094829E+005  0.1043930E+01  0.7957747E-01            NaN
         13   -1    0    0    0    0  0.00000000000E+00  0.00000000000E+00  0.74505805969E-08  0.10566000000E+00  0.10566000000E+00 0. -1.
     999900   -1    0    0    0    0 -0.00000000000E+00 -0.00000000000E+00 -0.74505805969E-08  0.93827000000E+00  0.93827000000E+00 0.  1.
     999902    2    1    2    0    0 -0.45774770139E-02  0.16889453355E-02  0.22977685594E-01  0.10204400050E+01  0.10201696054E+01 0.  0.
     999903    2    3    3    0    0  0.11480568997E+00  0.57947518457E-01  0.81469788295E-02  0.13047522055E+00  0.20473118196E-01 0.  0.
         14    1    1    2    0    0  0.45774770139E-02 -0.16889453355E-02 -0.22977685594E-01  0.23489995049E-01  0.00000000000E+00 0. -1.
     999901    1    3    3    0    0 -0.11938316698E+00 -0.56258573122E-01  0.14830706764E-01  0.88996478440E+00  0.88000000000E+00 0. -1.
        -11    1    4    4    0    0  0.34442475936E-01  0.14399522358E-01 -0.65222173767E-02  0.37900274844E-01  0.51100000000E-03 0. -1.
         11    1    4    4    0    0  0.80363214035E-01  0.43547996099E-01  0.14669196206E-01  0.92574945707E-01  0.51100000000E-03 0.  1.
</event>
<event>
 8    1  0.1094829E+005  0.1043930E+01  0.7957747E-01            NaN
         13   -1    0    0    0    0  0.00000000000E+00  0.00000000000E+00  0.74505805969E-08  0.10566000000E+00  0.10566000000E+00 0.  1.
     999900   -1    0    0    0    0 -0.00000000000E+00 -0.00000000000E+00 -0.74505805969E-08  0.93827000000E+00  0.93827000000E+00 0.  1.
     999902    2    1    2    0    0  0.68983692253E-02  0.10180408649E-01 -0.15854420652E-01  0.10238653327E+01  0.10236687104E+01 0.  0.
     999903    2    3    3    0    0  0.40635492544E-01 -0.14516183489E-01  0.12305523735E+00  0.13198865503E+00  0.20407125704E-01 0.  0.
         14    1    1    2    0    0 -0.68983692253E-02 -0.10180408649E-01  0.15854420652E-01  0.20064667265E-01  0.00000000000E+00 0.  1.
     999901    1    3    3    0    0 -0.33737123319E-01  0.24696592138E-01 -0.13890965800E+00  0.89187667771E+00  0.88000000000E+00 0.  1.
        -11    1    4    4    0    0  0.34703877407E-01 -0.79916561478E-02  0.73763168946E-01  0.81911488138E-01  0.51100000000E-03 0. -1.
         11    1    4    4    0    0  0.59316151365E-02 -0.65245273411E-02  0.49292068404E-01  0.50077166889E-01  0.51100000000E-03 0.  1.
</event>
<event>
 8    1  0.1094829E+005  0.1043930E+01  0.7957747E-01            NaN
         13   -1    0    0    0    0  0.00000000000E+00  0.00000000000E+00  0.74505805969E-08  0.10566000000E+00  0.10566000000E+00 0. -1.
     999900   -1    0    0    0    0 -0.00000000000E+00 -0.00000000000E+00 -0.74505805969E-08  0.93827000000E+00  0.93827000000E+00 0. -1.
     999902    2    1    2    0    0 -0.23606511373E-01  0.10852561839E-03 -0.96071763827E-02  0.10184431996E+01  0.10181242428E+01 0.  0.
     999903    2    3    3    0    0 -0.54079763496E-01  0.91100769599E-01  0.71449384710E-01  0.12952342050E+00  0.21150197210E-01 0.  0.
         14    1    1    2    0    0  0.23606511373E-01 -0.10852561839E-03  0.96071763827E-02  0.25486800408E-01  0.00000000000E+00 0.  1.
     999901    1    3    3    0    0  0.30473252124E-01 -0.90992243980E-01 -0.81056561092E-01  0.88891977909E+00  0.88000000000E+00 0.  1.
        -11    1    4    4    0    0 -0.11893802077E-01  0.38183166636E-01  0.31713012632E-01  0.51043050785E-01  0.51100000000E-03 0.  1.
         11    1    4    4    0    0 -0.42185961419E-01  0.52917602963E-01  0.39736372077E-01  0.78480369718E-01  0.51100000000E-03 0. -1.
</event>
<event>
 8    1  0.1094829E+005  0.1043930E+01  0.7957747E-01            NaN
         13   -1    0    0    0    0  0.00000000000E+00  0.00000000000E+00  0.74505805969E-08  0.10566000000E+00  0.10566000000E+00 0. -1.
     999900   -1    0    0    0    0 -0.00000000000E+00 -0.00000000000E+00 -0.74505805969E-08  0.93827000000E+00  0.93827000000E+00 0.  1.
     999902    2    1    2    0    0  0.20985890116E-01  0.64192672354E-02 -0.89603422005E-02  0.10202255213E+01  0.10199501028E+01 0.  0.
     999903    2    3    3    0    0  0.79533621516E-01  0.89575706362E-01 -0.54736054254E-01  0.13318648837E+00  0.19829294649E-01 0.  0.
         14    1    1    2    0    0 -0.20985890116E-01 -0.64192672354E-02  0.89603422005E-02  0.23704478652E-01  0.00000000000E+00 0. -1.
     999901    1    3    3    0    0 -0.58547731400E-01 -0.83156439127E-01  0.45775712053E-01  0.88703903298E+00  0.88000000000E+00 0.  1.
        -11    1    4    4    0    0  0.53332453944E-01  0.55687443813E-01 -0.25081832785E-01  0.81085149683E-01  0.51100000000E-03 0. -1.
         11    1    4    4    0    0  0.26201167571E-01  0.33888262549E-01 -0.29654221469E-01  0.52101338683E-01  0.51100000000E-03 0.  1.
</event>
<event>
 8    1  0.1094829E+005  0.1043930E+01  0.7957747E-01            NaN
         13   -1    0    0    0    0  0.00000000000E+00  0.00000000000E+00  0.74505805969E-08  0.10566000000E+00  0.10566000000E+00 0.  1.
     999900   -1    0    0    0    0 -0.00000000000E+00 -0.00000000000E+00 -0.74505805969E-08  0.93827000000E+00  0.93827000000E+00 0. -1.
     999902    2    1    2    0    0  0.12261462568E-02 -0.25657248414E-01  0.19375511315E-03  0.10182427391E+01  0.10179186806E+01 0.  0.
     999903    2    3    3    0    0  0.46443823303E-01 -0.42615632143E-01 -0.11163479099E+00  0.12985214437E+00  0.20642965234E-01 0.  0.
         14    1    1    2    0    0 -0.12261462568E-02  0.25657248414E-01 -0.19375511315E-03  0.25687260887E-01  0.00000000000E+00 0. -1.
     999901    1    3    3    0    0 -0.45217677046E-01  0.16958383728E-01  0.11182854610E+00  0.88839059474E+00  0.88000000000E+00 0.  1.
        -11    1    4    4    0    0  0.26452887297E-01 -0.17145467547E-01 -0.72489445416E-01  0.79048738899E-01  0.51100000000E-03 0. -1.
         11    1    4    4    0    0  0.19990936006E-01 -0.25470164596E-01 -0.39145345573E-01  0.50803405476E-01  0.51100000000E-03 0.  1.
</event>
<event>
 8    1  0.1094829E+005  0.1043930E+01  0.7957747E-01            NaN
         13   -1    0    0    0    0  0.00000000000E+00  0.00000000000E+00  0.74505805969E-08  0.10566000000E+00  0.10566000000E+00 0.  1.
     999900   -1    0    0    0    0 -0.00000000000E+00 -0.00000000000E+00 -0.74505805969E-08  0.93827000000E+00  0.93827000000E+00 0.  1.
     999902    2    1    2    0    0 -0.11707028240E-01 -0.21642080527E-01 -0.24030914532E-03  0.10193232548E+01  0.10190262047E+01 0.  0.
     999903    2    3    3    0    0 -0.90459695216E-01 -0.84793506959E-01 -0.42432131356E-01  0.13254806624E+00  0.19889917366E-01 0.  0.
         14    1    1    2    0    0  0.11707028240E-01  0.21642080527E-01  0.24030914532E-03  0.24606745177E-01  0.00000000000E+00 0.  1.
     999901    1    3    3    0    0  0.78752666977E-01  0.63151426432E-01  0.42191822210E-01  0.88677518858E+00  0.88000000000E+00 0. -1.
        -11    1    4    4    0    0 -0.21033445104E-01 -0.31831389821E-01 -0.10559916108E-01  0.39590606715E-01  0.51100000000E-03 0. -1.
         11    1    4    4    0    0 -0.69426250112E-01 -0.52962117138E-01 -0.31872215248E-01  0.92957459530E-01  0.51100000000E-03 0.  1.
</event>
<event>
 8    1  0.1094829E+005  0.1043930E+01  0.7957747E-01            NaN
         13   -1    0    0    0    0  0.00000000000E+00  0.00000000000E+00  0.74505805969E-08  0.10566000000E+00  0.10566000000E+00 0.  1.
     999900   -1    0    0    0    0 -0.00000000000E+00 -0.00000000000E+00 -0.74505805969E-08  0.93827000000E+00  0.93827000000E+00 0.  1.
     999902    2    1    2    0    0  0.74399512702E-03 -0.49234366854E-02  0.21925839762E-01  0.10214458677E+01  0.10211983766E+01 0.  0.
     999903    2    3    3    0    0  0.92740780982E-01  0.80680841122E-02 -0.88196382140E-01  0.12972893277E+00  0.19622633285E-01 0.  0.
         14    1    1    2    0    0 -0.74399512702E-03  0.49234366854E-02 -0.21925839762E-01  0.22484132334E-01  0.00000000000E+00 0. -1.
     999901    1    3    3    0    0 -0.91996785855E-01 -0.12991520798E-01  0.11012222190E+00  0.89171693489E+00  0.88000000000E+00 0. -1.
        -11    1    4    4    0    0  0.32388939775E-01  0.33337775294E-02 -0.44156923325E-01  0.54865767933E-01  0.51100000000E-03 0.  1.
         11    1    4    4    0    0  0.60351841207E-01  0.47343065828E-02 -0.44039458816E-01  0.74863164839E-01  0.51100000000E-03 0. -1.
</event>
<event>
 8    1  0.1094829E+005  0.1043930E+01  0.7957747E-01            NaN
         13   -1    0    0    0    0  0.00000000000E+00  0.00000000000E+00  0.74505805969E-08  0.10566000000E+00  0.10566000000E+00 0. -1.
     999900   -1    0    0    0    0 -0.00000000000E+00 -0.00000000000E+00 -0.74505805969E-08  0.93827000000E+00  0.93827000000E+00 0. -1.
     999902    2    1    2    0    0 -0.23769587717E-01  0.52307395171E-03  0.35297008095E-02  0.10198940749E+01  0.10196108073E+01 0.  0.
     999903    2    3    3    0    0  0.73300278588E-02 -0.12101270380E+00  0.41509803166E-01  0.13018590955E+00  0.22967444266E-01 0.  0.
         14    1    1    2    0    0  0.23769587717E-01 -0.52307395171E-03 -0.35297008095E-02  0.24035925079E-01  0.00000000000E+00 0.  1.
     999901    1    3    3    0    0 -0.31099615575E-01  0.12153577775E+00 -0.37980102357E-01  0.88970816538E+00  0.88000000000E+00 0.  1.
        -11    1    4    4    0    0  0.12463543253E-01 -0.72233560547E-01  0.16542853935E-01  0.75146219579E-01  0.51100000000E-03 0. -1.
         11    1    4    4    0    0 -0.51335153941E-02 -0.48779143252E-01  0.24966949231E-01  0.55039689966E-01  0.51100000000E-03 0.  1.
</event>
<event>
 8    1  0.1094829E+005  0.1043930E+01  0.7957747E-01            NaN
         13   -1    0    0    0    0  0.00000000000E+00  0.00000000000E+00  0.74505805969E-08  0.10566000000E+00  0.10566000000E+00 0. -1.
     999900   -1    0    0    0    0 -0.00000000000E+00 -0.00000000000E+00 -0.74505805969E-08  0.93827000000E+00  0.93827000000E+00 0.  1.
     999902    2    1    2    0    0  0.13006220138E-02 -0.19048844093E-01  0.13563323285E-01  0.10205096282E+01  0.10202408477E+01 0.  0.
     999903    2    3    3    0    0 -0.48335442073E-01  0.12461971814E-01 -0.11717924457E+00  0.12890977989E+00  0.19878136025E-01 0.  0.
         14    1    1    2    0    0 -0.13006220138E-02  0.19048844093E-01 -0.13563323285E-01  0.23420371846E-01  0.00000000000E+00 0.  1.
     999901    1    3    3    0    0  0.49636064087E-01 -0.31510815906E-01  0.13074256785E+00  0.89159984826E+00  0.88000000000E+00 0. -1.
        -11    1    4    4    0    0 -0.37935586972E-01  0.15274710364E-01 -0.75592423929E-01  0.85947083791E-01  0.51100000000E-03 0. -1.
         11    1    4    4    0    0 -0.10399855101E-01 -0.28127385505E-02 -0.41586820638E-01  0.42962696098E-01  0.51100000000E-03 0.  1.
</event>
<event>
 8    1  0.1094829E+005  0.1043930E+01  0.7957747E-01            NaN
         13   -1    0    0    0    0  0.00000000000E+00  0.00000000000E+00  0.74505805969E-08  0.10566000000E+00  0.10566000000E+00 0. -1.
     999900   -1    0    0    0    0 -0.00000000000E+00 -0.00000000000E+00 -0.74505805969E-08  0.93827000000E+00  0.93827000000E+00 0. -1.
     999902    2    1    2    0    0  0.11138991672E-03 -0.22870004444E-01  0.65432659038E-02  0.10201421073E+01  0.10198647240E+01 0.  0.
     999903    2    3    3    0    0 -0.29425727800E-01 -0.12076314733E+00  0.43968178023E-01  0.13343125656E+00  0.20520437101E-01 0.  0.
         14    1    1    2    0    0 -0.11138991672E-03  0.22870004444E-01 -0.65432659038E-02  0.23787892711E-01  0.00000000000E+00 0.  1.
     999901    1    3    3    0    0  0.29537117716E-01  0.97893142890E-01 -0.37424912119E-01  0.88671085073E+00  0.88000000000E+00 0. -1.
        -11    1    4    4    0    0 -0.26453537531E-02 -0.42167679794E-01  0.21508949460E-01  0.47413153698E-01  0.51100000000E-03 0. -1.
         11    1    4    4    0    0 -0.26780374047E-01 -0.78595467540E-01  0.22459228562E-01  0.86018102865E-01  0.51100000000E-03 0.  1.
</event>
<event>
 8    1  0.1094829E+005  0.1043930E+01  0.7957747E-01            NaN
         13   -1    0    0    0    0  0.00000000000E+00  0.00000000000E+00  0.74505805969E-08  0.10566000000E+00  0.10566000000E+00 0. -1.
     999900   -1    0    0    0    0 -0.00000000000E+00 -0.00000000000E+00 -0.74505805969E-08  0.93827000000E+00  0.93827000000E+00 0.  1.
     999902    2    1    2    0    0 -0.19204432055E-01  0.96688444764E-02 -0.16471769290E-02  0.10223659105E+01  0.10221384666E+01 0.  0.
     999903    2    3    3    0    0 -0.74378330399E-01 -0.25050149585E-02  0.10951190725E+00  0.13357532554E+00  0.17637988316E-01 0.  0.
         14    1    1    2    0    0  0.19204432055E-01 -0.96688444764E-02  0.16471769290E-02  0.21564089498E-01  0.00000000000E+00 0. -1.
     999901    1    3    3    0    0  0.55173898345E-01  0.12173859435E-01 -0.11115908418E+00  0.88879058496E+00  0.88000000000E+00 0.  1.
        -11    1    4    4    0    0 -0.32433557799E-01  0.61978051370E-02  0.39391139240E-01  0.51403029401E-01  0.51100000000E-03 0.  1.
         11    1    4    4    0    0 -0.41944772601E-01 -0.87028200956E-02  0.70120768010E-01  0.82172296144E-01  0.51100000000E-03 0. -1.
</event>
<event>
 8    1  0.1094829E+005  0.1043930E+01  0.7957747E-01            NaN
         13   -1    0    0    0    0  0.00000000000E+00  0.00000000000E+00  0.74505805969E-08  0.10566000000E+00  0.10566000000E+00 0. -1.
     999900   -1    0    0    0    0 -0.00000000000E+00 -0.00000000000E+00 -0.74505805969E-08  0.93827000000E+00  0.93827000000E+00 0.  1.
     999902    2    1    2    0    0  0.17272523266E-01 -0.12994236439E-01 -0.84284238319E-02  0.10207302464E+01  0.10204665635E+01 0.  0.
     999903    2    3    3    0    0 -0.36625822920E-01  0.65923415124E-01 -0.10467964857E+00  0.13033857653E+00  0.18519399004E-01 0.  0.
         14    1    1    2    0    0 -0.17272523266E-01  0.12994236439E-01  0.84284238319E-02  0.23199753638E-01  0.00000000000E+00 0. -1.
     999901    1    3    3    0    0  0.53898346185E-01 -0.78917651563E-01  0.96251224740E-01  0.89039166984E+00  0.88000000000E+00 0. -1.
        -11    1    4    4    0    0 -0.14278240013E-01  0.10984168729E-01 -0.19613424843E-01  0.26635834051E-01  0.51100000000E-03 0.  1.
         11    1    4    4    0    0 -0.22347582907E-01  0.54939246395E-01 -0.85066223729E-01  0.10370274247E+00  0.51100000000E-03 0. -1.
</event>
<event>
 8    1  0.1094829E+005  0.1043930E+01  0.7957747E-01            NaN
         13   -1    0    0    0    0  0.00000000000E+00  0.00000000000E+00  0.74505805969E-08  0.10566000000E+00  0.10566000000E+00 0.  1.
     999900   -1    0    0    0    0 -0.00000000000E+00 -0.00000000000E+00 -0.74505805969E-08  0.93827000000E+00  0.93827000000E+00 0.  1.
     999902    2    1    2    0    0 -0.52722250056E-02 -0.43510552096E-03 -0.23246576327E-01  0.10200890901E+01  0.10198104543E+01 0.  0.
     999903    2    3    3    0    0 -0.28434412331E-01  0.35292541551E-01  0.11794215669E+00  0.12781827359E+00  0.19315264554E-01 0.  0.
         14    1    1    2    0    0  0.52722250056E-02  0.43510552096E-03  0.23246576327E-01  0.23840909887E-01  0.00000000000E+00 0.  1.
     999901    1    3    3    0    0  0.23162187326E-01 -0.35727647072E-01 -0.14118873302E+00  0.89227081652E+00  0.88000000000E+00 0.  1.
        -11    1    4    4    0    0 -0.26064416200E-01  0.18224079768E-01  0.82077183515E-01  0.88024974013E-01  0.51100000000E-03 0.  1.
         11    1    4    4    0    0 -0.23699961315E-02  0.17068461783E-01  0.35864973176E-01  0.39793299577E-01  0.51100000000E-03 0. -1.
</event>
<event>
 8    1  0.1094829E+005  0.1043930E+01  0.7957747E-01            NaN
         13   -1    0    0    0    0  0.00000000000E+00  0.00000000000E+00  0.74505805969E-08  0.10566000000E+00  0.10566000000E+00 0. -1.
     999900   -1    0    0    0    0 -0.00000000000E+00 -0.00000000000E+00 -0.74505805969E-08  0.93827000000E+00  0.93827000000E+00 0.  1.
     999902    2    1    2    0    0  0.24260483714E-02  0.15155760813E-01 -0.17931357438E-01  0.10203266872E+01  0.10200536418E+01 0.  0.
     999903    2    3    3    0    0 -0.65502427128E-01 -0.10714410739E+00 -0.21432319298E-01  0.12926900539E+00  0.21924956895E-01 0.  0.
         14    1    1    2    0    0 -0.24260483714E-02 -0.15155760813E-01  0.17931357438E-01  0.23603312820E-01  0.00000000000E+00 0. -1.
     999901    1    3    3    0    0  0.67928475499E-01  0.12229986821E+00  0.35009618598E-02  0.89105768179E+00  0.88000000000E+00 0.  1.
        -11    1    4    4    0    0 -0.42819717213E-01 -0.50616661345E-01 -0.69825445858E-02  0.66667770608E-01  0.51100000000E-03 0. -1.
         11    1    4    4    0    0 -0.22682709915E-01 -0.56527446048E-01 -0.14449774712E-01  0.62601234780E-01  0.51100000000E-03 0.  1.
</event>
<event>
 8    1  0.1094829E+005  0.1043930E+01  0.7957747E-01            NaN
         13   -1    0    0    0    0  0.00000000000E+00  0.00000000000E+00  0.74505805969E-08  0.10566000000E+00  0.10566000000E+00 0. -1.
     999900   -1    0    0    0    0 -0.00000000000E+00 -0.00000000000E+00 -0.74505805969E-08  0.93827000000E+00  0.93827000000E+00 0. -1.
     999902    2    1    2    0    0  0.22466308775E-01  0.58849659647E-02  0.42585936313E-02  0.10203184885E+01  0.10200452512E+01 0.  0.
     999903    2    3    3    0    0 -0.72569367263E-01  0.40983437172E-01 -0.95626392214E-01  0.12889227576E+00  0.22866059488E-01 0.  0.
         14    1    1    2    0    0 -0.22466308775E-01 -0.58849659647E-02 -0.42585936313E-02  0.23611511474E-01  0.00000000000E+00 0.  1.
     999901    1    3    3    0    0  0.95035676038E-01 -0.35098471207E-01  0.99884985845E-01  0.89142621276E+00  0.88000000000E+00 0.  1.
        -11    1    4    4    0    0 -0.14235511657E-01  0.15543283186E-01 -0.35790828328E-01  0.41538993220E-01  0.51100000000E-03 0.  1.
         11    1    4    4    0    0 -0.58333855606E-01  0.25440153986E-01 -0.59835563885E-01  0.87353282544E-01  0.51100000000E-03 0. -1.
</event>
<event>
 8    1  0.1094829E+005  0.1043930E+01  0.7957747E-01            NaN
         13   -1    0    0    0    0  0.00000000000E+00  0.00000000000E+00  0.74505805969E-08  0.10566000000E+00  0.10566000000E+00 0. -1.
     999900   -1    0    0    0    0 -0.00000000000E+00 -0.00000000000E+00 -0.74505805969E-08  0.93827000000E+00  0.93827000000E+00 0.  1.
     999902    2    1    2    0    0 -0.18230759634E-01  0.30031510593E-02 -0.16856940375E-01  0.10189192833E+01  0.10186122765E+01 0.  0.
     999903    2    3    3    0    0 -0.32108375095E-01  0.10231297475E+00  0.68687575939E-01  0.12910306990E+00  0.21230332430E-01 0.  0.
         14    1    1    2    0    0  0.18230759634E-01 -0.30031510593E-02  0.16856940375E-01  0.25010716742E-01  0.00000000000E+00 0. -1.
     999901    1    3    3    0    0  0.13877615461E-01 -0.99309823688E-01 -0.85544516314E-01  0.88981621336E+00  0.88000000000E+00 0.  1.
        -11    1    4    4    0    0 -0.21370336346E-01  0.35375915557E-01  0.29702425927E-01  0.50898348735E-01  0.51100000000E-03 0. -1.
         11    1    4    4    0    0 -0.10738038749E-01  0.66937059190E-01  0.38985150012E-01  0.78204721160E-01  0.51100000000E-03 0.  1.
</event>
<event>
 8    1  0.1094829E+005  0.1043930E+01  0.7957747E-01            NaN
         13   -1    0    0    0    0  0.00000000000E+00  0.00000000000E+00  0.74505805969E-08  0.10566000000E+00  0.10566000000E+00 0.  1.
     999900   -1    0    0    0    0 -0.00000000000E+00 -0.00000000000E+00 -0.74505805969E-08  0.93827000000E+00  0.93827000000E+00 0.  1.
     999902    2    1    2    0    0  0.22961887889E-01  0.14787167510E-02 -0.46864748289E-02  0.10204481358E+01  0.10201779256E+01 0.  0.
     999903    2    3    3    0    0 -0.10429138280E+00 -0.54039228427E-01  0.46867505457E-01  0.12807296247E+00  0.20228443190E-01 0.  0.
         14    1    1    2    0    0 -0.22961887889E-01 -0.14787167510E-02  0.46864748289E-02  0.23481864172E-01  0.00000000000E+00 0.  1.
     999901    1    3    3    0    0  0.12725327069E+00  0.55517945178E-01 -0.51553980286E-01  0.89237517336E+00  0.88000000000E+00 0.  1.
        -11    1    4    4    0    0 -0.82896598054E-01 -0.37268684809E-01  0.43210455770E-01  0.10063898571E+00  0.51100000000E-03 0.  1.
         11    1    4    4    0    0 -0.21394784744E-01 -0.16770543619E-01  0.36570496873E-02  0.27433976761E-01  0.51100000000E-03 0. -1.
</event>
<event>
 8    1  0.1094829E+005  0.1043930E+01  0.7957747E-01            NaN
         13   -1    0    0    0    0  0.00000000000E+00  0.00000000000E+00  0.74505805969E-08  0.10566000000E+00  0.10566000000E+00 0. -1.
     999900   -1    0    0    0    0 -0.00000000000E+00 -0.00000000000E+00 -0.74505805969E-08  0.93827000000E+00  0.93827000000E+00 0. -1.
     999902    2    1    2    0    0  0.14123455646E-01 -0.15128687817E-01  0.11267681783E-01  0.10203649868E+01  0.10200928372E+01 0.  0.
     999903    2    3    3    0    0  0.25098353239E-01  0.43282051060E-01 -0.11730424415E+00  0.12903844566E+00  0.19681755095E-01 0.  0.
         14    1    1    2    0    0 -0.14123455646E-01  0.15128687817E-01 -0.11267681783E-01  0.23565013202E-01  0.00000000000E+00 0.  1.
     999901    1    3    3    0    0 -0.10974897593E-01 -0.58410738877E-01  0.12857192594E+00  0.89132654114E+00  0.88000000000E+00 0.  1.
        -11    1    4    4    0    0  0.13822646231E-01  0.17285842925E-01 -0.30241297211E-01  0.37478835260E-01  0.51100000000E-03 0. -1.
         11    1    4    4    0    0  0.11275707008E-01  0.25996208134E-01 -0.87062946942E-01  0.91559610403E-01  0.51100000000E-03 0.  1.
</event>
<event>
 8    1  0.1094829E+005  0.1043930E+01  0.7957747E-01            NaN
         13   -1    0    0    0    0  0.00000000000E+00  0.00000000000E+00  0.74505805969E-08  0.10566000000E+00  0.10566000000E+00 0. -1.
     999900   -1    0    0    0    0 -0.00000000000E+00 -0.00000000000E+00 -0.74505805969E-08  0.93827000000E+00  0.93827000000E+00 0.  1.
     999902    2    1    2    0    0 -0.25087932877E-02  0.10644579588E-01 -0.20702347621E-01  0.10205165783E+01  0.10202479592E+01 0.  0.
     999903    2    3    3    0    0  0.44683878257E-01 -0.55345926060E-01  0.10447399295E+00  0.12796349231E+00  0.20000491351E-01 0.  0.
         14    1    1    2    0    0  0.25087932877E-02 -0.10644579588E-01  0.20702347621E-01  0.23413421693E-01  0.00000000000E+00 0. -1.
     999901    1    3    3    0    0 -0.47192671545E-01  0.65990505648E-01 -0.12517634057E+00  0.89255308600E+00  0.88000000000E+00 0.  1.
        -11    1    4    4    0    0  0.75818536437E-02 -0.19563633930E-01  0.19923436486E-01  0.28938291581E-01  0.51100000000E-03 0. -1.
         11    1    4    4    0    0  0.37102024613E-01 -0.35782292130E-01  0.84550556462E-01  0.99025200730E-01  0.51100000000E-03 0.  1.
</event>
<event>
 8    1  0.1094829E+005  0.1043930E+01  0.7957747E-01            NaN
         13   -1    0    0    0    0  0.00000000000E+00  0.00000000000E+00  0.74505805969E-08  0.10566000000E+00  0.10566000000E+00 0.  1.
     999900   -1    0    0    0    0 -0.00000000000E+00 -0.00000000000E+00 -0.74505805969E-08  0.93827000000E+00  0.93827000000E+00 0.  1.
     999902    2    1    2    0    0  0.59827088230E-02 -0.11090221234E-01  0.21000081652E-01  0.10194394050E+01  0.10191451866E+01 0.  0.
     999903    2    3    3    0    0  0.12222734492E+00  0.16198803091E-01  0.39825373155E-01  0.13117598811E+00  0.20473261620E-01 0.  0.
         14    1    1    2    0    0 -0.59827088230E-02  0.11090221234E-01 -0.21000081652E-01  0.24490594955E-01  0.00000000000E+00 0. -1.
     999901    1    3    3    0    0 -0.11624463610E+00 -0.27289024325E-01 -0.18825291503E-01  0.88826341694E+00  0.88000000000E+00 0.  1.
        -11    1    4    4    0    0  0.33078992194E-01 -0.45065794016E-02  0.86698453943E-02  0.34495743544E-01  0.51100000000E-03 0.  1.
         11    1    4    4    0    0  0.89148352725E-01  0.20705382493E-01  0.31155527760E-01  0.96680244563E-01  0.51100000000E-03 0. -1.
</event>
<event>
 8    1  0.1094829E+005  0.1043930E+01  0.7957747E-01            NaN
         13   -1    0    0    0    0  0.00000000000E+00  0.00000000000E+00  0.74505805969E-08  0.10566000000E+00  0.10566000000E+00 0. -1.
     999900   -1    0    0    0    0 -0.00000000000E+00 -0.00000000000E+00 -0.74505805969E-08  0.93827000000E+00  0.93827000000E+00 0. -1.
     999902    2    1    2    0    0  0.20763492568E-01  0.52527041015E-02 -0.32342709845E-02  0.10222695745E+01  0.10220400721E+01 0.  0.
     999903    2    3    3    0    0  0.96636710069E-01  0.25469177238E-01  0.86863125400E-01  0.13419131683E+00  0.21789314696E-01 0.  0.
         14    1    1    2    0    0 -0.20763492568E-01 -0.52527041015E-02  0.32342709845E-02  0.21660425499E-01  0.00000000000E+00 0. -1.
     999901    1    3    3    0    0 -0.75873217501E-01 -0.20216473136E-01 -0.90097396385E-01  0.88807825768E+00  0.88000000000E+00 0. -1.
        -11    1    4    4    0    0  0.40554805374E-01  0.10102158403E-01  0.50719560023E-01  0.65722756586E-01  0.51100000000E-03 0. -1.
         11    1    4    4    0    0  0.56081904695E-01  0.15367018835E-01  0.36143565377E-01  0.68468560240E-01  0.51100000000E-03 0.  1.
</event>
<event>
 8    1  0.1094829E+005  0.1043930E+01  0.7957747E-01            NaN
         13   -1    0    0    0    0  0.00000000000E+00  0.00000000000E+00  0.74505805969E-08  0.10566000000E+00  0.10566000000E+00 0.  1.
     999900   -1    0    0    0    0 -0.00000000000E+00 -0.00000000000E+00 -0.74505805969E-08  0.93827000000E+00  0.93827000000E+00 0. -1.
     999902    2    1    2    0    0  0.18557428700E-01  0.12599375786E-01  0.88011567530E-02  0.10198347144E+01  0.10195500291E+01 0.  0.
     999903    2    3    3    0    0  0.10848514481E+00 -0.62976538450E-01 -0.32508795653E-01  0.13106858927E+00  0.19674406162E-01 0.  0.
         14    1    1    2    0    0 -0.18557428700E-01 -0.12599375786E-01 -0.88011567530E-02  0.24095285646E-01  0.00000000000E+00 0.  1.
     999901    1    3    3    0    0 -0.89927716110E-01  0.75575914236E-01  0.41309952406E-01  0.88876612509E+00  0.88000000000E+00 0. -1.
        -11    1    4    4    0    0  0.75865681878E-01 -0.33501726546E-01 -0.19148249474E-01  0.85116884032E-01  0.51100000000E-03 0.  1.
         11    1    4    4    0    0  0.32619462932E-01 -0.29474811904E-01 -0.13360546179E-01  0.45951705234E-01  0.51100000000E-03 0. -1.
</event>
<event>
 8    1  0.1094829E+005  0.1043930E+01  0.7957747E-01            NaN
         13   -1    0    0    0    0  0.00000000000E+00  0.00000000000E+00  0.74505805969E-08  0.10566000000E+00  0.10566000000E+00 0. -1.
     999900   -1    0    0    0    0 -0.00000000000E+00 -0.00000000000E+00 -0.74505805969E-08  0.93827000000E+00  0.93827000000E+00 0.  1.
     999902    2    1    2    0    0  0.20624814200E-01 -0.17561572373E-02  0.20835887772E-01  0.10145599256E+01  0.10141347255E+01 0.  0.
     999903    2    3    3    0    0 -0.63925634962E-01  0.98398228463E-01 -0.31782253906E-01  0.12329770369E+00  0.20579453398E-01 0.  0.
         14    1    1    2    0    0 -0.20624814200E-01  0.17561572373E-02 -0.20835887772E-01  0.29370074366E-01  0.00000000000E+00 0.  1.
     999901    1    3    3    0    0  0.84550449162E-01 -0.10015438570E+00  0.52618141678E-01  0.89126222194E+00  0.88000000000E+00 0. -1.
        -11    1    4    4    0    0 -0.32728229765E-01  0.64613501068E-01 -0.25955592654E-01  0.76941506710E-01  0.51100000000E-03 0. -1.
         11    1    4    4    0    0 -0.31197405197E-01  0.33784727395E-01 -0.58266612526E-02  0.46356196981E-01  0.51100000000E-03 0.  1.
</event>
<event>
 8    1  0.1094829E+005  0.1043930E+01  0.7957747E-01            NaN
         13   -1    0    0    0    0  0.00000000000E+00  0.00000000000E+00  0.74505805969E-08  0.10566000000E+00  0.10566000000E+00 0.  1.
     999900   -1    0    0    0    0 -0.00000000000E+00 -0.00000000000E+00 -0.74505805969E-08  0.93827000000E+00  0.93827000000E+00 0. -1.
     999902    2    1    2    0    0  0.46047891834E-02 -0.21867039278E-01  0.11192049908E-01  0.10189373316E+01  0.10186307733E+01 0.  0.
     999903    2    3    3    0    0 -0.77629384588E-01 -0.81586700361E-01  0.64735587424E-01  0.13147138432E+00  0.20280966171E-01 0.  0.
         14    1    1    2    0    0 -0.46047891834E-02  0.21867039278E-01 -0.11192049908E-01  0.24992668352E-01  0.00000000000E+00 0. -1.
     999901    1    3    3    0    0  0.82234173771E-01  0.59719661083E-01 -0.53543537516E-01  0.88746594733E+00  0.88000000000E+00 0.  1.
        -11    1    4    4    0    0 -0.13238736298E-01 -0.23606022511E-01  0.21860174963E-01  0.34794206529E-01  0.51100000000E-03 0. -1.
         11    1    4    4    0    0 -0.64390648290E-01 -0.57980677850E-01  0.42875412461E-01  0.96677177792E-01  0.51100000000E-03 0.  1.
</event>
<event>
 8    1  0.1094829E+005  0.1043930E+01  0.7957747E-01            NaN
         13   -1    0    0    0    0  0.00000000000E+00  0.00000000000E+00  0.74505805969E-08  0.10566000000E+00  0.10566000000E+00 0. -1.
     999900   -1    0    0    0    0 -0.00000000000E+00 -0.00000000000E+00 -0.74505805969E-08  0.93827000000E+00  0.93827000000E+00 0. -1.
     999902    2    1    2    0    0 -0.14722985182E-01  0.11324715587E-01  0.14793977736E-01  0.10201839003E+01  0.10199075022E+01 0.  0.
     999903    2    3    3    0    0 -0.83633832688E-01 -0.80678194263E-01 -0.53942458893E-01  0.13005023723E+00  0.22353664878E-01 0.  0.
         14    1    1    2    0    0  0.14722985182E-01 -0.11324715587E-01 -0.14793977736E-01  0.23746099744E-01  0.00000000000E+00 0.  1.
     999901    1    3    3    0    0  0.68910847506E-01  0.92002909850E-01  0.68736436629E-01  0.89013366302E+00  0.88000000000E+00 0.  1.
        -11    1    4    4    0    0 -0.22802160068E-01 -0.19714265771E-01 -0.25089357932E-01  0.39221521912E-01  0.51100000000E-03 0.  1.
         11    1    4    4    0    0 -0.60831672620E-01 -0.60963928491E-01 -0.28853100961E-01  0.90828715322E-01  0.51100000000E-03 0. -1.
</event>
<event>
 8    1  0.1094829E+005  0.1043930E+01  0.7957747E-01            NaN
         13   -1    0    0    0    0  0.00000000000E+00  0.00000000000E+00  0.74505805969E-08  0.10566000000E+00  0.10566000000E+00 0.  1.
     999900   -1    0    0    0    0 -0.00000000000E+00 -0.00000000000E+00 -0.74505805969E-08  0.93827000000E+00  0.93827000000E+00 0. -1.
     999902    2    1    2    0    0 -0.17153652861E-01 -0.79325999163E-02  0.67485425401E-02  0.10238621956E+01  0.10236655112E+01 0.  0.
     999903    2    3    3    0    0  0.94812361878E-01 -0.61430522573E-01 -0.66845690466E-01  0.13211417774E+00  0.14923691152E-01 0.  0.
         14    1    1    2    0    0  0.17153652861E-01  0.79325999163E-02 -0.67485425401E-02  0.20067804422E-01  0.00000000000E+00 0. -1.
     999901    1    3    3    0    0 -0.11196601474E+00  0.53497922657E-01  0.73594233006E-01  0.89174801784E+00  0.88000000000E+00 0.  1.
        -11    1    4    4    0    0  0.17076747746E-01 -0.76044179006E-02 -0.58505021987E-02  0.19594182355E-01  0.51100000000E-03 0.  1.
         11    1    4    4    0    0  0.77735614132E-01 -0.53826104673E-01 -0.60995188267E-01  0.11251999538E+00  0.51100000000E-03 0. -1.
</event>
<event>
 8    1  0.1094829E+005  0.1043930E+01  0.7957747E-01            NaN
         13   -1    0    0    0    0  0.00000000000E+00  0.00000000000E+00  0.74505805969E-08  0.10566000000E+00  0.10566000000E+00 0. -1.
     999900   -1    0    0    0    0 -0.00000000000E+00 -0.00000000000E+00 -0.74505805969E-08  0.93827000000E+00  0.93827000000E+00 0.  1.
     999902    2    1    2    0    0  0.86951088973E-02 -0.60281335927E-02  0.21107699272E-01  0.10203190220E+01  0.10200457972E+01 0.  0.
     999903    2    3    3    0    0 -0.94305928116E-01  0.81368487272E-01  0.30656099124E-01  0.12996035557E+00  0.20867649759E-01 0.  0.
         14    1    1    2    0    0 -0.86951088973E-02  0.60281335927E-02 -0.21107699272E-01  0.23610977995E-01  0.00000000000E+00 0.  1.
     999901    1    3    3    0    0  0.10300103701E+00 -0.87396620865E-01 -0.95483998519E-02  0.89035866644E+00  0.88000000000E+00 0.  1.
        -11    1    4    4    0    0 -0.32415832616E-01  0.18801171721E-01  0.15961624046E-01  0.40734565487E-01  0.51100000000E-03 0. -1.
         11    1    4    4    0    0 -0.61890095500E-01  0.62567315551E-01  0.14694475078E-01  0.89225790078E-01  0.51100000000E-03 0.  1.
</event>
<event>
 8    1  0.1094829E+005  0.1043930E+01  0.7957747E-01            NaN
         13   -1    0    0    0    0  0.00000000000E+00  0.00000000000E+00  0.74505805969E-08  0.10566000000E+00  0.10566000000E+00 0. -1.
     999900   -1    0    0    0    0 -0.00000000000E+00 -0.00000000000E+00 -0.74505805969E-08  0.93827000000E+00  0.93827000000E+00 0.  1.
     999902    2    1    2    0    0  0.14516019752E-02 -0.21718788455E-01 -0.92735476429E-02  0.10202696617E+01  0.10199952799E+01 0.  0.
     999903    2    3    3    0    0  0.96241668848E-01  0.38270688781E-01  0.74532016761E-01  0.12919880779E+00  0.20253542125E-01 0.  0.
         14    1    1    2    0    0 -0.14516019752E-02  0.21718788455E-01  0.92735476429E-02  0.23660338250E-01  0.00000000000E+00 0.  1.
     999901    1    3    3    0    0 -0.94790066873E-01 -0.59989477236E-01 -0.83805564404E-01  0.89107085396E+00  0.88000000000E+00 0.  1.
        -11    1    4    4    0    0  0.75223289323E-01  0.38429090535E-01  0.61007262905E-01  0.10419925865E+00  0.51100000000E-03 0.  1.
         11    1    4    4    0    0  0.21018379525E-01 -0.15840175346E-03  0.13524753857E-01  0.24999549133E-01  0.51100000000E-03 0. -1.
</event>
<event>
 8    1  0.1094829E+005  0.1043930E+01  0.7957747E-01            NaN
         13   -1    0    0    0    0  0.00000000000E+00  0.00000000000E+00  0.74505805969E-08  0.10566000000E+00  0.10566000000E+00 0. -1.
     999900   -1    0    0    0    0 -0.00000000000E+00 -0.00000000000E+00 -0.74505805969E-08  0.93827000000E+00  0.93827000000E+00 0.  1.
     999902    2    1    2    0    0 -0.20056854060E-01 -0.94807479503E-02 -0.64080491206E-02  0.10208383333E+01  0.10205771297E+01 0.  0.
     999903    2    3    3    0    0  0.10487893313E+00 -0.55909635408E-01  0.46766584127E-01  0.12921501929E+00  0.19594128493E-01 0.  0.
         14    1    1    2    0    0  0.20056854060E-01  0.94807479503E-02  0.64080491206E-02  0.23091666679E-01  0.00000000000E+00 0.  1.
     999901    1    3    3    0    0 -0.12493578719E+00  0.46428887458E-01 -0.53174633248E-01  0.89162331404E+00  0.88000000000E+00 0. -1.
        -11    1    4    4    0    0  0.90057654220E-01 -0.47969611002E-01  0.32299898125E-01  0.10702807670E+00  0.51100000000E-03 0.  1.
         11    1    4    4    0    0  0.14821278913E-01 -0.79400244066E-02  0.14466686002E-01  0.22186942580E-01  0.51100000000E-03 0. -1.
</event>
<event>
 8    1  0.1094829E+005  0.1043930E+01  0.7957747E-01            NaN
         13   -1    0    0    0    0  0.00000000000E+00  0.00000000000E+00  0.74505805969E-08  0.10566000000E+00  0.10566000000E+00 0. -1.
     999900   -1    0    0    0    0 -0.00000000000E+00 -0.00000000000E+00 -0.74505805969E-08  0.93827000000E+00  0.93827000000E+00 0.  1.
     999902    2    1    2    0    0 -0.24342440710E-02 -0.85847743565E-02 -0.22082559640E-01  0.10201127093E+01  0.10198346319E+01 0.  0.
     999903    2    3    3    0    0  0.21488865399E-01  0.11829262371E+00  0.40922168224E-01  0.12846267425E+00  0.19316279732E-01 0.  0.
         14    1    1    2    0    0  0.24342440710E-02  0.85847743565E-02  0.22082559640E-01  0.23817290677E-01  0.00000000000E+00 0. -1.
     999901    1    3    3    0    0 -0.23923109470E-01 -0.12687739807E+00 -0.63004727864E-01  0.89165003507E+00  0.88000000000E+00 0.  1.
        -11    1    4    4    0    0  0.18967404971E-01  0.83941623215E-01  0.37403413946E-01  0.93836213985E-01  0.51100000000E-03 0. -1.
         11    1    4    4    0    0  0.25214604280E-02  0.34351000499E-01  0.35187542784E-02  0.34626460267E-01  0.51100000000E-03 0.  1.
</event>
<event>
 8    1  0.1094829E+005  0.1043930E+01  0.7957747E-01            NaN
         13   -1    0    0    0    0  0.00000000000E+00  0.00000000000E+00  0.74505805969E-08  0.10566000000E+00  0.10566000000E+00 0. -1.
     999900   -1    0    0    0    0 -0.00000000000E+00 -0.00000000000E+00 -0.74505805969E-08  0.93827000000E+00  0.93827000000E+00 0. -1.
     999902    2    1    2    0    0 -0.18433252309E-01  0.91342471712E-02  0.14189456278E-01  0.10189388029E+01  0.10186322811E+01 0.  0.
     999903    2    3    3    0    0 -0.11969397786E-01  0.12640314810E+00 -0.22680205271E-01  0.13037077036E+00  0.19003255550E-01 0.  0.
         14    1    1    2    0    0  0.18433252309E-01 -0.91342471712E-02 -0.14189456278E-01  0.24991197081E-01  0.00000000000E+00 0. -1.
     999901    1    3    3    0    0 -0.64638545229E-02 -0.11726890093E+00  0.36869661549E-01  0.88856803256E+00  0.88000000000E+00 0. -1.
        -11    1    4    4    0    0 -0.58989595015E-02  0.10572357877E+00 -0.24656998023E-01  0.10872212978E+00  0.51100000000E-03 0. -1.
         11    1    4    4    0    0 -0.60704382848E-02  0.20679569323E-01  0.19767927522E-02  0.21648640579E-01  0.51100000000E-03 0.  1.
</event>
<event>
 8    1  0.1094829E+005  0.1043930E+01  0.7957747E-01            NaN
         13   -1    0    0    0    0  0.00000000000E+00  0.00000000000E+00  0.74505805969E-08  0.10566000000E+00  0.10566000000E+00 0. -1.
     999900   -1    0    0    0    0 -0.00000000000E+00 -0.00000000000E+00 -0.74505805969E-08  0.93827000000E+00  0.93827000000E+00 0.  1.
     999902    2    1    2    0    0  0.21932727935E-01  0.27589799314E-02 -0.42369123764E-02  0.10214220469E+01  0.10211740253E+01 0.  0.
     999903    2    3    3    0    0 -0.34750521045E-01  0.10148246234E+00  0.72280635934E-01  0.13079628271E+00  0.19413612868E-01 0.  0.
         14    1    1    2    0    0 -0.21932727935E-01 -0.27589799314E-02  0.42369123764E-02  0.22507953071E-01  0.00000000000E+00 0.  1.
     999901    1    3    3    0    0  0.56683248981E-01 -0.98723482406E-01 -0.76517548310E-01  0.89062576422E+00  0.88000000000E+00 0.  1.
        -11    1    4    4    0    0 -0.11281529780E-01  0.29161688472E-01  0.11033218602E-01  0.33161272932E-01  0.51100000000E-03 0.  1.
         11    1    4    4    0    0 -0.23468991265E-01  0.72320773865E-01  0.61247417332E-01  0.97635009777E-01  0.51100000000E-03 0. -1.
</event>
<event>
 8    1  0.1094829E+005  0.1043930E+01  0.7957747E-01            NaN
         13   -1    0    0    0    0  0.00000000000E+00  0.00000000000E+00  0.74505805969E-08  0.10566000000E+00  0.10566000000E+00 0. -1.
     999900   -1    0    0    0    0 -0.00000000000E+00 -0.00000000000E+00 -0.74505805969E-08  0.93827000000E+00  0.93827000000E+00 0. -1.
     999902    2    1    2    0    0 -0.11551229331E-01 -0.17382092579E-01  0.14704673661E-01  0.10183997147E+01  0.10180796547E+01 0.  0.
     999903    2    3    3    0    0  0.53216746108E-01  0.70210745940E-01 -0.87640342342E-01  0.12579571608E+00  0.19548955632E-01 0.  0.
         14    1    1    2    0    0  0.11551229331E-01  0.17382092579E-01 -0.14704673661E-01  0.25530285329E-01  0.00000000000E+00 0.  1.
     999901    1    3    3    0    0 -0.64767975439E-01 -0.87592838520E-01  0.10234501600E+00  0.89260399859E+00  0.88000000000E+00 0.  1.
        -11    1    4    4    0    0  0.31703418340E-01  0.52766656562E-01 -0.51511339999E-01  0.80268960680E-01  0.51100000000E-03 0.  1.
         11    1    4    4    0    0  0.21513327767E-01  0.17444089378E-01 -0.36129002343E-01  0.45526755399E-01  0.51100000000E-03 0. -1.
</event>
<event>
 8    1  0.1094829E+005  0.1043930E+01  0.7957747E-01            NaN
         13   -1    0    0    0    0  0.00000000000E+00  0.00000000000E+00  0.74505805969E-08  0.10566000000E+00  0.10566000000E+00 0. -1.
     999900   -1    0    0    0    0 -0.00000000000E+00 -0.00000000000E+00 -0.74505805969E-08  0.93827000000E+00  0.93827000000E+00 0. -1.
     999902    2    1    2    0    0  0.24101299510E-02 -0.14812464972E-01  0.17894908708E-01  0.10205752231E+01  0.10203079635E+01 0.  0.
     999903    2    3    3    0    0 -0.40096606443E-01 -0.12288202396E+00 -0.19494221436E-01  0.13215876714E+00  0.19446989581E-01 0.  0.
         14    1    1    2    0    0 -0.24101299510E-02  0.14812464972E-01 -0.17894908708E-01  0.23354776868E-01  0.00000000000E+00 0.  1.
     999901    1    3    3    0    0  0.42506736394E-01  0.10806955898E+00  0.37389130143E-01  0.88841645599E+00  0.88000000000E+00 0.  1.
        -11    1    4    4    0    0 -0.11909424582E-01 -0.57380507036E-01 -0.16055631970E-01  0.60765133264E-01  0.51100000000E-03 0.  1.
         11    1    4    4    0    0 -0.28187181861E-01 -0.65501516919E-01 -0.34385894660E-02  0.71393633880E-01  0.51100000000E-03 0. -1.
</event>
<event>
 8    1  0.1094829E+005  0.1043930E+01  0.7957747E-01            NaN
         13   -1    0    0    0    0  0.00000000000E+00  0.00000000000E+00  0.74505805969E-08  0.10566000000E+00  0.10566000000E+00 0.  1.
     999900   -1    0    0    0    0 -0.00000000000E+00 -0.00000000000E+00 -0.74505805969E-08  0.93827000000E+00  0.93827000000E+00 0.  1.
     999902    2    1    2    0    0 -0.13129067849E-01  0.18082860891E-01 -0.94417184656E-02  0.10196708094E+01  0.10193821910E+01 0.  0.
     999903    2    3    3    0    0  0.45754374997E-01  0.68953179373E-01 -0.10025988461E+00  0.13158129340E+00  0.20336876211E-01 0.  0.
         14    1    1    2    0    0  0.13129067849E-01 -0.18082860891E-01  0.94417184656E-02  0.24259190592E-01  0.00000000000E+00 0. -1.
     999901    1    3    3    0    0 -0.58883442846E-01 -0.50870318481E-01  0.90818166142E-01  0.88808951601E+00  0.88000000000E+00 0.  1.
        -11    1    4    4    0    0  0.22423293249E-01  0.30531671711E-01 -0.30710463764E-01  0.48768645288E-01  0.51100000000E-03 0. -1.
         11    1    4    4    0    0  0.23331081748E-01  0.38421507661E-01 -0.69549420843E-01  0.82812648111E-01  0.51100000000E-03 0.  1.
</event>
<event>
 8    1  0.1094829E+005  0.1043930E+01  0.7957747E-01            NaN
         13   -1    0    0    0    0  0.00000000000E+00  0.00000000000E+00  0.74505805969E-08  0.10566000000E+00  0.10566000000E+00 0. -1.
     999900   -1    0    0    0    0 -0.00000000000E+00 -0.00000000000E+00 -0.74505805969E-08  0.93827000000E+00  0.93827000000E+00 0.  1.
     999902    2    1    2    0    0  0.15684833508E-01  0.14802663080E-01  0.12291110158E-01  0.10191065388E+01  0.10188041682E+01 0.  0.
     999903    2    3    3    0    0 -0.97264147023E-01  0.72772368889E-01 -0.37221320277E-01  0.12861822347E+00  0.20027200383E-01 0.  0.
         14    1    1    2    0    0 -0.15684833508E-01 -0.14802663080E-01 -0.12291110158E-01  0.24823461188E-01  0.00000000000E+00 0.  1.
     999901    1    3    3    0    0  0.11294898053E+00 -0.57969705809E-01  0.49512430435E-01  0.89048831534E+00  0.88000000000E+00 0. -1.
        -11    1    4    4    0    0 -0.45318137259E-01  0.43634005433E-01 -0.25661371982E-01  0.67944294299E-01  0.51100000000E-03 0.  1.
         11    1    4    4    0    0 -0.51946009765E-01  0.29138363456E-01 -0.11559948295E-01  0.60673929170E-01  0.51100000000E-03 0. -1.
</event>
<event>
 8    1  0.1094829E+005  0.1043930E+01  0.7957747E-01            NaN
         13   -1    0    0    0    0  0.00000000000E+00  0.00000000000E+00  0.74505805969E-08  0.10566000000E+00  0.10566000000E+00 0. -1.
     999900   -1    0    0    0    0 -0.00000000000E+00 -0.00000000000E+00 -0.74505805969E-08  0.93827000000E+00  0.93827000000E+00 0. -1.
     999902    2    1    2    0    0 -0.44258401261E-02  0.22966313853E-01 -0.55196825849E-02  0.10198986345E+01  0.10196154756E+01 0.  0.
     999903    2    3    3    0    0  0.33148606141E-01 -0.10275103324E+00  0.64705583763E-01  0.12740310037E+00  0.19701078489E-01 0.  0.
         14    1    1    2    0    0  0.44258401261E-02 -0.22966313853E-01  0.55196825849E-02  0.24031365518E-01  0.00000000000E+00 0.  1.
     999901    1    3    3    0    0 -0.37574446267E-01  0.12571734709E+00 -0.70225266348E-01  0.89249553411E+00  0.88000000000E+00 0. -1.
        -11    1    4    4    0    0  0.18327459371E-01 -0.50287187824E-01  0.20884123221E-01  0.57455241275E-01  0.51100000000E-03 0. -1.
         11    1    4    4    0    0  0.14821146770E-01 -0.52463845416E-01  0.43821460542E-01  0.69947859098E-01  0.51100000000E-03 0.  1.
</event>
<event>
 8    1  0.1094829E+005  0.1043930E+01  0.7957747E-01            NaN
         13   -1    0    0    0    0  0.00000000000E+00  0.00000000000E+00  0.74505805969E-08  0.10566000000E+00  0.10566000000E+00 0. -1.
     999900   -1    0    0    0    0 -0.00000000000E+00 -0.00000000000E+00 -0.74505805969E-08  0.93827000000E+00  0.93827000000E+00 0.  1.
     999902    2    1    2    0    0  0.15662943138E-02 -0.23110829169E-01 -0.45730305759E-02  0.10203190637E+01  0.10200458399E+01 0.  0.
     999903    2    3    3    0    0  0.39019932707E-01  0.36768656920E-01 -0.11710107216E+00  0.13034665516E+00  0.20077353641E-01 0.  0.
         14    1    1    2    0    0 -0.15662943138E-02  0.23110829169E-01  0.45730305759E-02  0.23610936267E-01  0.00000000000E+00 0.  1.
     999901    1    3    3    0    0 -0.37453638393E-01 -0.59879486089E-01  0.11252804159E+00  0.88997240858E+00  0.88000000000E+00 0. -1.
        -11    1    4    4    0    0  0.16139363167E-01  0.23719121781E-01 -0.42936971933E-01  0.51642235247E-01  0.51100000000E-03 0.  1.
         11    1    4    4    0    0  0.22880569540E-01  0.13049535139E-01 -0.74164100228E-01  0.78704419911E-01  0.51100000000E-03 0. -1.
</event>
<event>
 8    1  0.1094829E+005  0.1043930E+01  0.7957747E-01            NaN
         13   -1    0    0    0    0  0.00000000000E+00  0.00000000000E+00  0.74505805969E-08  0.10566000000E+00  0.10566000000E+00 0.  1.
     999900   -1    0    0    0    0 -0.00000000000E+00 -0.00000000000E+00 -0.74505805969E-08  0.93827000000E+00  0.93827000000E+00 0.  1.
     999902    2    1    2    0    0  0.23243510409E-01 -0.96948924282E-02  0.32062395873E-02  0.10185423714E+01  0.10182259232E+01 0.  0.
     999903    2    3    3    0    0  0.89378226113E-01 -0.47788630895E-01 -0.80997520224E-01  0.13123452924E+00  0.19740385934E-01 0.  0.
         14    1    1    2    0    0 -0.23243510409E-01  0.96948924282E-02 -0.32062395873E-02  0.25387628633E-01  0.00000000000E+00 0. -1.
     999901    1    3    3    0    0 -0.66134715704E-01  0.38093738467E-01  0.84203759811E-01  0.88730784213E+00  0.88000000000E+00 0. -1.
        -11    1    4    4    0    0  0.59923017745E-01 -0.39282564946E-01 -0.48319325037E-01  0.86422834121E-01  0.51100000000E-03 0. -1.
         11    1    4    4    0    0  0.29455208367E-01 -0.85060659497E-02 -0.32678195187E-01  0.44811695121E-01  0.51100000000E-03 0.  1.
</event>
<event>
 8    1  0.1094829E+005  0.1043930E+01  0.7957747E-01            NaN
         13   -1    0    0    0    0  0.00000000000E+00  0.00000000000E+00  0.74505805969E-08  0.10566000000E+00  0.10566000000E+00 0. -1.
     999900   -1    0    0    0    0 -0.00000000000E+00 -0.00000000000E+00 -0.74505805969E-08  0.93827000000E+00  0.93827000000E+00 0.  1.
     999902    2    1    2    0    0 -0.59187688046E-02 -0.19767250308E-01  0.10219989245E-01  0.10209034026E+01  0.10206436857E+01 0.  0.
     999903    2    3    3    0    0  0.11081881097E+00 -0.27783367933E-01 -0.59707236158E-01  0.13040818219E+00  0.19713333932E-01 0.  0.
         14    1    1    2    0    0  0.59187688046E-02  0.19767250308E-01 -0.10219989245E-01  0.23026597427E-01  0.00000000000E+00 0.  1.
     999901    1    3    3    0    0 -0.11673757977E+00  0.80161176251E-02  0.69927225403E-01  0.89049522038E+00  0.88000000000E+00 0. -1.
        -11    1    4    4    0    0  0.38993276415E-01 -0.11140757626E-01 -0.10930517193E-01  0.42003921402E-01  0.51100000000E-03 0.  1.
         11    1    4    4    0    0  0.71825534552E-01 -0.16642610307E-01 -0.48776718965E-01  0.88404260788E-01  0.51100000000E-03 0. -1.
</event>
<event>
 8    1  0.1094829E+005  0.1043930E+01  0.7957747E-01            NaN
         13   -1    0    0    0    0  0.00000000000E+00  0.00000000000E+00  0.74505805969E-08  0.10566000000E+00  0.10566000000E+00 0.  1.
     999900   -1    0    0    0    0 -0.00000000000E+00 -0.00000000000E+00 -0.74505805969E-08  0.93827000000E+00  0.93827000000E+00 0. -1.
     999902    2    1    2    0    0  0.80432793507E-02 -0.13928679387E-01 -0.11825911685E-01  0.10239661667E+01  0.10237715350E+01 0.  0.
     999903    2    3    3    0    0 -0.11321202633E+00 -0.56951459190E-01 -0.39354695410E-01  0.13418437174E+00  0.19905324870E-01 0.  0.
         14    1    1    2    0    0 -0.80432793507E-02  0.13928679387E-01  0.11825911685E-01  0.19963833283E-01  0.00000000000E+00 0.  1.
     999901    1    3    3    0    0  0.12125530568E+00  0.43022779803E-01  0.27528783725E-01  0.88978179498E+00  0.88000000000E+00 0.  1.
        -11    1    4    4    0    0 -0.94212154767E-03  0.16168701377E-03  0.14197968407E-02  0.17862473988E-02  0.51100000000E-03 0. -1.
         11    1    4    4    0    0 -0.11226990478E+00 -0.57113146204E-01 -0.40774492251E-01  0.13239812434E+00  0.51100000000E-03 0.  1.
</event>
<event>
 8    1  0.1094829E+005  0.1043930E+01  0.7957747E-01            NaN
         13   -1    0    0    0    0  0.00000000000E+00  0.00000000000E+00  0.74505805969E-08  0.10566000000E+00  0.10566000000E+00 0.  1.
     999900   -1    0    0    0    0 -0.00000000000E+00 -0.00000000000E+00 -0.74505805969E-08  0.93827000000E+00  0.93827000000E+00 0.  1.
     999902    2    1    2    0    0 -0.57420698272E-02 -0.10497778610E-01  0.19634608013E-01  0.10209366846E+01  0.10206777265E+01 0.  0.
     999903    2    3    3    0    0 -0.89631297100E-01  0.85455404056E-01  0.39395930929E-01  0.13153524227E+00  0.20324494674E-01 0.  0.
         14    1    1    2    0    0  0.57420698272E-02  0.10497778610E-01 -0.19634608013E-01  0.22993315408E-01  0.00000000000E+00 0. -1.
     999901    1    3    3    0    0  0.83889227273E-01 -0.95953182666E-01 -0.19761322916E-01  0.88940144232E+00  0.88000000000E+00 0.  1.
        -11    1    4    4    0    0 -0.34129322935E-01  0.38541838547E-01  0.25850553083E-01  0.57608994248E-01  0.51100000000E-03 0.  1.
         11    1    4    4    0    0 -0.55501974165E-01  0.46913565509E-01  0.13545377846E-01  0.73926248025E-01  0.51100000000E-03 0. -1.
</event>
<event>
 8    1  0.1094829E+005  0.1043930E+01  0.7957747E-01            NaN
         13   -1    0    0    0    0  0.00000000000E+00  0.00000000000E+00  0.74505805969E-08  0.10566000000E+00  0.10566000000E+00 0. -1.
     999900   -1    0    0    0    0 -0.00000000000E+00 -0.00000000000E+00 -0.74505805969E-08  0.93827000000E+00  0.93827000000E+00 0. -1.
     999902    2    1    2    0    0 -0.11489256374E-01 -0.15795583882E-01  0.92986520244E-02  0.10222974224E+01  0.10220685161E+01 0.  0.
     999903    2    3    3    0    0 -0.70676799089E-01  0.25490057709E-01 -0.10512443920E+00  0.13196023170E+00  0.26784362265E-01 0.  0.
         14    1    1    2    0    0  0.11489256374E-01  0.15795583882E-01 -0.92986520244E-02  0.21632577555E-01  0.00000000000E+00 0.  1.
     999901    1    3    3    0    0  0.59187542715E-01 -0.41285641591E-01  0.11442309123E+00  0.89033719074E+00  0.88000000000E+00 0.  1.
        -11    1    4    4    0    0 -0.18825654182E-01  0.22954965297E-02 -0.10741925055E-01  0.21801941074E-01  0.51100000000E-03 0.  1.
         11    1    4    4    0    0 -0.51851144907E-01  0.23194561179E-01 -0.94382514147E-01  0.11015829063E+00  0.51100000000E-03 0. -1.
</event>
<event>
 8    1  0.1094829E+005  0.1043930E+01  0.7957747E-01            NaN
         13   -1    0    0    0    0  0.00000000000E+00  0.00000000000E+00  0.74505805969E-08  0.10566000000E+00  0.10566000000E+00 0. -1.
     999900   -1    0    0    0    0 -0.00000000000E+00 -0.00000000000E+00 -0.74505805969E-08  0.93827000000E+00  0.93827000000E+00 0.  1.
     999902    2    1    2    0    0 -0.68308887439E-02  0.84661386792E-02 -0.20553466439E-01  0.10206752902E+01  0.10204103422E+01 0.  0.
     999903    2    3    3    0    0  0.94241451221E-01  0.14559745034E-01 -0.89230956854E-01  0.13221068897E+00  0.20592846189E-01 0.  0.
         14    1    1    2    0    0  0.68308887439E-02 -0.84661386792E-02  0.20553466439E-01  0.23254709799E-01  0.00000000000E+00 0. -1.
     999901    1    3    3    0    0 -0.10107233996E+00 -0.60936063544E-02  0.68677490415E-01  0.88846460123E+00  0.88000000000E+00 0. -1.
        -11    1    4    4    0    0  0.19309783392E-01  0.48277948460E-02 -0.30871208516E-01  0.36735105471E-01  0.51100000000E-03 0.  1.
         11    1    4    4    0    0  0.74931667829E-01  0.97319501876E-02 -0.58359748338E-01  0.95475583503E-01  0.51100000000E-03 0. -1.
</event>
<event>
 8    1  0.1094829E+005  0.1043930E+01  0.7957747E-01            NaN
         13   -1    0    0    0    0  0.00000000000E+00  0.00000000000E+00  0.74505805969E-08  0.10566000000E+00  0.10566000000E+00 0.  1.
     999900   -1    0    0    0    0 -0.00000000000E+00 -0.00000000000E+00 -0.74505805969E-08  0.93827000000E+00  0.93827000000E+00 0.  1.
     999902    2    1    2    0    0  0.76673589807E-02 -0.22887345568E-01 -0.17901813535E-02  0.10197262042E+01  0.10194389182E+01 0.  0.
     999903    2    3    3    0    0 -0.12592056720E+00 -0.15829360511E-02 -0.21377755503E-01  0.12917396827E+00  0.19246057206E-01 0.  0.
         14    1    1    2    0    0 -0.76673589807E-02  0.22887345568E-01  0.17901813535E-02  0.24203795780E-01  0.00000000000E+00 0. -1.
     999901    1    3    3    0    0  0.13358792618E+00 -0.21304409517E-01  0.19587574149E-01  0.89055223595E+00  0.88000000000E+00 0. -1.
        -11    1    4    4    0    0 -0.80480442698E-01  0.61711901483E-02 -0.76835819958E-02  0.81083190601E-01  0.51100000000E-03 0.  1.
         11    1    4    4    0    0 -0.45440124505E-01 -0.77541261993E-02 -0.13694173507E-01  0.48090777673E-01  0.51100000000E-03 0. -1.
</event>
<event>
 8    1  0.1094829E+005  0.1043930E+01  0.7957747E-01            NaN
         13   -1    0    0    0    0  0.00000000000E+00  0.00000000000E+00  0.74505805969E-08  0.10566000000E+00  0.10566000000E+00 0. -1.
     999900   -1    0    0    0    0 -0.00000000000E+00 -0.00000000000E+00 -0.74505805969E-08  0.93827000000E+00  0.93827000000E+00 0.  1.
     999902    2    1    2    0    0  0.10652338443E-01  0.19045603468E-01  0.89448584876E-02  0.10203457294E+01  0.10200731296E+01 0.  0.
     999903    2    3    3    0    0  0.11761965833E+00  0.33807900332E-01  0.48049241547E-01  0.13288356926E+00  0.19286140488E-01 0.  0.
         14    1    1    2    0    0 -0.10652338443E-01 -0.19045603468E-01 -0.89448584876E-02  0.23584270587E-01  0.00000000000E+00 0. -1.
     999901    1    3    3    0    0 -0.10696731989E+00 -0.14762296864E-01 -0.39104383059E-01  0.88746216016E+00  0.88000000000E+00 0.  1.
        -11    1    4    4    0    0  0.49836077819E-01  0.20164136246E-01  0.12772420497E-01  0.55259595450E-01  0.51100000000E-03 0.  1.
         11    1    4    4    0    0  0.67783580512E-01  0.13643764085E-01  0.35276821050E-01  0.77623973808E-01  0.51100000000E-03 0. -1.
</event>
<event>
 8    1  0.1094829E+005  0.1043930E+01  0.7957747E-01            NaN
         13   -1    0    0    0    0  0.00000000000E+00  0.00000000000E+00  0.74505805969E-08  0.10566000000E+00  0.10566000000E+00 0. -1.
     999900   -1    0    0    0    0 -0.00000000000E+00 -0.00000000000E+00 -0.74505805969E-08  0.93827000000E+00  0.93827000000E+00 0.  1.
     999902    2    1    2    0    0 -0.52901743001E-02 -0.32031358441E-02  0.23335587774E-01  0.10197888385E+01  0.10195030551E+01 0.  0.
     999903    2    3    3    0    0 -0.82276635752E-01 -0.69193917870E-01 -0.69054695811E-01  0.12916115921E+00  0.18889440806E-01 0.  0.
         14    1    1    2    0    0  0.52901743001E-02  0.32031358441E-02 -0.23335587774E-01  0.24141161532E-01  0.00000000000E+00 0.  1.
     999901    1    3    3    0    0  0.76986461452E-01  0.65990782026E-01  0.92390283585E-01  0.89062767926E+00  0.88000000000E+00 0. -1.
        -11    1    4    4    0    0 -0.71509856104E-02 -0.38480143150E-03 -0.59416633182E-02  0.93192892073E-02  0.51100000000E-03 0.  1.
         11    1    4    4    0    0 -0.75125650142E-01 -0.68809116439E-01 -0.63113032493E-01  0.11984187000E+00  0.51100000000E-03 0. -1.
</event>
<event>
 8    1  0.1094829E+005  0.1043930E+01  0.7957747E-01            NaN
         13   -1    0    0    0    0  0.00000000000E+00  0.00000000000E+00  0.74505805969E-08  0.10566000000E+00  0.10566000000E+00 0.  1.
     999900   -1    0    0    0    0 -0.00000000000E+00 -0.00000000000E+00 -0.74505805969E-08  0.93827000000E+00  0.93827000000E+00 0.  1.
     999902    2    1    2    0    0 -0.23079579257E-01 -0.18509916968E-02  0.39348275825E-02  0.10204443444E+01  0.10201740460E+01 0.  0.
     999903    2    3    3    0    0  0.35924923766E-01 -0.10727196096E+00  0.61485582888E-01  0.13032794667E+00  0.20174811685E-01 0.  0.
         14    1    1    2    0    0  0.23079579257E-01  0.18509916968E-02 -0.39348275825E-02  0.23485655559E-01  0.00000000000E+00 0. -1.
     999901    1    3    3    0    0 -0.59004503023E-01  0.10542096926E+00 -0.57550755306E-01  0.89011639777E+00  0.88000000000E+00 0.  1.
        -11    1    4    4    0    0 -0.19947594264E-02 -0.15162359178E-01  0.81418322886E-02  0.17332823054E-01  0.51100000000E-03 0. -1.
         11    1    4    4    0    0  0.37919683192E-01 -0.92109601778E-01  0.53343750600E-01  0.11299512362E+00  0.51100000000E-03 0.  1.
</event>
<event>
 8    1  0.1094829E+005  0.1043930E+01  0.7957747E-01            NaN
         13   -1    0    0    0    0  0.00000000000E+00  0.00000000000E+00  0.74505805969E-08  0.10566000000E+00  0.10566000000E+00 0.  1.
     999900   -1    0    0    0    0 -0.00000000000E+00 -0.00000000000E+00 -0.74505805969E-08  0.93827000000E+00  0.93827000000E+00 0.  1.
     999902    2    1    2    0    0  0.13810277186E-02 -0.18016275005E-01 -0.12922682061E-01  0.10217153851E+01  0.10214738563E+01 0.  0.
     999903    2    3    3    0    0  0.86161624106E-01 -0.74420737673E-01 -0.68198978535E-01  0.13412049899E+00  0.19363261912E-01 0.  0.
         14    1    1    2    0    0 -0.13810277186E-02  0.18016275005E-01  0.12922682061E-01  0.22214614880E-01  0.00000000000E+00 0.  1.
     999901    1    3    3    0    0 -0.84780596388E-01  0.56404462668E-01  0.55276296474E-01  0.88759488613E+00  0.88000000000E+00 0. -1.
        -11    1    4    4    0    0  0.23378052467E-01 -0.30280072777E-01 -0.28537755529E-01  0.47729244245E-01  0.51100000000E-03 0.  1.
         11    1    4    4    0    0  0.62783571639E-01 -0.44140664895E-01 -0.39661223005E-01  0.86391254745E-01  0.51100000000E-03 0. -1.
</event>
<event>
 8    1  0.1094829E+005  0.1043930E+01  0.7957747E-01            NaN
         13   -1    0    0    0    0  0.00000000000E+00  0.00000000000E+00  0.74505805969E-08  0.10566000000E+00  0.10566000000E+00 0. -1.
     999900   -1    0    0    0    0 -0.00000000000E+00 -0.00000000000E+00 -0.74505805969E-08  0.93827000000E+00  0.93827000000E+00 0.  1.
     999902    2    1    2    0    0 -0.42847973172E-02 -0.82622268970E-02  0.13001635708E-01  0.10279404280E+01  0.10278160619E+01 0.  0.
     999903    2    3    3    0    0 -0.22247566917E-01 -0.53922064594E-01 -0.12124954011E+00  0.13640755701E+00  0.22428271160E-01 0.  0.
         14    1    1    2    0    0  0.42847973172E-02  0.82622268970E-02 -0.13001635708E-01  0.15989571990E-01  0.00000000000E+00 0.  1.
     999901    1    3    3    0    0  0.17962769599E-01  0.45659837697E-01  0.13425117582E+00  0.89153287100E+00  0.88000000000E+00 0. -1.
        -11    1    4    4    0    0  0.57110320655E-03 -0.20315469689E-01 -0.27189987414E-01  0.33949977969E-01  0.51100000000E-03 0.  1.
         11    1    4    4    0    0 -0.22818670123E-01 -0.33606594905E-01 -0.94059552699E-01  0.10245757904E+00  0.51100000000E-03 0. -1.
</event>
<event>
 8    1  0.1094829E+005  0.1043930E+01  0.7957747E-01            NaN
         13   -1    0    0    0    0  0.00000000000E+00  0.00000000000E+00  0.74505805969E-08  0.10566000000E+00  0.10566000000E+00 0.  1.
     999900   -1    0    0    0    0 -0.00000000000E+00 -0.00000000000E+00 -0.74505805969E-08  0.93827000000E+00  0.93827000000E+00 0.  1.
     999902    2    1    2    0    0 -0.14646979445E-01 -0.19156397231E-01 -0.16863343632E-02  0.10197567651E+01  0.10194702128E+01 0.  0.
     999903    2    3    3    0    0 -0.91144610513E-01 -0.10083919344E-01 -0.92462983816E-01  0.13173953695E+00  0.19921766100E-01 0.  0.
         14    1    1    2    0    0  0.14646979445E-01  0.19156397231E-01  0.16863343632E-02  0.24173234896E-01  0.00000000000E+00 0.  1.
     999901    1    3    3    0    0  0.76497631069E-01 -0.90724778871E-02  0.90776649453E-01  0.88801722815E+00  0.88000000000E+00 0.  1.
        -11    1    4    4    0    0 -0.66062556510E-01 -0.10384080318E-01 -0.54675621998E-01  0.86381567818E-01  0.51100000000E-03 0. -1.
         11    1    4    4    0    0 -0.25082054003E-01  0.30016097395E-03 -0.37787361817E-01  0.45357969132E-01  0.51100000000E-03 0.  1.
</event>
<event>
 8    1  0.1094829E+005  0.1043930E+01  0.7957747E-01            NaN
         13   -1    0    0    0    0  0.00000000000E+00  0.00000000000E+00  0.74505805969E-08  0.10566000000E+00  0.10566000000E+00 0. -1.
     999900   -1    0    0    0    0 -0.00000000000E+00 -0.00000000000E+00 -0.74505805969E-08  0.93827000000E+00  0.93827000000E+00 0. -1.
     999902    2    1    2    0    0  0.20382454049E-01  0.11119058926E-01 -0.42394580727E-02  0.10203280740E+01  0.10200550611E+01 0.  0.
     999903    2    3    3    0    0 -0.77404839748E-01 -0.63294006729E-03 -0.10189528475E+00  0.12946493932E+00  0.19662442087E-01 0.  0.
         14    1    1    2    0    0 -0.20382454049E-01 -0.11119058926E-01  0.42394580727E-02  0.23601925964E-01  0.00000000000E+00 0.  1.
     999901    1    3    3    0    0  0.97787293797E-01  0.11751998993E-01  0.97655826681E-01  0.89086313471E+00  0.88000000000E+00 0.  1.
        -11    1    4    4    0    0 -0.30981384817E-01 -0.26266061805E-02 -0.26289490355E-01  0.40720310526E-01  0.51100000000E-03 0. -1.
         11    1    4    4    0    0 -0.46423454931E-01  0.19936661132E-02 -0.75605794399E-01  0.88744628796E-01  0.51100000000E-03 0.  1.
</event>
<event>
 8    1  0.1094829E+005  0.1043930E+01  0.7957747E-01            NaN
         13   -1    0    0    0    0  0.00000000000E+00  0.00000000000E+00  0.74505805969E-08  0.10566000000E+00  0.10566000000E+00 0.  1.
     999900   -1    0    0    0    0 -0.00000000000E+00 -0.00000000000E+00 -0.74505805969E-08  0.93827000000E+00  0.93827000000E+00 0. -1.
     999902    2    1    2    0    0 -0.20995846001E-01  0.10989115661E-01  0.12396683648E-02  0.10201997874E+01  0.10199237634E+01 0.  0.
     999903    2    3    3    0    0  0.28538121588E-01  0.10163891965E+00  0.75327879919E-01  0.13106534088E+00  0.18945704352E-01 0.  0.
         14    1    1    2    0    0  0.20995846001E-01 -0.10989115661E-01 -0.12396683648E-02  0.23730212598E-01  0.00000000000E+00 0.  1.
     999901    1    3    3    0    0 -0.49533967589E-01 -0.90649803992E-01 -0.74088211555E-01  0.88913444653E+00  0.88000000000E+00 0. -1.
        -11    1    4    4    0    0  0.26238063830E-01  0.83232260667E-01  0.53290119928E-01  0.10225528452E+00  0.51100000000E-03 0.  1.
         11    1    4    4    0    0  0.23000577578E-02  0.18406658987E-01  0.22037759992E-01  0.28810056355E-01  0.51100000000E-03 0. -1.
</event>
<event>
 8    1  0.1094829E+005  0.1043930E+01  0.7957747E-01            NaN
         13   -1    0    0    0    0  0.00000000000E+00  0.00000000000E+00  0.74505805969E-08  0.10566000000E+00  0.10566000000E+00 0.  1.
     999900   -1    0    0    0    0 -0.00000000000E+00 -0.00000000000E+00 -0.74505805969E-08  0.93827000000E+00  0.93827000000E+00 0.  1.
     999902    2    1    2    0    0 -0.24527182031E-03 -0.22096149647E-01 -0.68863589784E-02  0.10207843324E+01  0.10205218917E+01 0.  0.
     999903    2    3    3    0    0 -0.11720151823E+00 -0.43782103771E-01  0.35561994713E-01  0.13176751205E+00  0.21093915673E-01 0.  0.
         14    1    1    2    0    0  0.24527182031E-03  0.22096149647E-01  0.68863589784E-02  0.23145667575E-01  0.00000000000E+00 0.  1.
     999901    1    3    3    0    0  0.11695624641E+00  0.21685954124E-01 -0.42448353691E-01  0.88901682038E+00  0.88000000000E+00 0.  1.
        -11    1    4    4    0    0 -0.49290521691E-01 -0.74370410672E-02  0.14067399142E-01  0.51797856597E-01  0.51100000000E-03 0. -1.
         11    1    4    4    0    0 -0.67910996536E-01 -0.36345062704E-01  0.21494595571E-01  0.79969655452E-01  0.51100000000E-03 0.  1.
</event>
<event>
 8    1  0.1094829E+005  0.1043930E+01  0.7957747E-01            NaN
         13   -1    0    0    0    0  0.00000000000E+00  0.00000000000E+00  0.74505805969E-08  0.10566000000E+00  0.10566000000E+00 0.  1.
     999900   -1    0    0    0    0 -0.00000000000E+00 -0.00000000000E+00 -0.74505805969E-08  0.93827000000E+00  0.93827000000E+00 0. -1.
     999902    2    1    2    0    0 -0.11175732036E-01 -0.23452131428E-02  0.20845728075E-01  0.10201615043E+01  0.10198845785E+01 0.  0.
     999903    2    3    3    0    0  0.11849157434E+00  0.46107760830E-01  0.12673882578E-01  0.12930344592E+00  0.19813506263E-01 0.  0.
         14    1    1    2    0    0  0.11175732036E-01  0.23452131428E-02 -0.20845728075E-01  0.23768495750E-01  0.00000000000E+00 0. -1.
     999901    1    3    3    0    0 -0.12966730637E+00 -0.48452973973E-01  0.81718454968E-02  0.89085805833E+00  0.88000000000E+00 0.  1.
        -11    1    4    4    0    0  0.78291036325E-01  0.21147496775E-01  0.40296117937E-02  0.81198533736E-01  0.51100000000E-03 0. -1.
         11    1    4    4    0    0  0.40200538011E-01  0.24960264055E-01  0.86442707846E-02  0.48104912187E-01  0.51100000000E-03 0.  1.
</event>
<event>
 8    1  0.1094829E+005  0.1043930E+01  0.7957747E-01            NaN
         13   -1    0    0    0    0  0.00000000000E+00  0.00000000000E+00  0.74505805969E-08  0.10566000000E+00  0.10566000000E+00 0.  1.
     999900   -1    0    0    0    0 -0.00000000000E+00 -0.00000000000E+00 -0.74505805969E-08  0.93827000000E+00  0.93827000000E+00 0.  1.
     999902    2    1    2    0    0 -0.14613199040E-01 -0.82856446149E-02  0.15712456968E-01  0.10209282871E+01  0.10206691377E+01 0.  0.
     999903    2    3    3    0    0  0.73914165907E-02  0.11336914910E+00  0.62172125612E-01  0.13107290965E+00  0.20187556404E-01 0.  0.
         14    1    1    2    0    0  0.14613199040E-01  0.82856446149E-02 -0.15712456968E-01  0.23001712911E-01  0.00000000000E+00 0. -1.
     999901    1    3    3    0    0 -0.22004615631E-01 -0.12165479372E+00 -0.46459668645E-01  0.88985537744E+00  0.88000000000E+00 0. -1.
        -11    1    4    4    0    0  0.10994333972E-01  0.34081527596E-01  0.22977829859E-01  0.42551941070E-01  0.51100000000E-03 0. -1.
         11    1    4    4    0    0 -0.36029173818E-02  0.79287621508E-01  0.39194295753E-01  0.88520968582E-01  0.51100000000E-03 0.  1.
</event>
<event>
 8    1  0.1094829E+005  0.1043930E+01  0.7957747E-01            NaN
         13   -1    0    0    0    0  0.00000000000E+00  0.00000000000E+00  0.74505805969E-08  0.10566000000E+00  0.10566000000E+00 0.  1.
     999900   -1    0    0    0    0 -0.00000000000E+00 -0.00000000000E+00 -0.74505805969E-08  0.93827000000E+00  0.93827000000E+00 0. -1.
     999902    2    1    2    0    0  0.20072450546E-01 -0.84480429364E-02  0.88495310765E-02  0.10204228330E+01  0.10201520334E+01 0.  0.
     999903    2    3    3    0    0  0.13045308456E+00  0.33669557247E-02  0.20266868053E-01  0.13337501346E+00  0.18676311551E-01 0.  0.
         14    1    1    2    0    0 -0.20072450546E-01  0.84480429364E-02 -0.88495310765E-02  0.23507167006E-01  0.00000000000E+00 0. -1.
     999901    1    3    3    0    0 -0.11038063401E+00 -0.11814998661E-01 -0.11417336976E-01  0.88704781953E+00  0.88000000000E+00 0.  1.
        -11    1    4    4    0    0  0.56852494282E-01 -0.63927589591E-02  0.38999183326E-02  0.57345827723E-01  0.51100000000E-03 0. -1.
         11    1    4    4    0    0  0.73600590275E-01  0.97597146838E-02  0.16366949720E-01  0.76029185736E-01  0.51100000000E-03 0.  1.
</event>
<event>
 8    1  0.1094829E+005  0.1043930E+01  0.7957747E-01            NaN
         13   -1    0    0    0    0  0.00000000000E+00  0.00000000000E+00  0.74505805969E-08  0.10566000000E+00  0.10566000000E+00 0.  1.
     999900   -1    0    0    0    0 -0.00000000000E+00 -0.00000000000E+00 -0.74505805969E-08  0.93827000000E+00  0.93827000000E+00 0.  1.
     999902    2    1    2    0    0 -0.19110128581E-01  0.79822328028E-02 -0.11671420926E-01  0.10201574292E+01  0.10198804073E+01 0.  0.
     999903    2    3    3    0    0  0.83657485435E-01  0.80137677454E-01 -0.55491080378E-01  0.13016430945E+00  0.21044363545E-01 0.  0.
         14    1    1    2    0    0  0.19110128581E-01 -0.79822328028E-02  0.11671420926E-01  0.23772570776E-01  0.00000000000E+00 0.  1.
     999901    1    3    3    0    0 -0.10276761402E+00 -0.72155444651E-01  0.43819659452E-01  0.88999311977E+00  0.88000000000E+00 0. -1.
        -11    1    4    4    0    0  0.18016583406E-01  0.29890892183E-01 -0.13288823971E-01  0.37348583328E-01  0.51100000000E-03 0.  1.
         11    1    4    4    0    0  0.65640902030E-01  0.50246785271E-01 -0.42202256407E-01  0.92815726125E-01  0.51100000000E-03 0. -1.
</event>
<event>
 8    1  0.1094829E+005  0.1043930E+01  0.7957747E-01            NaN
         13   -1    0    0    0    0  0.00000000000E+00  0.00000000000E+00  0.74505805969E-08  0.10566000000E+00  0.10566000000E+00 0. -1.
     999900   -1    0    0    0    0 -0.00000000000E+00 -0.00000000000E+00 -0.74505805969E-08  0.93827000000E+00  0.93827000000E+00 0. -1.
     999902    2    1    2    0    0 -0.99608147875E-03  0.18218257242E-01  0.98797764992E-02  0.10231813360E+01  0.10229709376E+01 0.  0.
     999903    2    3    3    0    0 -0.78897157399E-01  0.55230462667E-01 -0.89968066853E-01  0.13334535513E+00  0.20287070500E-01 0.  0.
         14    1    1    2    0    0  0.99608147875E-03 -0.18218257242E-01 -0.98797764992E-02  0.20748664027E-01  0.00000000000E+00 0.  1.
     999901    1    3    3    0    0  0.77901075920E-01 -0.37012205425E-01  0.99847843352E-01  0.88983598084E+00  0.88000000000E+00 0.  1.
        -11    1    4    4    0    0 -0.44192803819E-01  0.42665719468E-01 -0.53595723426E-01  0.81523801541E-01  0.51100000000E-03 0. -1.
         11    1    4    4    0    0 -0.34704353580E-01  0.12564743199E-01 -0.36372343427E-01  0.51821553589E-01  0.51100000000E-03 0.  1.
</event>
<event>
 8    1  0.1094829E+005  0.1043930E+01  0.7957747E-01            NaN
         13   -1    0    0    0    0  0.00000000000E+00  0.00000000000E+00  0.74505805969E-08  0.10566000000E+00  0.10566000000E+00 0.  1.
     999900   -1    0    0    0    0 -0.00000000000E+00 -0.00000000000E+00 -0.74505805969E-08  0.93827000000E+00  0.93827000000E+00 0. -1.
     999902    2    1    2    0    0 -0.86929776306E-02 -0.19140860769E-01 -0.13046598331E-01  0.10191882511E+01  0.10188878923E+01 0.  0.
     999903    2    3    3    0    0  0.16424225016E-01 -0.15120170209E-01  0.12469177738E+00  0.12811086951E+00  0.19130625344E-01 0.  0.
         14    1    1    2    0    0  0.86929776306E-02  0.19140860769E-01  0.13046598331E-01  0.24741748909E-01  0.00000000000E+00 0.  1.
     999901    1    3    3    0    0 -0.25117202646E-01 -0.40206905608E-02 -0.13773837571E+00  0.89107738158E+00  0.88000000000E+00 0. -1.
        -11    1    4    4    0    0  0.13134260990E-01  0.69970034354E-03  0.60407821752E-01  0.61825273490E-01  0.51100000000E-03 0.  1.
         11    1    4    4    0    0  0.32899640256E-02 -0.15819870552E-01  0.64283955628E-01  0.66285596020E-01  0.51100000000E-03 0. -1.
</event>
<event>
 8    1  0.1094829E+005  0.1043930E+01  0.7957747E-01            NaN
         13   -1    0    0    0    0  0.00000000000E+00  0.00000000000E+00  0.74505805969E-08  0.10566000000E+00  0.10566000000E+00 0. -1.
     999900   -1    0    0    0    0 -0.00000000000E+00 -0.00000000000E+00 -0.74505805969E-08  0.93827000000E+00  0.93827000000E+00 0. -1.
     999902    2    1    2    0    0  0.17017061407E-01 -0.13096334711E-01  0.99403088649E-02  0.10202677072E+01  0.10199932795E+01 0.  0.
     999903    2    3    3    0    0  0.58331620707E-01 -0.32054986187E-02 -0.11479912087E+00  0.13045612780E+00  0.20666638135E-01 0.  0.
         14    1    1    2    0    0 -0.17017061407E-01  0.13096334711E-01 -0.99403088649E-02  0.23662292833E-01  0.00000000000E+00 0. -1.
     999901    1    3    3    0    0 -0.41314559300E-01 -0.98908360920E-02  0.12473942973E+00  0.88981157937E+00  0.88000000000E+00 0.  1.
        -11    1    4    4    0    0  0.82735411653E-02  0.49470191985E-02 -0.31346308310E-01  0.32799034255E-01  0.51100000000E-03 0.  1.
         11    1    4    4    0    0  0.50058079542E-01 -0.81525178172E-02 -0.83452812560E-01  0.97657093543E-01  0.51100000000E-03 0. -1.
</event>
<event>
 8    1  0.1094829E+005  0.1043930E+01  0.7957747E-01            NaN
         13   -1    0    0    0    0  0.00000000000E+00  0.00000000000E+00  0.74505805969E-08  0.10566000000E+00  0.10566000000E+00 0.  1.
     999900   -1    0    0    0    0 -0.00000000000E+00 -0.00000000000E+00 -0.74505805969E-08  0.93827000000E+00  0.93827000000E+00 0.  1.
     999902    2    1    2    0    0  0.72787119314E-02  0.22246106471E-01  0.10999436814E-01  0.10180677396E+01  0.10177391935E+01 0.  0.
     999903    2    3    3    0    0  0.12329683724E+00  0.29021458044E-01 -0.20637992930E-01  0.12986335002E+00  0.19854667619E-01 0.  0.
         14    1    1    2    0    0 -0.72787119314E-02 -0.22246106471E-01 -0.10999436814E-01  0.25862260356E-01  0.00000000000E+00 0. -1.
     999901    1    3    3    0    0 -0.11601812531E+00 -0.67753515736E-02  0.31637429743E-01  0.88820438963E+00  0.88000000000E+00 0. -1.
        -11    1    4    4    0    0  0.66628257172E-02  0.52872339394E-02  0.18812646512E-02  0.87263031666E-02  0.51100000000E-03 0. -1.
         11    1    4    4    0    0  0.11663401152E+00  0.23734224105E-01 -0.22519257581E-01  0.12113704685E+00  0.51100000000E-03 0.  1.
</event>
<event>
 8    1  0.1094829E+005  0.1043930E+01  0.7957747E-01            NaN
         13   -1    0    0    0    0  0.00000000000E+00  0.00000000000E+00  0.74505805969E-08  0.10566000000E+00  0.10566000000E+00 0. -1.
     999900   -1    0    0    0    0 -0.00000000000E+00 -0.00000000000E+00 -0.74505805969E-08  0.93827000000E+00  0.93827000000E+00 0.  1.
     999902    2    1    2    0    0 -0.10155435965E-01  0.20005545515E-01  0.72056295009E-02  0.10203657086E+01  0.10200935759E+01 0.  0.
     999903    2    3    3    0    0  0.84559385649E-01 -0.93031615461E-01  0.14329028766E-01  0.12806584872E+00  0.19757767224E-01 0.  0.
         14    1    1    2    0    0  0.10155435965E-01 -0.20005545515E-01 -0.72056295009E-02  0.23564291364E-01  0.00000000000E+00 0. -1.
     999901    1    3    3    0    0 -0.94714821613E-01  0.11303716098E+00 -0.71233992652E-02  0.89229985992E+00  0.88000000000E+00 0.  1.
        -11    1    4    4    0    0  0.18512290321E-02 -0.93866215453E-02  0.15263074288E-03  0.95822820929E-02  0.51100000000E-03 0. -1.
         11    1    4    4    0    0  0.82708156617E-01 -0.83644993916E-01  0.14176398023E-01  0.11848356662E+00  0.51100000000E-03 0.  1.
</event>
<event>
 8    1  0.1094829E+005  0.1043930E+01  0.7957747E-01            NaN
         13   -1    0    0    0    0  0.00000000000E+00  0.00000000000E+00  0.74505805969E-08  0.10566000000E+00  0.10566000000E+00 0. -1.
     999900   -1    0    0    0    0 -0.00000000000E+00 -0.00000000000E+00 -0.74505805969E-08  0.93827000000E+00  0.93827000000E+00 0. -1.
     999902    2    1    2    0    0 -0.18854834213E-01 -0.38695902836E-02 -0.18488900140E-01  0.10172407151E+01  0.10168905322E+01 0.  0.
     999903    2    3    3    0    0  0.10737290530E+00 -0.39508014035E-01  0.46681906610E-01  0.12513602753E+00  0.19748443348E-01 0.  0.
         14    1    1    2    0    0  0.18854834213E-01  0.38695902836E-02  0.18488900140E-01  0.26689284939E-01  0.00000000000E+00 0. -1.
     999901    1    3    3    0    0 -0.12622773951E+00  0.35638423752E-01 -0.65170806750E-01  0.89210468754E+00  0.88000000000E+00 0. -1.
        -11    1    4    4    0    0  0.37877714789E-01 -0.23932750538E-01  0.20203721492E-01  0.49152307261E-01  0.51100000000E-03 0. -1.
         11    1    4    4    0    0  0.69495190510E-01 -0.15575263497E-01  0.26478185119E-01  0.75983720264E-01  0.51100000000E-03 0.  1.
</event>
<event>
 8    1  0.1094829E+005  0.1043930E+01  0.7957747E-01            NaN
         13   -1    0    0    0    0  0.00000000000E+00  0.00000000000E+00  0.74505805969E-08  0.10566000000E+00  0.10566000000E+00 0.  1.
     999900   -1    0    0    0    0 -0.00000000000E+00 -0.00000000000E+00 -0.74505805969E-08  0.93827000000E+00  0.93827000000E+00 0.  1.
     999902    2    1    2    0    0  0.16470719097E-01  0.44695879293E-02 -0.16283033026E-01  0.10203418893E+01  0.10200691996E+01 0.  0.
     999903    2    3    3    0    0 -0.70536472823E-01  0.71069454380E-01  0.77450628601E-01  0.12860661858E+00  0.22689229314E-01 0.  0.
         14    1    1    2    0    0 -0.16470719097E-01 -0.44695879293E-02  0.16283033026E-01  0.23588110741E-01  0.00000000000E+00 0.  1.
     999901    1    3    3    0    0  0.87007191920E-01 -0.66599866451E-01 -0.93733661626E-01  0.89173527068E+00  0.88000000000E+00 0.  1.
        -11    1    4    4    0    0 -0.23960147358E-01  0.26180267976E-01  0.14491199612E-01  0.38337332718E-01  0.51100000000E-03 0. -1.
         11    1    4    4    0    0 -0.46576325464E-01  0.44889186404E-01  0.62959428989E-01  0.90269285858E-01  0.51100000000E-03 0.  1.
</event>
<event>
 8    1  0.1094829E+005  0.1043930E+01  0.7957747E-01            NaN
         13   -1    0    0    0    0  0.00000000000E+00  0.00000000000E+00  0.74505805969E-08  0.10566000000E+00  0.10566000000E+00 0. -1.
     999900   -1    0    0    0    0 -0.00000000000E+00 -0.00000000000E+00 -0.74505805969E-08  0.93827000000E+00  0.93827000000E+00 0. -1.
     999902    2    1    2    0    0 -0.10477674940E-01  0.89595725228E-02  0.19486470942E-01  0.10200599736E+01  0.10197806487E+01 0.  0.
     999903    2    3    3    0    0  0.27130377803E-01  0.69624804198E-01 -0.10279080799E+00  0.12874276353E+00  0.20617424576E-01 0.  0.
         14    1    1    2    0    0  0.10477674940E-01 -0.89595725228E-02 -0.19486470942E-01  0.23870026429E-01  0.00000000000E+00 0.  1.
     999901    1    3    3    0    0 -0.37608052743E-01 -0.60665231675E-01  0.12227727893E+00  0.89131721004E+00  0.88000000000E+00 0.  1.
        -11    1    4    4    0    0  0.22494571008E-01  0.45147717164E-01 -0.53618148387E-01  0.73617179024E-01  0.51100000000E-03 0. -1.
         11    1    4    4    0    0  0.46358067949E-02  0.24477087033E-01 -0.49172659602E-01  0.55125584510E-01  0.51100000000E-03 0.  1.
</event>
<event>
 8    1  0.1094829E+005  0.1043930E+01  0.7957747E-01            NaN
         13   -1    0    0    0    0  0.00000000000E+00  0.00000000000E+00  0.74505805969E-08  0.10566000000E+00  0.10566000000E+00 0. -1.
     999900   -1    0    0    0    0 -0.00000000000E+00 -0.00000000000E+00 -0.74505805969E-08  0.93827000000E+00  0.93827000000E+00 0. -1.
     999902    2    1    2    0    0  0.22737841080E-01  0.30453969005E-02 -0.77351649293E-02  0.10197201542E+01  0.10194327227E+01 0.  0.
     999903    2    3    3    0    0  0.37303734493E-01 -0.12358177648E+00  0.22126646341E-02  0.13048139792E+00  0.18880551657E-01 0.  0.
         14    1    1    2    0    0 -0.22737841080E-01 -0.30453969005E-02  0.77351649293E-02  0.24209845843E-01  0.00000000000E+00 0. -1.
     999901    1    3    3    0    0 -0.14565893414E-01  0.12662717338E+00 -0.99478295634E-02  0.88923875624E+00  0.88000000000E+00 0.  1.
        -11    1    4    4    0    0  0.21121408316E-01 -0.95634927755E-01  0.49634182122E-02  0.98066558710E-01  0.51100000000E-03 0.  1.
         11    1    4    4    0    0  0.16182326177E-01 -0.27946848730E-01 -0.27507535781E-02  0.32414839205E-01  0.51100000000E-03 0. -1.
</event>
<event>
 8    1  0.1094829E+005  0.1043930E+01  0.7957747E-01            NaN
         13   -1    0    0    0    0  0.00000000000E+00  0.00000000000E+00  0.74505805969E-08  0.10566000000E+00  0.10566000000E+00 0. -1.
     999900   -1    0    0    0    0 -0.00000000000E+00 -0.00000000000E+00 -0.74505805969E-08  0.93827000000E+00  0.93827000000E+00 0.  1.
     999902    2    1    2    0    0 -0.16952050955E-01 -0.18011537677E-02  0.13156012509E-01  0.10223963786E+01  0.10221695838E+01 0.  0.
     999903    2    3    3    0    0 -0.88715275411E-02 -0.29863590370E-01 -0.12568308313E+00  0.13103276608E+00  0.20070136281E-01 0.  0.
         14    1    1    2    0    0  0.16952050955E-01  0.18011537677E-02 -0.13156012509E-01  0.21533621423E-01  0.00000000000E+00 0.  1.
     999901    1    3    3    0    0 -0.80805234138E-02  0.28062436602E-01  0.13883909564E+00  0.89136361250E+00  0.88000000000E+00 0. -1.
        -11    1    4    4    0    0  0.32800621485E-02 -0.22532602187E-01 -0.81587630909E-01  0.84707022185E-01  0.51100000000E-03 0. -1.
         11    1    4    4    0    0 -0.12151589690E-01 -0.73309881826E-02 -0.44095452222E-01  0.46325743894E-01  0.51100000000E-03 0.  1.
</event>
<event>
 8    1  0.1094829E+005  0.1043930E+01  0.7957747E-01            NaN
         13   -1    0    0    0    0  0.00000000000E+00  0.00000000000E+00  0.74505805969E-08  0.10566000000E+00  0.10566000000E+00 0.  1.
     999900   -1    0    0    0    0 -0.00000000000E+00 -0.00000000000E+00 -0.74505805969E-08  0.93827000000E+00  0.93827000000E+00 0. -1.
     999902    2    1    2    0    0 -0.97018814176E-02  0.19011515225E-01  0.61579241494E-03  0.10225771685E+01  0.10223542058E+01 0.  0.
     999903    2    3    3    0    0  0.24000911663E-01 -0.94552776610E-01  0.84627037315E-01  0.13067436215E+00  0.19944476782E-01 0.  0.
         14    1    1    2    0    0  0.97018814176E-02 -0.19011515225E-01 -0.61579241494E-03  0.21352831533E-01  0.00000000000E+00 0.  1.
     999901    1    3    3    0    0 -0.33702793080E-01  0.11356429183E+00 -0.84011244900E-01  0.89190280631E+00  0.88000000000E+00 0. -1.
        -11    1    4    4    0    0  0.26018096813E-02 -0.30268589342E-01  0.36889877291E-01  0.47792060868E-01  0.51100000000E-03 0. -1.
         11    1    4    4    0    0  0.21399101981E-01 -0.64284187267E-01  0.47737160023E-01  0.82882301285E-01  0.51100000000E-03 0.  1.
</event>
<event>
 8    1  0.1094829E+005  0.1043930E+01  0.7957747E-01            NaN
         13   -1    0    0    0    0  0.00000000000E+00  0.00000000000E+00  0.74505805969E-08  0.10566000000E+00  0.10566000000E+00 0.  1.
     999900   -1    0    0    0    0 -0.00000000000E+00 -0.00000000000E+00 -0.74505805969E-08  0.93827000000E+00  0.93827000000E+00 0. -1.
     999902    2    1    2    0    0 -0.13504073863E-01 -0.31306134530E-02 -0.19030222044E-01  0.10203862088E+01  0.10201145549E+01 0.  0.
     999903    2    3    3    0    0  0.54619056474E-01  0.96755628208E-01  0.60915796053E-01  0.12852894000E+00  0.21542081812E-01 0.  0.
         14    1    1    2    0    0  0.13504073863E-01  0.31306134530E-02  0.19030222044E-01  0.23543791167E-01  0.00000000000E+00 0.  1.
     999901    1    3    3    0    0 -0.68123130336E-01 -0.99886241661E-01 -0.79946018098E-01  0.89185726883E+00  0.88000000000E+00 0. -1.
        -11    1    4    4    0    0  0.28815887387E-01  0.70646634751E-01  0.37837956070E-01  0.85166157646E-01  0.51100000000E-03 0.  1.
         11    1    4    4    0    0  0.25803169086E-01  0.26108993456E-01  0.23077839983E-01  0.43362782354E-01  0.51100000000E-03 0. -1.
</event>
<event>
 8    1  0.1094829E+005  0.1043930E+01  0.7957747E-01            NaN
         13   -1    0    0    0    0  0.00000000000E+00  0.00000000000E+00  0.74505805969E-08  0.10566000000E+00  0.10566000000E+00 0. -1.
     999900   -1    0    0    0    0 -0.00000000000E+00 -0.00000000000E+00 -0.74505805969E-08  0.93827000000E+00  0.93827000000E+00 0.  1.
     999902    2    1    2    0    0  0.83010391898E-02 -0.21638140980E-01 -0.19469139902E-02  0.10206725954E+01  0.10204075853E+01 0.  0.
     999903    2    3    3    0    0  0.37113595673E-01  0.12040656534E+00  0.66845977568E-02  0.12877497511E+00  0.25751706864E-01 0.  0.
         14    1    1    2    0    0 -0.83010391898E-02  0.21638140980E-01  0.19469139902E-02  0.23257404644E-01  0.00000000000E+00 0. -1.
     999901    1    3    3    0    0 -0.28812556483E-01 -0.14204470632E+00 -0.86315117470E-02  0.89189762025E+00  0.88000000000E+00 0. -1.
        -11    1    4    4    0    0  0.17592115924E-03  0.37448762139E-01 -0.22831684190E-02  0.37522189608E-01  0.51100000000E-03 0.  1.
         11    1    4    4    0    0  0.36937674513E-01  0.82957803203E-01  0.89677661758E-02  0.91252785502E-01  0.51100000000E-03 0. -1.
</event>
<event>
 8    1  0.1094829E+005  0.1043930E+01  0.7957747E-01            NaN
         13   -1    0    0    0    0  0.00000000000E+00  0.00000000000E+00  0.74505805969E-08  0.10566000000E+00  0.10566000000E+00 0.  1.
     999900   -1    0    0    0    0 -0.00000000000E+00 -0.00000000000E+00 -0.74505805969E-08  0.93827000000E+00  0.93827000000E+00 0. -1.
     999902    2    1    2    0    0 -0.10714179332E-01  0.21475104993E-01  0.83436993307E-02  0.10185215154E+01  0.10182045404E+01 0.  0.
     999903    2    3    3    0    0 -0.38649682581E-01  0.11301973226E+00 -0.51981556522E-01  0.13127862437E+00  0.16270745341E-01 0.  0.
         14    1    1    2    0    0  0.10714179332E-01 -0.21475104993E-01 -0.83436993307E-02  0.25408484641E-01  0.00000000000E+00 0. -1.
     999901    1    3    3    0    0  0.27935503249E-01 -0.91544627265E-01  0.60325255853E-01  0.88724289099E+00  0.88000000000E+00 0.  1.
        -11    1    4    4    0    0 -0.22699521807E-01  0.48708200715E-01 -0.29512749421E-01  0.61310852274E-01  0.51100000000E-03 0. -1.
         11    1    4    4    0    0 -0.15950160774E-01  0.64311531543E-01 -0.22468807101E-01  0.69967772093E-01  0.51100000000E-03 0.  1.
</event>
<event>
 8    1  0.1094829E+005  0.1043930E+01  0.7957747E-01            NaN
         13   -1    0    0    0    0  0.00000000000E+00  0.00000000000E+00  0.74505805969E-08  0.10566000000E+00  0.10566000000E+00 0. -1.
     999900   -1    0    0    0    0 -0.00000000000E+00 -0.00000000000E+00 -0.74505805969E-08  0.93827000000E+00  0.93827000000E+00 0. -1.
     999902    2    1    2    0    0  0.20379277148E-01  0.66077412005E-02 -0.79502167610E-02  0.10210786734E+01  0.10208229397E+01 0.  0.
     999903    2    3    3    0    0 -0.49448031305E-01  0.61654426735E-01 -0.10319733292E+00  0.13148438175E+00  0.19800933988E-01 0.  0.
         14    1    1    2    0    0 -0.20379277148E-01 -0.66077412005E-02  0.79502167610E-02  0.22851326601E-01  0.00000000000E+00 0. -1.
     999901    1    3    3    0    0  0.69827308454E-01 -0.55046685535E-01  0.95247116160E-01  0.88959429165E+00  0.88000000000E+00 0.  1.
        -11    1    4    4    0    0 -0.46275038092E-01  0.45149837797E-01 -0.82640023211E-01  0.10492626726E+00  0.51100000000E-03 0. -1.
         11    1    4    4    0    0 -0.31729932131E-02  0.16504588938E-01 -0.20557309710E-01  0.26558114493E-01  0.51100000000E-03 0.  1.
</event>
<event>
 8    1  0.1094829E+005  0.1043930E+01  0.7957747E-01            NaN
         13   -1    0    0    0    0  0.00000000000E+00  0.00000000000E+00  0.74505805969E-08  0.10566000000E+00  0.10566000000E+00 0.  1.
     999900   -1    0    0    0    0 -0.00000000000E+00 -0.00000000000E+00 -0.74505805969E-08  0.93827000000E+00  0.93827000000E+00 0. -1.
     999902    2    1    2    0    0 -0.52473091833E-02 -0.19973677791E-01 -0.72180037028E-02  0.10220534912E+01  0.10218193369E+01 0.  0.
     999903    2    3    3    0    0  0.54089908112E-01  0.24104196419E-01  0.11447403146E+00  0.13060931701E+00  0.21160325284E-01 0.  0.
         14    1    1    2    0    0  0.52473091833E-02  0.19973677791E-01  0.72180037028E-02  0.21876508762E-01  0.00000000000E+00 0.  1.
     999901    1    3    3    0    0 -0.59337217296E-01 -0.44077874211E-01 -0.12169203516E+00  0.89144417423E+00  0.88000000000E+00 0. -1.
        -11    1    4    4    0    0  0.25843001126E-02  0.86794936700E-02  0.14823935872E-01  0.17378792052E-01  0.51100000000E-03 0.  1.
         11    1    4    4    0    0  0.51505608000E-01  0.15424702749E-01  0.99650095584E-01  0.11323052495E+00  0.51100000000E-03 0. -1.
</event>
<event>
 7    1  0.1094829E+005  0.1043930E+01  0.7957747E-01            NaN
         13   -1    0    0    0    0  0.00000000000E+00  0.00000000000E+00  0.74505805969E-08  0.10566000000E+00  0.10566000000E+00 0.  1.
     999900   -1    0    0    0    0 -0.00000000000E+00 -0.00000000000E+00 -0.74505805969E-08  0.93827000000E+00  0.93827000000E+00 0. -1.
     999903    2    1    2    0    0  0.18828669105E-02 -0.73085799268E-03  0.11988255976E+00  0.12025803772E+00  0.92783705638E-02 0.  0.
         14    1    1    2    0    0  0.37410984662E-02 -0.96506578539E-02 -0.38466721349E-01  0.39834905122E-01  0.00000000000E+00 0. -1.
     999901    1    1    2    0    0 -0.56239653767E-02  0.10381515847E-01 -0.81415838414E-01  0.88383705716E+00  0.88000000000E+00 0. -1.
        -11    1    3    3    0    0 -0.25941527101E-02 -0.30426086542E-02  0.36520829290E-01  0.36742607267E-01  0.51100000000E-03 0.  1.
         11    1    3    3    0    0  0.44770196206E-02  0.23117506615E-02  0.83361730472E-01  0.83515430455E-01  0.51100000000E-03 0. -1.
</event>
<event>
 8    1  0.1094829E+005  0.1043930E+01  0.7957747E-01            NaN
         13   -1    0    0    0    0  0.00000000000E+00  0.00000000000E+00  0.74505805969E-08  0.10566000000E+00  0.10566000000E+00 0.  1.
     999900   -1    0    0    0    0 -0.00000000000E+00 -0.00000000000E+00 -0.74505805969E-08  0.93827000000E+00  0.93827000000E+00 0.  1.
     999902    2    1    2    0    0  0.96573107805E-02  0.16980367878E-01  0.22287233853E-01  0.10142935809E+01  0.10138605185E+01 0.  0.
     999903    2    3    3    0    0  0.45452282672E-01  0.72193935563E-01 -0.89066490653E-01  0.12483898956E+00  0.19340610802E-01 0.  0.
         14    1    1    2    0    0 -0.96573107805E-02 -0.16980367878E-01 -0.22287233853E-01  0.29636419109E-01  0.00000000000E+00 0.  1.
     999901    1    3    3    0    0 -0.35794971891E-01 -0.55213567685E-01  0.11135372451E+00  0.88945459133E+00  0.88000000000E+00 0. -1.
        -11    1    4    4    0    0  0.14886403862E-01  0.29882433570E-01 -0.47755927527E-01  0.58270529352E-01  0.51100000000E-03 0.  1.
         11    1    4    4    0    0  0.30565878810E-01  0.42311501993E-01 -0.41310563126E-01  0.66568460213E-01  0.51100000000E-03 0. -1.
</event>
<event>
 8    1  0.1094829E+005  0.1043930E+01  0.7957747E-01            NaN
         13   -1    0    0    0    0  0.00000000000E+00  0.00000000000E+00  0.74505805969E-08  0.10566000000E+00  0.10566000000E+00 0. -1.
     999900   -1    0    0    0    0 -0.00000000000E+00 -0.00000000000E+00 -0.74505805969E-08  0.93827000000E+00  0.93827000000E+00 0.  1.
     999902    2    1    2    0    0 -0.94883301122E-02  0.18948677800E-01  0.94706197620E-02  0.10207185064E+01  0.10204545535E+01 0.  0.
     999903    2    3    3    0    0 -0.84635691382E-01 -0.93418553021E-01  0.25202404461E-01  0.13025738451E+00  0.21014250490E-01 0.  0.
         14    1    1    2    0    0  0.94883301122E-02 -0.18948677800E-01 -0.94706197620E-02  0.23211493648E-01  0.00000000000E+00 0.  1.
     999901    1    3    3    0    0  0.75147361270E-01  0.11236723082E+00 -0.15731784699E-01  0.89046112185E+00  0.88000000000E+00 0.  1.
        -11    1    4    4    0    0 -0.22809309061E-01 -0.36708366452E-01  0.22614776938E-02  0.43279835372E-01  0.51100000000E-03 0.  1.
         11    1    4    4    0    0 -0.61826382322E-01 -0.56710186568E-01  0.22940926768E-01  0.86977549135E-01  0.51100000000E-03 0. -1.
</event>
<event>
 8    1  0.1094829E+005  0.1043930E+01  0.7957747E-01            NaN
         13   -1    0    0    0    0  0.00000000000E+00  0.00000000000E+00  0.74505805969E-08  0.10566000000E+00  0.10566000000E+00 0.  1.
     999900   -1    0    0    0    0 -0.00000000000E+00 -0.00000000000E+00 -0.74505805969E-08  0.93827000000E+00  0.93827000000E+00 0.  1.
     999902    2    1    2    0    0  0.38134315720E-02 -0.11842661484E-01  0.21556978353E-01  0.10190403594E+01  0.10187363545E+01 0.  0.
     999903    2    3    3    0    0  0.39978144681E-01  0.11911533410E+00 -0.13691652478E-01  0.12791727644E+00  0.19714294174E-01 0.  0.
         14    1    1    2    0    0 -0.38134315720E-02  0.11842661484E-01 -0.21556978353E-01  0.24889640558E-01  0.00000000000E+00 0. -1.
     999901    1    3    3    0    0 -0.36164713109E-01 -0.13095799558E+00  0.35248630832E-01  0.89112308300E+00  0.88000000000E+00 0. -1.
        -11    1    4    4    0    0  0.17643290799E-01  0.28210170928E-01  0.22856965419E-03  0.33277812715E-01  0.51100000000E-03 0. -1.
         11    1    4    4    0    0  0.22334853882E-01  0.90905163171E-01 -0.13920222133E-01  0.94639463726E-01  0.51100000000E-03 0.  1.
</event>
<event>
 8    1  0.1094829E+005  0.1043930E+01  0.7957747E-01            NaN
         13   -1    0    0    0    0  0.00000000000E+00  0.00000000000E+00  0.74505805969E-08  0.10566000000E+00  0.10566000000E+00 0. -1.
     999900   -1    0    0    0    0 -0.00000000000E+00 -0.00000000000E+00 -0.74505805969E-08  0.93827000000E+00  0.93827000000E+00 0. -1.
     999902    2    1    2    0    0  0.23726013135E-01 -0.65780811634E-02  0.53791586411E-02  0.10187282104E+01  0.10184164357E+01 0.  0.
     999903    2    3    3    0    0  0.66310698291E-01 -0.76146900576E-01 -0.80655942640E-01  0.13077814723E+00  0.20052020701E-01 0.  0.
         14    1    1    2    0    0 -0.23726013135E-01  0.65780811634E-02 -0.53791586411E-02  0.25201789594E-01  0.00000000000E+00 0.  1.
     999901    1    3    3    0    0 -0.42584685156E-01  0.69568819413E-01  0.86035101281E-01  0.88795006318E+00  0.88000000000E+00 0.  1.
        -11    1    4    4    0    0  0.22190688837E-01 -0.15325298020E-01 -0.14284501337E-01  0.30522115424E-01  0.51100000000E-03 0.  1.
         11    1    4    4    0    0  0.44120009454E-01 -0.60821602556E-01 -0.66371441302E-01  0.10025603180E+00  0.51100000000E-03 0. -1.
</event>
<event>
 8    1  0.1094829E+005  0.1043930E+01  0.7957747E-01            NaN
         13   -1    0    0    0    0  0.00000000000E+00  0.00000000000E+00  0.74505805969E-08  0.10566000000E+00  0.10566000000E+00 0. -1.
     999900   -1    0    0    0    0 -0.00000000000E+00 -0.00000000000E+00 -0.74505805969E-08  0.93827000000E+00  0.93827000000E+00 0.  1.
     999902    2    1    2    0    0 -0.91812052127E-03 -0.15863471371E-01  0.16702042247E-01  0.10208767815E+01  0.10206164569E+01 0.  0.
     999903    2    3    3    0    0 -0.12257265704E+00 -0.34472268486E-01 -0.24317073131E-01  0.13136642099E+00  0.21293730751E-01 0.  0.
         14    1    1    2    0    0  0.91812052127E-03  0.15863471371E-01 -0.16702042247E-01  0.23053218527E-01  0.00000000000E+00 0.  1.
     999901    1    3    3    0    0  0.12165453652E+00  0.18608797115E-01  0.41019115377E-01  0.88951036049E+00  0.88000000000E+00 0. -1.
        -11    1    4    4    0    0 -0.30828410837E-01 -0.10641997895E-01  0.29003847039E-02  0.32746242324E-01  0.51100000000E-03 0. -1.
         11    1    4    4    0    0 -0.91744246202E-01 -0.23830270591E-01 -0.27217457834E-01  0.98620178663E-01  0.51100000000E-03 0.  1.
</event>
<event>
 8    1  0.1094829E+005  0.1043930E+01  0.7957747E-01            NaN
         13   -1    0    0    0    0  0.00000000000E+00  0.00000000000E+00  0.74505805969E-08  0.10566000000E+00  0.10566000000E+00 0.  1.
     999900   -1    0    0    0    0 -0.00000000000E+00 -0.00000000000E+00 -0.74505805969E-08  0.93827000000E+00  0.93827000000E+00 0.  1.
     999902    2    1    2    0    0 -0.16412890879E-01  0.13546565955E-01  0.10204149784E-01  0.10203287901E+01  0.10200557940E+01 0.  0.
     999903    2    3    3    0    0 -0.52528020072E-01  0.19151569277E-01 -0.11618709839E+00  0.13054765620E+00  0.20427266321E-01 0.  0.
         14    1    1    2    0    0  0.16412890879E-01 -0.13546565955E-01 -0.10204149784E-01  0.23601209905E-01  0.00000000000E+00 0. -1.
     999901    1    3    3    0    0  0.36115129193E-01 -0.56050033215E-02  0.12639124817E+00  0.88978113389E+00  0.88000000000E+00 0. -1.
        -11    1    4    4    0    0 -0.15871804910E-01 -0.32912514690E-02 -0.38185309127E-01  0.41486449371E-01  0.51100000000E-03 0. -1.
         11    1    4    4    0    0 -0.36656215162E-01  0.22442820746E-01 -0.78001789261E-01  0.89061206830E-01  0.51100000000E-03 0.  1.
</event>
<event>
 8    1  0.1094829E+005  0.1043930E+01  0.7957747E-01            NaN
         13   -1    0    0    0    0  0.00000000000E+00  0.00000000000E+00  0.74505805969E-08  0.10566000000E+00  0.10566000000E+00 0.  1.
     999900   -1    0    0    0    0 -0.00000000000E+00 -0.00000000000E+00 -0.74505805969E-08  0.93827000000E+00  0.93827000000E+00 0. -1.
     999902    2    1    2    0    0 -0.21139621195E-01 -0.90658583105E-02  0.76757077314E-02  0.10196814978E+01  0.10193931366E+01 0.  0.
     999903    2    3    3    0    0  0.40319759822E-01  0.63746298806E-01 -0.10119877237E+00  0.12786732534E+00  0.20483840344E-01 0.  0.
         14    1    1    2    0    0  0.21139621195E-01  0.90658583105E-02 -0.76757077314E-02  0.24248502229E-01  0.00000000000E+00 0. -1.
     999901    1    3    3    0    0 -0.61459381016E-01 -0.72812157116E-01  0.10887448010E+00  0.89181417244E+00  0.88000000000E+00 0.  1.
        -11    1    4    4    0    0  0.24994061293E-01  0.53946495122E-01 -0.83291927380E-01  0.10233637537E+00  0.51100000000E-03 0. -1.
         11    1    4    4    0    0  0.15325698529E-01  0.97998036838E-02 -0.17906844993E-01  0.25530949968E-01  0.51100000000E-03 0.  1.
</event>
<event>
 8    1  0.1094829E+005  0.1043930E+01  0.7957747E-01            NaN
         13   -1    0    0    0    0  0.00000000000E+00  0.00000000000E+00  0.74505805969E-08  0.10566000000E+00  0.10566000000E+00 0.  1.
     999900   -1    0    0    0    0 -0.00000000000E+00 -0.00000000000E+00 -0.74505805969E-08  0.93827000000E+00  0.93827000000E+00 0. -1.
     999902    2    1    2    0    0  0.21679359896E-01 -0.10368067971E-01  0.12625313434E-02  0.10198658053E+01  0.10195818630E+01 0.  0.
     999903    2    3    3    0    0  0.54608733530E-01  0.11621763032E+00 -0.65788804418E-02  0.13016373701E+00  0.20264880676E-01 0.  0.
         14    1    1    2    0    0 -0.21679359896E-01  0.10368067971E-01 -0.12625313434E-02  0.24064194654E-01  0.00000000000E+00 0. -1.
     999901    1    3    3    0    0 -0.32929373635E-01 -0.12658569830E+00  0.78414117852E-02  0.88970206834E+00  0.88000000000E+00 0.  1.
        -11    1    4    4    0    0  0.70107381394E-02  0.29809606957E-01  0.42448572798E-02  0.30919945837E-01  0.51100000000E-03 0.  1.
         11    1    4    4    0    0  0.47597995391E-01  0.86408023367E-01 -0.10823737722E-01  0.99243791175E-01  0.51100000000E-03 0. -1.
</event>
<event>
 8    1  0.1094829E+005  0.1043930E+01  0.7957747E-01            NaN
         13   -1    0    0    0    0  0.00000000000E+00  0.00000000000E+00  0.74505805969E-08  0.10566000000E+00  0.10566000000E+00 0. -1.
     999900   -1    0    0    0    0 -0.00000000000E+00 -0.00000000000E+00 -0.74505805969E-08  0.93827000000E+00  0.93827000000E+00 0. -1.
     999902    2    1    2    0    0  0.17260908961E-01 -0.64574109127E-02 -0.14068872940E-01  0.10207444373E+01  0.10204810806E+01 0.  0.
     999903    2    3    3    0    0 -0.73217770889E-01  0.94418635527E-02 -0.10667352493E+00  0.13112946436E+00  0.19123408221E-01 0.  0.
         14    1    1    2    0    0 -0.17260908961E-01  0.64574109127E-02  0.14068872940E-01  0.23185562742E-01  0.00000000000E+00 0.  1.
     999901    1    3    3    0    0  0.90478679850E-01 -0.15899274465E-01  0.92604651985E-01  0.88961497290E+00  0.88000000000E+00 0.  1.
        -11    1    4    4    0    0 -0.57806719151E-01  0.10000757185E-01 -0.69946650912E-01  0.91293083079E-01  0.51100000000E-03 0.  1.
         11    1    4    4    0    0 -0.15411051739E-01 -0.55889363183E-03 -0.36726874013E-01  0.39836381281E-01  0.51100000000E-03 0. -1.
</event>
<event>
 8    1  0.1094829E+005  0.1043930E+01  0.7957747E-01            NaN
         13   -1    0    0    0    0  0.00000000000E+00  0.00000000000E+00  0.74505805969E-08  0.10566000000E+00  0.10566000000E+00 0. -1.
     999900   -1    0    0    0    0 -0.00000000000E+00 -0.00000000000E+00 -0.74505805969E-08  0.93827000000E+00  0.93827000000E+00 0.  1.
     999902    2    1    2    0    0  0.10920612264E-01 -0.11633598579E-01  0.17615254553E-01  0.10201624258E+01  0.10198855218E+01 0.  0.
     999903    2    3    3    0    0  0.58925407968E-01 -0.14970964659E-01 -0.11235164649E+00  0.12931620242E+00  0.20086170692E-01 0.  0.
         14    1    1    2    0    0 -0.10920612264E-01  0.11633598579E-01 -0.17615254553E-01  0.23767574152E-01  0.00000000000E+00 0.  1.
     999901    1    3    3    0    0 -0.48004795705E-01  0.33373660805E-02  0.12996690104E+00  0.89084622342E+00  0.88000000000E+00 0. -1.
        -11    1    4    4    0    0  0.24587600111E-01  0.31746568152E-02 -0.50897875655E-01  0.56616988549E-01  0.51100000000E-03 0.  1.
         11    1    4    4    0    0  0.34337807857E-01 -0.18145621475E-01 -0.61453770835E-01  0.72699213875E-01  0.51100000000E-03 0. -1.
</event>
<event>
 8    1  0.1094829E+005  0.1043930E+01  0.7957747E-01            NaN
         13   -1    0    0    0    0  0.00000000000E+00  0.00000000000E+00  0.74505805969E-08  0.10566000000E+00  0.10566000000E+00 0. -1.
     999900   -1    0    0    0    0 -0.00000000000E+00 -0.00000000000E+00 -0.74505805969E-08  0.93827000000E+00  0.93827000000E+00 0.  1.
     999902    2    1    2    0    0  0.15275108716E-02 -0.17685480557E-01 -0.14443154414E-01  0.10210451967E+01  0.10207887046E+01 0.  0.
     999903    2    3    3    0    0 -0.12437664033E+00 -0.37321912945E-01 -0.10458364431E-01  0.13185830786E+00  0.20365709364E-01 0.  0.
         14    1    1    2    0    0 -0.15275108716E-02  0.17685480557E-01  0.14443154414E-01  0.22884803285E-01  0.00000000000E+00 0. -1.
     999901    1    3    3    0    0  0.12590415120E+00  0.19636432388E-01 -0.39847899830E-02  0.88918688886E+00  0.88000000000E+00 0. -1.
        -11    1    4    4    0    0 -0.27823644609E-01 -0.17217954854E-01 -0.45716997721E-03  0.32727408911E-01  0.51100000000E-03 0.  1.
         11    1    4    4    0    0 -0.96552995723E-01 -0.20103958092E-01 -0.10001194453E-01  0.99130898944E-01  0.51100000000E-03 0. -1.
</event>
<event>
 8    1  0.1094829E+005  0.1043930E+01  0.7957747E-01            NaN
         13   -1    0    0    0    0  0.00000000000E+00  0.00000000000E+00  0.74505805969E-08  0.10566000000E+00  0.10566000000E+00 0. -1.
     999900   -1    0    0    0    0 -0.00000000000E+00 -0.00000000000E+00 -0.74505805969E-08  0.93827000000E+00  0.93827000000E+00 0.  1.
     999902    2    1    2    0    0  0.19502227718E-01  0.98951349764E-02  0.10377682539E-01  0.10197236604E+01  0.10194363132E+01 0.  0.
     999903    2    3    3    0    0 -0.60443382245E-01  0.10997813176E+00 -0.25758086585E-01  0.12971596346E+00  0.20350926995E-01 0.  0.
         14    1    1    2    0    0 -0.19502227718E-01 -0.98951349764E-02 -0.10377682539E-01  0.24206339604E-01  0.00000000000E+00 0. -1.
     999901    1    3    3    0    0  0.79945609962E-01 -0.10008299678E+00  0.36135769125E-01  0.89000769694E+00  0.88000000000E+00 0. -1.
        -11    1    4    4    0    0 -0.20395858367E-01  0.49277851116E-01 -0.19252421990E-01  0.56702861679E-01  0.51100000000E-03 0.  1.
         11    1    4    4    0    0 -0.40047523878E-01  0.60700280641E-01 -0.65056645952E-02  0.73013101780E-01  0.51100000000E-03 0. -1.
</event>
<event>
 7    1  0.1155116E+005  0.1043930E+01  0.7957747E-01            NaN
         13   -1    0    0    0    0  0.00000000000E+00  0.00000000000E+00  0.74505805969E-08  0.10566000000E+00  0.10566000000E+00 0. -1.
     999900   -1    0    0    0    0 -0.00000000000E+00 -0.00000000000E+00 -0.74505805969E-08  0.93827000000E+00  0.93827000000E+00 0.  1.
     999903    2    1    2    0    0  0.87884804246E-01 -0.58221896625E-01 -0.21712901900E-01  0.10949395678E+00  0.20098467549E-01 0.  0.
         14    1    1    2    0    0 -0.23245029911E-01  0.63659002415E-03  0.44154422989E-01  0.49903404011E-01  0.00000000000E+00 0. -1.
     999901    1    1    2    0    0 -0.64639774335E-01  0.57585306601E-01 -0.22441521090E-01  0.88453263921E+00  0.88000000000E+00 0.  1.
        -11    1    3    3    0    0  0.23242690340E-01 -0.26659331939E-01 -0.64816069794E-02  0.35961298415E-01  0.51100000000E-03 0. -1.
         11    1    3    3    0    0  0.64642113906E-01 -0.31562564686E-01 -0.15231294920E-01  0.73532658361E-01  0.51100000000E-03 0.  1.
</event>
<event>
 8    1  0.1094829E+005  0.1043930E+01  0.7957747E-01            NaN
         13   -1    0    0    0    0  0.00000000000E+00  0.00000000000E+00  0.74505805969E-08  0.10566000000E+00  0.10566000000E+00 0.  1.
     999900   -1    0    0    0    0 -0.00000000000E+00 -0.00000000000E+00 -0.74505805969E-08  0.93827000000E+00  0.93827000000E+00 0.  1.
     999902    2    1    2    0    0 -0.20741963899E-01  0.50855377231E-03  0.11275915656E-01  0.10203157254E+01  0.10200424233E+01 0.  0.
     999903    2    3    3    0    0 -0.91589144633E-01 -0.41024876050E-01  0.85679854540E-01  0.13336572962E+00  0.19333093204E-01 0.  0.
         14    1    1    2    0    0  0.20741963899E-01 -0.50855377231E-03 -0.11275915656E-01  0.23614274650E-01  0.00000000000E+00 0. -1.
     999901    1    3    3    0    0  0.70847180733E-01  0.41533429822E-01 -0.74403938883E-01  0.88694999573E+00  0.88000000000E+00 0.  1.
        -11    1    4    4    0    0 -0.11553105383E-01 -0.12991432026E-01  0.14105369302E-01  0.22393617712E-01  0.51100000000E-03 0.  1.
         11    1    4    4    0    0 -0.80036039249E-01 -0.28033444023E-01  0.71574485238E-01  0.11097211190E+00  0.51100000000E-03 0. -1.
</event>
<event>
 8    1  0.1094829E+005  0.1043930E+01  0.7957747E-01            NaN
         13   -1    0    0    0    0  0.00000000000E+00  0.00000000000E+00  0.74505805969E-08  0.10566000000E+00  0.10566000000E+00 0. -1.
     999900   -1    0    0    0    0 -0.00000000000E+00 -0.00000000000E+00 -0.74505805969E-08  0.93827000000E+00  0.93827000000E+00 0.  1.
     999902    2    1    2    0    0 -0.31828619682E-02 -0.38318315242E-03 -0.22734085519E-01  0.10209709912E+01  0.10207128141E+01 0.  0.
     999903    2    3    3    0    0  0.11145198444E+00 -0.51694522383E-01  0.37257443235E-01  0.13003160773E+00  0.20645422075E-01 0.  0.
         14    1    1    2    0    0  0.31828619682E-02  0.38318315242E-03  0.22734085519E-01  0.22959008777E-01  0.00000000000E+00 0. -1.
     999901    1    3    3    0    0 -0.11463484640E+00  0.51311339230E-01 -0.59991528754E-01  0.89093938350E+00  0.88000000000E+00 0.  1.
        -11    1    4    4    0    0  0.68257210465E-01 -0.37565995541E-01  0.14684766226E-01  0.79285271530E-01  0.51100000000E-03 0.  1.
         11    1    4    4    0    0  0.43194773970E-01 -0.14128526842E-01  0.22572677009E-01  0.50746336196E-01  0.51100000000E-03 0. -1.
</event>
<event>
 8    1  0.1094829E+005  0.1043930E+01  0.7957747E-01            NaN
         13   -1    0    0    0    0  0.00000000000E+00  0.00000000000E+00  0.74505805969E-08  0.10566000000E+00  0.10566000000E+00 0.  1.
     999900   -1    0    0    0    0 -0.00000000000E+00 -0.00000000000E+00 -0.74505805969E-08  0.93827000000E+00  0.93827000000E+00 0.  1.
     999902    2    1    2    0    0  0.13079261599E-01  0.13831930717E-01  0.14059769390E-01  0.10202642757E+01  0.10199897675E+01 0.  0.
     999903    2    3    3    0    0  0.12907995297E+00  0.12321869396E-01  0.19331682732E-01  0.13263471684E+00  0.20119429178E-01 0.  0.
         14    1    1    2    0    0 -0.13079261599E-01 -0.13831930717E-01 -0.14059769390E-01  0.23665724300E-01  0.00000000000E+00 0. -1.
     999901    1    3    3    0    0 -0.11600069137E+00  0.15100613207E-02 -0.52719133420E-02  0.88762955886E+00  0.88000000000E+00 0. -1.
        -11    1    4    4    0    0  0.10749571139E+00  0.27292820687E-02  0.17403310934E-01  0.10893077297E+00  0.51100000000E-03 0. -1.
         11    1    4    4    0    0  0.21584241582E-01  0.95925873272E-02  0.19283717981E-02  0.23703943872E-01  0.51100000000E-03 0.  1.
</event>
<event>
 8    1  0.1094829E+005  0.1043930E+01  0.7957747E-01            NaN
         13   -1    0    0    0    0  0.00000000000E+00  0.00000000000E+00  0.74505805969E-08  0.10566000000E+00  0.10566000000E+00 0.  1.
     999900   -1    0    0    0    0 -0.00000000000E+00 -0.00000000000E+00 -0.74505805969E-08  0.93827000000E+00  0.93827000000E+00 0. -1.
     999902    2    1    2    0    0 -0.21591701317E-01  0.67946527191E-02 -0.40351886198E-02  0.10209375748E+01  0.10206786370E+01 0.  0.
     999903    2    3    3    0    0 -0.51087132148E-01 -0.11948998671E+00 -0.21689661514E-02  0.13143137839E+00  0.19538444531E-01 0.  0.
         14    1    1    2    0    0  0.21591701317E-01 -0.67946527191E-02  0.40351886198E-02  0.22992425243E-01  0.00000000000E+00 0.  1.
     999901    1    3    3    0    0  0.29495430831E-01  0.12628463943E+00 -0.18662224684E-02  0.88950619637E+00  0.88000000000E+00 0. -1.
        -11    1    4    4    0    0 -0.20011848981E-01 -0.39941806700E-01 -0.96248234096E-02  0.45702520376E-01  0.51100000000E-03 0.  1.
         11    1    4    4    0    0 -0.31075283167E-01 -0.79548180013E-01  0.74558572583E-02  0.85728858010E-01  0.51100000000E-03 0. -1.
</event>
<event>
 7    1  0.1094829E+005  0.1043930E+01  0.7957747E-01            NaN
         13   -1    0    0    0    0  0.00000000000E+00  0.00000000000E+00  0.74505805969E-08  0.10566000000E+00  0.10566000000E+00 0.  1.
     999900   -1    0    0    0    0 -0.00000000000E+00 -0.00000000000E+00 -0.74505805969E-08  0.93827000000E+00  0.93827000000E+00 0. -1.
     999903    2    1    2    0    0  0.17571953981E-01  0.25947559128E-02  0.10120991013E+00  0.10460566164E+00  0.19580403811E-01 0.  0.
         14    1    1    2    0    0 -0.49968774716E-01 -0.66353166235E-02  0.11014607117E-01  0.51596777450E-01  0.00000000000E+00 0.  1.
     999901    1    1    2    0    0  0.32396820735E-01  0.40405607107E-02 -0.11222451725E+00  0.88772756091E+00  0.88000000000E+00 0. -1.
        -11    1    3    3    0    0 -0.13690546716E-02 -0.48820278832E-02  0.10978568390E-01  0.12103660266E-01  0.51100000000E-03 0.  1.
         11    1    3    3    0    0  0.18941008652E-01  0.74767837960E-02  0.90231341743E-01  0.92502001375E-01  0.51100000000E-03 0. -1.
</event>
<event>
 8    1  0.1094829E+005  0.1043930E+01  0.7957747E-01            NaN
         13   -1    0    0    0    0  0.00000000000E+00  0.00000000000E+00  0.74505805969E-08  0.10566000000E+00  0.10566000000E+00 0.  1.
     999900   -1    0    0    0    0 -0.00000000000E+00 -0.00000000000E+00 -0.74505805969E-08  0.93827000000E+00  0.93827000000E+00 0. -1.
     999902    2    1    2    0    0 -0.14931683162E-01 -0.88400187009E-02 -0.14411553322E-01  0.10213735384E+01  0.10211244346E+01 0.  0.
     999903    2    3    3    0    0  0.11521978963E+00 -0.37872035530E-02  0.54571738506E-01  0.12911593466E+00  0.20072546035E-01 0.  0.
         14    1    1    2    0    0  0.14931683162E-01  0.88400187009E-02  0.14411553322E-01  0.22556461642E-01  0.00000000000E+00 0.  1.
     999901    1    3    3    0    0 -0.13015147280E+00 -0.50528151479E-02 -0.68983291827E-01  0.89225760370E+00  0.88000000000E+00 0. -1.
        -11    1    4    4    0    0  0.81658118033E-01 -0.74398999176E-02  0.29821924172E-01  0.87252556603E-01  0.51100000000E-03 0. -1.
         11    1    4    4    0    0  0.33561671602E-01  0.36526963645E-02  0.24749814334E-01  0.41863378053E-01  0.51100000000E-03 0.  1.
</event>
<event>
 8    1  0.1094829E+005  0.1043930E+01  0.7957747E-01            NaN
         13   -1    0    0    0    0  0.00000000000E+00  0.00000000000E+00  0.74505805969E-08  0.10566000000E+00  0.10566000000E+00 0. -1.
     999900   -1    0    0    0    0 -0.00000000000E+00 -0.00000000000E+00 -0.74505805969E-08  0.93827000000E+00  0.93827000000E+00 0. -1.
     999902    2    1    2    0    0 -0.12977487668E-01  0.13854686486E-01 -0.12809459132E-01  0.10210291317E+01  0.10207722753E+01 0.  0.
     999903    2    3    3    0    0  0.10635037460E+00  0.57867285505E-01 -0.46205665884E-01  0.13125862525E+00  0.20852775202E-01 0.  0.
         14    1    1    2    0    0  0.12977487668E-01 -0.13854686486E-01  0.12809459132E-01  0.22900868260E-01  0.00000000000E+00 0.  1.
     999901    1    3    3    0    0 -0.11932786227E+00 -0.44012599019E-01  0.33396206752E-01  0.88977050649E+00  0.88000000000E+00 0. -1.
        -11    1    4    4    0    0  0.60711985214E-01  0.34576294015E-01 -0.15654716681E-01  0.71601651740E-01  0.51100000000E-03 0. -1.
         11    1    4    4    0    0  0.45638389389E-01  0.23290991490E-01 -0.30550949204E-01  0.59656973514E-01  0.51100000000E-03 0.  1.
</event>
<event>
 8    1  0.1094829E+005  0.1043930E+01  0.7957747E-01            NaN
         13   -1    0    0    0    0  0.00000000000E+00  0.00000000000E+00  0.74505805969E-08  0.10566000000E+00  0.10566000000E+00 0. -1.
     999900   -1    0    0    0    0 -0.00000000000E+00 -0.00000000000E+00 -0.74505805969E-08  0.93827000000E+00  0.93827000000E+00 0.  1.
     999902    2    1    2    0    0  0.21043835380E-01  0.33011243650E-02  0.92956286035E-02  0.10206888911E+01  0.10204242566E+01 0.  0.
     999903    2    3    3    0    0 -0.56834133565E-01  0.10285438073E+00 -0.50271367614E-01  0.12966472989E+00  0.21830927684E-01 0.  0.
         14    1    1    2    0    0 -0.21043835380E-01 -0.33011243650E-02 -0.92956286035E-02  0.23241108853E-01  0.00000000000E+00 0.  1.
     999901    1    3    3    0    0  0.77877968945E-01 -0.99553256363E-01  0.59566996217E-01  0.89102416125E+00  0.88000000000E+00 0.  1.
        -11    1    4    4    0    0 -0.18166874485E-01  0.55391137105E-01 -0.23981193880E-01  0.63036276692E-01  0.51100000000E-03 0.  1.
         11    1    4    4    0    0 -0.38667259081E-01  0.47463243623E-01 -0.26290173734E-01  0.66628453201E-01  0.51100000000E-03 0. -1.
</event>
<event>
 8    1  0.1094829E+005  0.1043930E+01  0.7957747E-01            NaN
         13   -1    0    0    0    0  0.00000000000E+00  0.00000000000E+00  0.74505805969E-08  0.10566000000E+00  0.10566000000E+00 0. -1.
     999900   -1    0    0    0    0 -0.00000000000E+00 -0.00000000000E+00 -0.74505805969E-08  0.93827000000E+00  0.93827000000E+00 0.  1.
     999902    2    1    2    0    0  0.13127943228E-01  0.85910537083E-02  0.15980128866E-01  0.10215355003E+01  0.10212900003E+01 0.  0.
     999903    2    3    3    0    0  0.75942427338E-01  0.10071293227E+00  0.39454460657E-01  0.13418937610E+00  0.23233320782E-01 0.  0.
         14    1    1    2    0    0 -0.13127943228E-01 -0.85910537083E-02 -0.15980128866E-01  0.22394499677E-01  0.00000000000E+00 0. -1.
     999901    1    3    3    0    0 -0.62814484110E-01 -0.92121878566E-01 -0.23474331791E-01  0.88734612423E+00  0.88000000000E+00 0.  1.
        -11    1    4    4    0    0  0.25214107654E-01  0.43481546555E-01  0.25801715218E-01  0.56501201269E-01  0.51100000000E-03 0.  1.
         11    1    4    4    0    0  0.50728319683E-01  0.57231385719E-01  0.13652745439E-01  0.77688174829E-01  0.51100000000E-03 0. -1.
</event>
<event>
 8    1  0.1094829E+005  0.1043930E+01  0.7957747E-01            NaN
         13   -1    0    0    0    0  0.00000000000E+00  0.00000000000E+00  0.74505805969E-08  0.10566000000E+00  0.10566000000E+00 0. -1.
     999900   -1    0    0    0    0 -0.00000000000E+00 -0.00000000000E+00 -0.74505805969E-08  0.93827000000E+00  0.93827000000E+00 0. -1.
     999902    2    1    2    0    0 -0.62359684331E-02 -0.11463456873E-01  0.19303434031E-01  0.10206293410E+01  0.10203633328E+01 0.  0.
     999903    2    3    3    0    0  0.10616874555E+00  0.67904747896E-01 -0.19505592769E-01  0.12909119136E+00  0.20030232585E-01 0.  0.
         14    1    1    2    0    0  0.62359684331E-02  0.11463456873E-01 -0.19303434031E-01  0.23300659029E-01  0.00000000000E+00 0.  1.
     999901    1    3    3    0    0 -0.11240471399E+00 -0.79368204770E-01  0.38809026800E-01  0.89153814961E+00  0.88000000000E+00 0. -1.
        -11    1    4    4    0    0  0.49019914125E-01  0.42926069789E-01 -0.12213459754E-01  0.66295016167E-01  0.51100000000E-03 0.  1.
         11    1    4    4    0    0  0.57148831429E-01  0.24978678107E-01 -0.72921330154E-02  0.62796175191E-01  0.51100000000E-03 0. -1.
</event>
<event>
 8    1  0.1094829E+005  0.1043930E+01  0.7957747E-01            NaN
         13   -1    0    0    0    0  0.00000000000E+00  0.00000000000E+00  0.74505805969E-08  0.10566000000E+00  0.10566000000E+00 0. -1.
     999900   -1    0    0    0    0 -0.00000000000E+00 -0.00000000000E+00 -0.74505805969E-08  0.93827000000E+00  0.93827000000E+00 0. -1.
     999902    2    1    2    0    0  0.88327839406E-02  0.27014998587E-01  0.23763644551E-01  0.10068822062E+01  0.10062003966E+01 0.  0.
     999903    2    3    3    0    0 -0.10600849920E+00  0.11396006186E-01 -0.43188679629E-01  0.11676137907E+00  0.20007167082E-01 0.  0.
         14    1    1    2    0    0 -0.88327839406E-02 -0.27014998587E-01 -0.23763644551E-01  0.37047793769E-01  0.00000000000E+00 0.  1.
     999901    1    3    3    0    0  0.11484128314E+00  0.15618992401E-01  0.66952324180E-01  0.89012082716E+00  0.88000000000E+00 0.  1.
        -11    1    4    4    0    0 -0.51695976770E-01 -0.22991731242E-02 -0.14060893784E-01  0.53625833944E-01  0.51100000000E-03 0.  1.
         11    1    4    4    0    0 -0.54312522428E-01  0.13695179310E-01 -0.29127785845E-01  0.63135545123E-01  0.51100000000E-03 0. -1.
</event>
<event>
 8    1  0.1094829E+005  0.1043930E+01  0.7957747E-01            NaN
         13   -1    0    0    0    0  0.00000000000E+00  0.00000000000E+00  0.74505805969E-08  0.10566000000E+00  0.10566000000E+00 0. -1.
     999900   -1    0    0    0    0 -0.00000000000E+00 -0.00000000000E+00 -0.74505805969E-08  0.93827000000E+00  0.93827000000E+00 0.  1.
     999902    2    1    2    0    0 -0.14140335963E-01  0.19933506870E-01 -0.53144553038E-02  0.10189192577E+01  0.10186122503E+01 0.  0.
     999903    2    3    3    0    0  0.42605705152E-01 -0.11725278101E+00  0.35038601783E-02  0.12644071257E+00  0.20285856943E-01 0.  0.
         14    1    1    2    0    0  0.14140335963E-01 -0.19933506870E-01  0.53144553038E-02  0.25010742341E-01  0.00000000000E+00 0. -1.
     999901    1    3    3    0    0 -0.56746041115E-01  0.13718628788E+00 -0.88183154821E-02  0.89247854509E+00  0.88000000000E+00 0. -1.
        -11    1    4    4    0    0  0.10052212187E-01 -0.57216062421E-01  0.13448521376E-02  0.58110192885E-01  0.51100000000E-03 0. -1.
         11    1    4    4    0    0  0.32553492965E-01 -0.60036718588E-01  0.21590080407E-02  0.68330519680E-01  0.51100000000E-03 0.  1.
</event>
<event>
 8    1  0.1094829E+005  0.1043930E+01  0.7957747E-01            NaN
         13   -1    0    0    0    0  0.00000000000E+00  0.00000000000E+00  0.74505805969E-08  0.10566000000E+00  0.10566000000E+00 0. -1.
     999900   -1    0    0    0    0 -0.00000000000E+00 -0.00000000000E+00 -0.74505805969E-08  0.93827000000E+00  0.93827000000E+00 0.  1.
     999902    2    1    2    0    0  0.17057032845E-01  0.63695590257E-02  0.16747874718E-01  0.10191912660E+01  0.10188909813E+01 0.  0.
     999903    2    3    3    0    0 -0.73751929626E-01 -0.10227063289E+00  0.30095864341E-02  0.12776673218E+00  0.20412025020E-01 0.  0.
         14    1    1    2    0    0 -0.17057032845E-01 -0.63695590257E-02 -0.16747874718E-01  0.24738733986E-01  0.00000000000E+00 0.  1.
     999901    1    3    3    0    0  0.90808962471E-01  0.10864019191E+00  0.13738288284E-01  0.89142453384E+00  0.88000000000E+00 0. -1.
        -11    1    4    4    0    0 -0.41242551769E-01 -0.41599360531E-01  0.58634812850E-02  0.58873562885E-01  0.51100000000E-03 0.  1.
         11    1    4    4    0    0 -0.32509377858E-01 -0.60671272357E-01 -0.28538948510E-02  0.68893169291E-01  0.51100000000E-03 0. -1.
</event>
<event>
 8    1  0.1094829E+005  0.1043930E+01  0.7957747E-01            NaN
         13   -1    0    0    0    0  0.00000000000E+00  0.00000000000E+00  0.74505805969E-08  0.10566000000E+00  0.10566000000E+00 0. -1.
     999900   -1    0    0    0    0 -0.00000000000E+00 -0.00000000000E+00 -0.74505805969E-08  0.93827000000E+00  0.93827000000E+00 0. -1.
     999902    2    1    2    0    0  0.77341468995E-02 -0.14475722292E-01 -0.20521410766E-01  0.10176527881E+01  0.10173134745E+01 0.  0.
     999903    2    3    3    0    0 -0.55173403995E-01  0.42455509157E-01 -0.10720964883E+00  0.12933225155E+00  0.19655730071E-01 0.  0.
         14    1    1    2    0    0 -0.77341468995E-02  0.14475722292E-01  0.20521410766E-01  0.26277211875E-01  0.00000000000E+00 0. -1.
     999901    1    3    3    0    0  0.62907550894E-01 -0.56931231449E-01  0.86688238060E-01  0.88832053657E+00  0.88000000000E+00 0.  1.
        -11    1    4    4    0    0 -0.15684217284E-01  0.23654972194E-01 -0.47106472613E-01  0.54998484201E-01  0.51100000000E-03 0. -1.
         11    1    4    4    0    0 -0.39489186710E-01  0.18800536963E-01 -0.60103176213E-01  0.74333767354E-01  0.51100000000E-03 0.  1.
</event>
<event>
 8    1  0.1094829E+005  0.1043930E+01  0.7957747E-01            NaN
         13   -1    0    0    0    0  0.00000000000E+00  0.00000000000E+00  0.74505805969E-08  0.10566000000E+00  0.10566000000E+00 0. -1.
     999900   -1    0    0    0    0 -0.00000000000E+00 -0.00000000000E+00 -0.74505805969E-08  0.93827000000E+00  0.93827000000E+00 0.  1.
     999902    2    1    2    0    0  0.18451791175E-01  0.57794672194E-02  0.10551433952E-01  0.10219026625E+01  0.10216652329E+01 0.  0.
     999903    2    3    3    0    0 -0.68961413889E-01  0.44351350986E-01 -0.98960230618E-01  0.12998245121E+00  0.19483106467E-01 0.  0.
         14    1    1    2    0    0 -0.18451791175E-01 -0.57794672194E-02 -0.10551433952E-01  0.22027337500E-01  0.00000000000E+00 0.  1.
     999901    1    3    3    0    0  0.87413205065E-01 -0.38571883766E-01  0.10951166457E+00  0.89192021129E+00  0.88000000000E+00 0. -1.
        -11    1    4    4    0    0 -0.42679859063E-01  0.17736397287E-01 -0.46626568944E-01  0.65654003768E-01  0.51100000000E-03 0.  1.
         11    1    4    4    0    0 -0.26281554827E-01  0.26614953698E-01 -0.52333661675E-01  0.64328447438E-01  0.51100000000E-03 0. -1.
</event>
<event>
 8    1  0.1114328E+005  0.1043930E+01  0.7957747E-01            NaN
         13   -1    0    0    0    0  0.00000000000E+00  0.00000000000E+00  0.74505805969E-08  0.10566000000E+00  0.10566000000E+00 0. -1.
     999900   -1    0    0    0    0 -0.00000000000E+00 -0.00000000000E+00 -0.74505805969E-08  0.93827000000E+00  0.93827000000E+00 0. -1.
     999902    2    1    2    0    0  0.10736410623E-01  0.88541110327E-03  0.20355167186E-01  0.10208998611E+01  0.10206400635E+01 0.  0.
     999903    2    3    3    0    0  0.12885622508E+00  0.79259246255E-02  0.24805433353E-01  0.13296874652E+00  0.19965745751E-01 0.  0.
         14    1    1    2    0    0 -0.10736410623E-01 -0.88541110327E-03 -0.20355167186E-01  0.23030138885E-01  0.00000000000E+00 0.  1.
     999901    1    3    3    0    0 -0.11811981446E+00 -0.70405135223E-02 -0.44502661672E-02  0.88793111460E+00  0.88000000000E+00 0.  1.
        -11    1    4    4    0    0  0.83425328979E-01  0.13972977997E-01  0.12467785570E-01  0.85502844557E-01  0.51100000000E-03 0. -1.
         11    1    4    4    0    0  0.45430896103E-01 -0.60470533718E-02  0.12337647784E-01  0.47465901962E-01  0.51100000000E-03 0.  1.
</event>
<event>
 8    1  0.1094829E+005  0.1043930E+01  0.7957747E-01            NaN
         13   -1    0    0    0    0  0.00000000000E+00  0.00000000000E+00  0.74505805969E-08  0.10566000000E+00  0.10566000000E+00 0. -1.
     999900   -1    0    0    0    0 -0.00000000000E+00 -0.00000000000E+00 -0.74505805969E-08  0.93827000000E+00  0.93827000000E+00 0. -1.
     999902    2    1    2    0    0  0.21595486418E-01 -0.61275768471E-02 -0.11661876962E-01  0.10186335258E+01  0.10183193744E+01 0.  0.
     999903    2    3    3    0    0 -0.31264856760E-01  0.91463277566E-01 -0.83024246859E-01  0.12879602460E+00  0.18771467023E-01 0.  0.
         14    1    1    2    0    0 -0.21595486418E-01  0.61275768471E-02  0.11661876962E-01  0.25296474180E-01  0.00000000000E+00 0. -1.
     999901    1    3    3    0    0  0.52860343178E-01 -0.97590854413E-01  0.71362369897E-01  0.88983750122E+00  0.88000000000E+00 0. -1.
        -11    1    4    4    0    0 -0.21327770021E-01  0.67929872834E-01 -0.49824633479E-01  0.86902799838E-01  0.51100000000E-03 0.  1.
         11    1    4    4    0    0 -0.99370867395E-02  0.23533404731E-01 -0.33199613381E-01  0.41893224759E-01  0.51100000000E-03 0. -1.
</event>
<event>
 8    1  0.1094829E+005  0.1043930E+01  0.7957747E-01            NaN
         13   -1    0    0    0    0  0.00000000000E+00  0.00000000000E+00  0.74505805969E-08  0.10566000000E+00  0.10566000000E+00 0. -1.
     999900   -1    0    0    0    0 -0.00000000000E+00 -0.00000000000E+00 -0.74505805969E-08  0.93827000000E+00  0.93827000000E+00 0. -1.
     999902    2    1    2    0    0  0.10750429391E-03  0.23711491287E-01  0.51959817349E-02  0.10196556390E+01  0.10193666551E+01 0.  0.
     999903    2    3    3    0    0  0.75054701718E-01 -0.90677174098E-01  0.48215797806E-01  0.12805452092E+00  0.14752593592E-01 0.  0.
         14    1    1    2    0    0 -0.10750429391E-03 -0.23711491287E-01 -0.51959817349E-02  0.24274361009E-01  0.00000000000E+00 0.  1.
     999901    1    3    3    0    0 -0.74947197424E-01  0.11438866538E+00 -0.43019816071E-01  0.89160111807E+00  0.88000000000E+00 0. -1.
        -11    1    4    4    0    0  0.45259326453E-01 -0.55429193911E-01  0.36971715189E-01  0.80547942330E-01  0.51100000000E-03 0. -1.
         11    1    4    4    0    0  0.29795375265E-01 -0.35247980187E-01  0.11244082617E-01  0.47506578590E-01  0.51100000000E-03 0.  1.
</event>
<event>
 8    1  0.1094829E+005  0.1043930E+01  0.7957747E-01            NaN
         13   -1    0    0    0    0  0.00000000000E+00  0.00000000000E+00  0.74505805969E-08  0.10566000000E+00  0.10566000000E+00 0. -1.
     999900   -1    0    0    0    0 -0.00000000000E+00 -0.00000000000E+00 -0.74505805969E-08  0.93827000000E+00  0.93827000000E+00 0. -1.
     999902    2    1    2    0    0  0.17608907407E-01  0.12287608154E-01 -0.78758795541E-02  0.10210588738E+01  0.10208026917E+01 0.  0.
     999903    2    3    3    0    0 -0.28768922899E-01 -0.11859620686E+00 -0.38875775295E-01  0.12963166439E+00  0.20008280822E-01 0.  0.
         14    1    1    2    0    0 -0.17608907407E-01 -0.12287608154E-01  0.78758795541E-02  0.22871126185E-01  0.00000000000E+00 0.  1.
     999901    1    3    3    0    0  0.46377830306E-01  0.13088381501E+00  0.30999895741E-01  0.89142720943E+00  0.88000000000E+00 0. -1.
        -11    1    4    4    0    0 -0.78362514533E-03 -0.42294743784E-01 -0.11014857172E-01  0.43715530646E-01  0.51100000000E-03 0. -1.
         11    1    4    4    0    0 -0.27985297754E-01 -0.76301463071E-01 -0.27860918123E-01  0.85916133740E-01  0.51100000000E-03 0.  1.
</event>
<event>
 8    1  0.1094829E+005  0.1043930E+01  0.7957747E-01            NaN
         13   -1    0    0    0    0  0.00000000000E+00  0.00000000000E+00  0.74505805969E-08  0.10566000000E+00  0.10566000000E+00 0.  1.
     999900   -1    0    0    0    0 -0.00000000000E+00 -0.00000000000E+00 -0.74505805969E-08  0.93827000000E+00  0.93827000000E+00 0. -1.
     999902    2    1    2    0    0  0.21121094814E-01 -0.77039804851E-02 -0.69389292070E-02  0.10204012793E+01  0.10201299770E+01 0.  0.
     999903    2    3    3    0    0  0.55203449709E-02  0.12145190974E+00 -0.41830537962E-01  0.13015297022E+00  0.20222788229E-01 0.  0.
         14    1    1    2    0    0 -0.21121094814E-01  0.77039804851E-02  0.69389292070E-02  0.23528720747E-01  0.00000000000E+00 0.  1.
     999901    1    3    3    0    0  0.15600749843E-01 -0.12915589022E+00  0.34891608755E-01  0.89024830903E+00  0.88000000000E+00 0.  1.
        -11    1    4    4    0    0 -0.21965079969E-02  0.21865582063E-01 -0.15367802416E-01  0.26820864983E-01  0.51100000000E-03 0.  1.
         11    1    4    4    0    0  0.77168529678E-02  0.99586327673E-01 -0.26462735546E-01  0.10333210524E+00  0.51100000000E-03 0. -1.
</event>
<event>
 8    1  0.1094829E+005  0.1043930E+01  0.7957747E-01            NaN
         13   -1    0    0    0    0  0.00000000000E+00  0.00000000000E+00  0.74505805969E-08  0.10566000000E+00  0.10566000000E+00 0.  1.
     999900   -1    0    0    0    0 -0.00000000000E+00 -0.00000000000E+00 -0.74505805969E-08  0.93827000000E+00  0.93827000000E+00 0. -1.
     999902    2    1    2    0    0  0.23634905875E-01 -0.65582101781E-02  0.97545561940E-02  0.10175335937E+01  0.10171911542E+01 0.  0.
     999903    2    3    3    0    0 -0.10093881098E+00  0.21408248479E-01  0.70075982759E-01  0.12627638719E+00  0.19700912103E-01 0.  0.
         14    1    1    2    0    0 -0.23634905875E-01  0.65582101781E-02 -0.97545561940E-02  0.26396406252E-01  0.00000000000E+00 0. -1.
     999901    1    3    3    0    0  0.12457371685E+00 -0.27966458657E-01 -0.60321426565E-01  0.89125720656E+00  0.88000000000E+00 0. -1.
        -11    1    4    4    0    0 -0.51554959607E-01  0.20350067821E-01  0.41139513354E-01  0.69027239554E-01  0.51100000000E-03 0.  1.
         11    1    4    4    0    0 -0.49383851370E-01  0.10581806577E-02  0.28936469405E-01  0.57249147636E-01  0.51100000000E-03 0. -1.
</event>
<event>
 8    1  0.1094829E+005  0.1043930E+01  0.7957747E-01            NaN
         13   -1    0    0    0    0  0.00000000000E+00  0.00000000000E+00  0.74505805969E-08  0.10566000000E+00  0.10566000000E+00 0.  1.
     999900   -1    0    0    0    0 -0.00000000000E+00 -0.00000000000E+00 -0.74505805969E-08  0.93827000000E+00  0.93827000000E+00 0.  1.
     999902    2    1    2    0    0  0.17786480974E-01  0.20281840650E-01  0.12049120579E-01  0.10143852327E+01  0.10139548842E+01 0.  0.
     999903    2    3    3    0    0  0.20668984631E-01  0.11876149790E-02 -0.12091408809E+00  0.12418743835E+00  0.19330954192E-01 0.  0.
         14    1    1    2    0    0 -0.17786480974E-01 -0.20281840650E-01 -0.12049120579E-01  0.29544767258E-01  0.00000000000E+00 0. -1.
     999901    1    3    3    0    0 -0.28825036568E-02  0.19094225671E-01  0.13296320867E+00  0.89019779439E+00  0.88000000000E+00 0. -1.
        -11    1    4    4    0    0  0.13285342485E-01 -0.33425124405E-02 -0.10638178563E+00  0.10726144764E+00  0.51100000000E-03 0. -1.
         11    1    4    4    0    0  0.73836421455E-02  0.45301274195E-02 -0.14532302457E-01  0.16925990709E-01  0.51100000000E-03 0.  1.
</event>
<event>
 8    1  0.1094829E+005  0.1043930E+01  0.7957747E-01            NaN
         13   -1    0    0    0    0  0.00000000000E+00  0.00000000000E+00  0.74505805969E-08  0.10566000000E+00  0.10566000000E+00 0. -1.
     999900   -1    0    0    0    0 -0.00000000000E+00 -0.00000000000E+00 -0.74505805969E-08  0.93827000000E+00  0.93827000000E+00 0. -1.
     999902    2    1    2    0    0 -0.14010221921E-01  0.24784905736E-01  0.11262340842E-01  0.10133127142E+01  0.10128500573E+01 0.  0.
     999903    2    3    3    0    0 -0.61166016738E-01  0.36041088815E-01 -0.10088494568E+00  0.12487172878E+00  0.19363230556E-01 0.  0.
         14    1    1    2    0    0  0.14010221921E-01 -0.24784905736E-01 -0.11262340842E-01  0.30617285834E-01  0.00000000000E+00 0.  1.
     999901    1    3    3    0    0  0.47155794817E-01 -0.11256183080E-01  0.11214728652E+00  0.88844098539E+00  0.88000000000E+00 0.  1.
        -11    1    4    4    0    0 -0.54131685216E-01  0.35779819781E-01 -0.81094990364E-01  0.10386093313E+00  0.51100000000E-03 0. -1.
         11    1    4    4    0    0 -0.70343315226E-02  0.26126903451E-03 -0.19789955312E-01  0.21010795647E-01  0.51100000000E-03 0.  1.
</event>
<event>
 8    1  0.1094829E+005  0.1043930E+01  0.7957747E-01            NaN
         13   -1    0    0    0    0  0.00000000000E+00  0.00000000000E+00  0.74505805969E-08  0.10566000000E+00  0.10566000000E+00 0.  1.
     999900   -1    0    0    0    0 -0.00000000000E+00 -0.00000000000E+00 -0.74505805969E-08  0.93827000000E+00  0.93827000000E+00 0.  1.
     999902    2    1    2    0    0 -0.21426609740E-01  0.47469608782E-02 -0.88250632828E-02  0.10202759309E+01  0.10200016962E+01 0.  0.
     999903    2    3    3    0    0  0.31881340890E-01  0.47577959048E-01 -0.11627297913E+00  0.13110705684E+00  0.19737593395E-01 0.  0.
         14    1    1    2    0    0  0.21426609740E-01 -0.47469608782E-02  0.88250632828E-02  0.23654069090E-01  0.00000000000E+00 0. -1.
     999901    1    3    3    0    0 -0.53307950631E-01 -0.42830998170E-01  0.10744791584E+00  0.88916887407E+00  0.88000000000E+00 0. -1.
        -11    1    4    4    0    0  0.29191185137E-02  0.17851259689E-01 -0.25221585370E-01  0.31041556258E-01  0.51100000000E-03 0.  1.
         11    1    4    4    0    0  0.28962222377E-01  0.29726699360E-01 -0.91051393756E-01  0.10006550058E+00  0.51100000000E-03 0. -1.
</event>
<event>
 8    1  0.1094829E+005  0.1043930E+01  0.7957747E-01            NaN
         13   -1    0    0    0    0  0.00000000000E+00  0.00000000000E+00  0.74505805969E-08  0.10566000000E+00  0.10566000000E+00 0.  1.
     999900   -1    0    0    0    0 -0.00000000000E+00 -0.00000000000E+00 -0.74505805969E-08  0.93827000000E+00  0.93827000000E+00 0.  1.
     999902    2    1    2    0    0  0.19106250957E-01  0.13897409731E-01 -0.77684892843E-02  0.10190596110E+01  0.10187560820E+01 0.  0.
     999903    2    3    3    0    0  0.73452194550E-02 -0.12603171515E+00  0.63514156481E-02  0.12781449682E+00  0.18927748011E-01 0.  0.
         14    1    1    2    0    0 -0.19106250957E-01 -0.13897409731E-01  0.77684892843E-02  0.24870388992E-01  0.00000000000E+00 0.  1.
     999901    1    3    3    0    0  0.11761031502E-01  0.13992912488E+00 -0.14119904932E-01  0.89124511419E+00  0.88000000000E+00 0.  1.
        -11    1    4    4    0    0  0.13547059970E-01 -0.72891168441E-01  0.45467398202E-02  0.74280409493E-01  0.51100000000E-03 0. -1.
         11    1    4    4    0    0 -0.62018405152E-02 -0.53140546705E-01  0.18046758279E-02  0.53534087325E-01  0.51100000000E-03 0.  1.
</event>
<event>
 8    1  0.1094829E+005  0.1043930E+01  0.7957747E-01            NaN
         13   -1    0    0    0    0  0.00000000000E+00  0.00000000000E+00  0.74505805969E-08  0.10566000000E+00  0.10566000000E+00 0.  1.
     999900   -1    0    0    0    0 -0.00000000000E+00 -0.00000000000E+00 -0.74505805969E-08  0.93827000000E+00  0.93827000000E+00 0.  1.
     999902    2    1    2    0    0  0.13370004063E-01  0.75211876737E-02 -0.17575991828E-01  0.10206010317E+01  0.10203343693E+01 0.  0.
     999903    2    3    3    0    0 -0.66805634972E-01 -0.10840637912E+00 -0.75632245337E-02  0.12932801555E+00  0.21297824813E-01 0.  0.
         14    1    1    2    0    0 -0.13370004063E-01 -0.75211876737E-02  0.17575991828E-01  0.23328968288E-01  0.00000000000E+00 0.  1.
     999901    1    3    3    0    0  0.80175639035E-01  0.11592756679E+00 -0.10012767294E-01  0.89127301617E+00  0.88000000000E+00 0. -1.
        -11    1    4    4    0    0 -0.56219088230E-01 -0.76002840926E-01 -0.10450673523E-01  0.95113066444E-01  0.51100000000E-03 0. -1.
         11    1    4    4    0    0 -0.10586546742E-01 -0.32403538193E-01  0.28874489894E-02  0.34214949102E-01  0.51100000000E-03 0.  1.
</event>
<event>
 8    1  0.1094829E+005  0.1043930E+01  0.7957747E-01            NaN
         13   -1    0    0    0    0  0.00000000000E+00  0.00000000000E+00  0.74505805969E-08  0.10566000000E+00  0.10566000000E+00 0.  1.
     999900   -1    0    0    0    0 -0.00000000000E+00 -0.00000000000E+00 -0.74505805969E-08  0.93827000000E+00  0.93827000000E+00 0.  1.
     999902    2    1    2    0    0  0.11801450413E-01  0.19411170459E-01 -0.68298613488E-02  0.10202083901E+01  0.10199325686E+01 0.  0.
     999903    2    3    3    0    0  0.64501567465E-01  0.95069264705E-01 -0.65033785706E-01  0.13347892381E+00  0.19713257525E-01 0.  0.
         14    1    1    2    0    0 -0.11801450413E-01 -0.19411170459E-01  0.68298613488E-02  0.23721609904E-01  0.00000000000E+00 0. -1.
     999901    1    3    3    0    0 -0.52700117052E-01 -0.75658094247E-01  0.58203924357E-01  0.88672946628E+00  0.88000000000E+00 0. -1.
        -11    1    4    4    0    0  0.51893065970E-01  0.87798277634E-01 -0.56272954746E-01  0.11648319367E+00  0.51100000000E-03 0.  1.
         11    1    4    4    0    0  0.12608501495E-01  0.72709870715E-02 -0.87608309592E-02  0.16995730141E-01  0.51100000000E-03 0. -1.
</event>
<event>
 8    1  0.1098007E+005  0.1043930E+01  0.7957747E-01            NaN
         13   -1    0    0    0    0  0.00000000000E+00  0.00000000000E+00  0.74505805969E-08  0.10566000000E+00  0.10566000000E+00 0.  1.
     999900   -1    0    0    0    0 -0.00000000000E+00 -0.00000000000E+00 -0.74505805969E-08  0.93827000000E+00  0.93827000000E+00 0. -1.
     999902    2    1    2    0    0  0.41514809966E-02  0.15621859104E-01  0.19203130925E-01  0.10188294519E+01  0.10185202082E+01 0.  0.
     999903    2    3    3    0    0 -0.11369555220E+00  0.58423994425E-01 -0.74877712870E-02  0.12954189985E+00  0.19621299183E-01 0.  0.
         14    1    1    2    0    0 -0.41514809966E-02 -0.15621859104E-01 -0.19203130925E-01  0.25100548075E-01  0.00000000000E+00 0. -1.
     999901    1    3    3    0    0  0.11784703320E+00 -0.42802135321E-01  0.26690902212E-01  0.88928755208E+00  0.88000000000E+00 0. -1.
        -11    1    4    4    0    0 -0.64826906655E-01  0.43457713675E-01 -0.77366505764E-02  0.78429698376E-01  0.51100000000E-03 0. -1.
         11    1    4    4    0    0 -0.48868645547E-01  0.14966280750E-01  0.24887928940E-03  0.51112201469E-01  0.51100000000E-03 0.  1.
</event>
<event>
 8    1  0.1094829E+005  0.1043930E+01  0.7957747E-01            NaN
         13   -1    0    0    0    0  0.00000000000E+00  0.00000000000E+00  0.74505805969E-08  0.10566000000E+00  0.10566000000E+00 0.  1.
     999900   -1    0    0    0    0 -0.00000000000E+00 -0.00000000000E+00 -0.74505805969E-08  0.93827000000E+00  0.93827000000E+00 0. -1.
     999902    2    1    2    0    0 -0.13044133573E-01 -0.84131572918E-02 -0.15621479110E-01  0.10219081643E+01  0.10216708546E+01 0.  0.
     999903    2    3    3    0    0 -0.12937900864E+00  0.23399539235E-01 -0.14258435663E-01  0.13368087997E+00  0.19514311858E-01 0.  0.
         14    1    1    2    0    0  0.13044133573E-01  0.84131572918E-02  0.15621479110E-01  0.22021835660E-01  0.00000000000E+00 0.  1.
     999901    1    3    3    0    0  0.11633487507E+00 -0.31812696527E-01 -0.13630434471E-02  0.88822728437E+00  0.88000000000E+00 0.  1.
        -11    1    4    4    0    0 -0.41694901969E-01  0.63625743915E-02  0.44584722068E-02  0.42415637429E-01  0.51100000000E-03 0.  1.
         11    1    4    4    0    0 -0.87684106674E-01  0.17036964844E-01 -0.18716907869E-01  0.91265242538E-01  0.51100000000E-03 0. -1.
</event>
<event>
 8    1  0.1094829E+005  0.1043930E+01  0.7957747E-01            NaN
         13   -1    0    0    0    0  0.00000000000E+00  0.00000000000E+00  0.74505805969E-08  0.10566000000E+00  0.10566000000E+00 0. -1.
     999900   -1    0    0    0    0 -0.00000000000E+00 -0.00000000000E+00 -0.74505805969E-08  0.93827000000E+00  0.93827000000E+00 0. -1.
     999902    2    1    2    0    0 -0.87943873510E-02 -0.42213260370E-03 -0.21956831436E-01  0.10202736712E+01  0.10199993835E+01 0.  0.
     999903    2    3    3    0    0  0.10361754354E+00 -0.58054287688E-01 -0.50572991076E-01  0.13079247855E+00  0.21027348173E-01 0.  0.
         14    1    1    2    0    0  0.87943873510E-02  0.42213260370E-03  0.21956831436E-01  0.23656328783E-01  0.00000000000E+00 0.  1.
     999901    1    3    3    0    0 -0.11241193089E+00  0.57632155084E-01  0.28616159640E-01  0.88948119266E+00  0.88000000000E+00 0. -1.
        -11    1    4    4    0    0  0.57664355823E-01 -0.43727708176E-01 -0.27613002556E-01  0.77459856868E-01  0.51100000000E-03 0.  1.
         11    1    4    4    0    0  0.45953187720E-01 -0.14326579512E-01 -0.22959988520E-01  0.53332621686E-01  0.51100000000E-03 0. -1.
</event>
<event>
 7    1  0.1094829E+005  0.1043930E+01  0.7957747E-01            NaN
         13   -1    0    0    0    0  0.00000000000E+00  0.00000000000E+00  0.74505805969E-08  0.10566000000E+00  0.10566000000E+00 0.  1.
     999900   -1    0    0    0    0 -0.00000000000E+00 -0.00000000000E+00 -0.74505805969E-08  0.93827000000E+00  0.93827000000E+00 0.  1.
     999903    2    1    2    0    0 -0.22456040627E-01  0.83715479343E-02  0.10796115566E+00  0.11265184060E+00  0.21458552676E-01 0.  0.
         14    1    1    2    0    0  0.31866245306E-01 -0.32895636306E-02 -0.36129069145E-01  0.48286524580E-01  0.00000000000E+00 0. -1.
     999901    1    1    2    0    0 -0.94102046791E-02 -0.50819843037E-02 -0.71832086514E-01  0.88299163482E+00  0.88000000000E+00 0.  1.
        -11    1    3    3    0    0 -0.10231195085E-01 -0.63883867921E-02  0.55482900439E-01  0.56781178227E-01  0.51100000000E-03 0. -1.
         11    1    3    3    0    0 -0.12224845541E-01  0.14759934726E-01  0.52478255219E-01  0.55870662369E-01  0.51100000000E-03 0.  1.
</event>
<event>
 8    1  0.1094829E+005  0.1043930E+01  0.7957747E-01            NaN
         13   -1    0    0    0    0  0.00000000000E+00  0.00000000000E+00  0.74505805969E-08  0.10566000000E+00  0.10566000000E+00 0.  1.
     999900   -1    0    0    0    0 -0.00000000000E+00 -0.00000000000E+00 -0.74505805969E-08  0.93827000000E+00  0.93827000000E+00 0.  1.
     999902    2    1    2    0    0  0.35882476150E-02  0.15801121318E-01 -0.34287899420E-02  0.10273677672E+01  0.10272342583E+01 0.  0.
     999903    2    3    3    0    0  0.72093648169E-01  0.94497906259E-01  0.67963188603E-01  0.13833290370E+00  0.19739525005E-01 0.  0.
         14    1    1    2    0    0 -0.35882476150E-02 -0.15801121318E-01  0.34287899420E-02  0.16562232830E-01  0.00000000000E+00 0. -1.
     999901    1    3    3    0    0 -0.68505400554E-01 -0.78696784941E-01 -0.71391978545E-01  0.88903486347E+00  0.88000000000E+00 0.  1.
        -11    1    4    4    0    0  0.30074932834E-01  0.44806110699E-01  0.41510912682E-01  0.68084551358E-01  0.51100000000E-03 0. -1.
         11    1    4    4    0    0  0.42018715335E-01  0.49691795560E-01  0.26452275920E-01  0.70248352341E-01  0.51100000000E-03 0.  1.
</event>
<event>
 8    1  0.1094829E+005  0.1043930E+01  0.7957747E-01            NaN
         13   -1    0    0    0    0  0.00000000000E+00  0.00000000000E+00  0.74505805969E-08  0.10566000000E+00  0.10566000000E+00 0. -1.
     999900   -1    0    0    0    0 -0.00000000000E+00 -0.00000000000E+00 -0.74505805969E-08  0.93827000000E+00  0.93827000000E+00 0. -1.
     999902    2    1    2    0    0 -0.57831254682E-02 -0.47409566245E-02  0.22148014702E-01  0.10205536067E+01  0.10202858464E+01 0.  0.
     999903    2    3    3    0    0  0.26121239686E-01  0.96049360386E-01 -0.78785561551E-01  0.12849746307E+00  0.19915685105E-01 0.  0.
         14    1    1    2    0    0  0.57831254682E-02  0.47409566245E-02 -0.22148014702E-01  0.23376393330E-01  0.00000000000E+00 0.  1.
     999901    1    3    3    0    0 -0.31904365154E-01 -0.10079031701E+00  0.10093357625E+00  0.89205614360E+00  0.88000000000E+00 0.  1.
        -11    1    4    4    0    0  0.58451560184E-02  0.86016337964E-02 -0.25376425567E-02  0.10717028674E-01  0.51100000000E-03 0. -1.
         11    1    4    4    0    0  0.20276083667E-01  0.87447726590E-01 -0.76247918994E-01  0.11778043440E+00  0.51100000000E-03 0.  1.
</event>
<event>
 8    1  0.1094829E+005  0.1043930E+01  0.7957747E-01            NaN
         13   -1    0    0    0    0  0.00000000000E+00  0.00000000000E+00  0.74505805969E-08  0.10566000000E+00  0.10566000000E+00 0. -1.
     999900   -1    0    0    0    0 -0.00000000000E+00 -0.00000000000E+00 -0.74505805969E-08  0.93827000000E+00  0.93827000000E+00 0. -1.
     999902    2    1    2    0    0  0.78809348658E-02  0.60045461241E-02  0.22832190392E-01  0.10190407930E+01  0.10187367987E+01 0.  0.
     999903    2    3    3    0    0 -0.10864545844E+00 -0.28082121383E-01  0.62360199382E-01  0.12982610307E+00  0.19328253686E-01 0.  0.
         14    1    1    2    0    0 -0.78809348658E-02 -0.60045461241E-02 -0.22832190392E-01  0.24889207030E-01  0.00000000000E+00 0.  1.
     999901    1    3    3    0    0  0.11652639330E+00  0.34086667508E-01 -0.39528008990E-01  0.88921468990E+00  0.88000000000E+00 0. -1.
        -11    1    4    4    0    0 -0.43572518207E-01 -0.28731103089E-02  0.18689804168E-01  0.47501463205E-01  0.51100000000E-03 0.  1.
         11    1    4    4    0    0 -0.65072940232E-01 -0.25209011075E-01  0.43670395214E-01  0.82324639865E-01  0.51100000000E-03 0. -1.
</event>
<event>
 8    1  0.1094829E+005  0.1043930E+01  0.7957747E-01            NaN
         13   -1    0    0    0    0  0.00000000000E+00  0.00000000000E+00  0.74505805969E-08  0.10566000000E+00  0.10566000000E+00 0.  1.
     999900   -1    0    0    0    0 -0.00000000000E+00 -0.00000000000E+00 -0.74505805969E-08  0.93827000000E+00  0.93827000000E+00 0.  1.
     999902    2    1    2    0    0 -0.22641482155E-01 -0.24875321382E-02 -0.63731051464E-02  0.10202774949E+01  0.10200032968E+01 0.  0.
     999903    2    3    3    0    0  0.10941239499E+00 -0.47635285740E-01 -0.43379623911E-01  0.12851181456E+00  0.19831845275E-01 0.  0.
         14    1    1    2    0    0  0.22641482155E-01  0.24875321382E-02  0.63731051464E-02  0.23652505143E-01  0.00000000000E+00 0.  1.
     999901    1    3    3    0    0 -0.13205387714E+00  0.45147753602E-01  0.37006518765E-01  0.89176568030E+00  0.88000000000E+00 0.  1.
        -11    1    4    4    0    0  0.36317675571E-01 -0.14735172489E-01 -0.24284120646E-01  0.46109418818E-01  0.51100000000E-03 0. -1.
         11    1    4    4    0    0  0.73094719415E-01 -0.32900113251E-01 -0.19095503265E-01  0.82402395743E-01  0.51100000000E-03 0.  1.
</event>
<event>
 8    1  0.1094829E+005  0.1043930E+01  0.7957747E-01            NaN
         13   -1    0    0    0    0  0.00000000000E+00  0.00000000000E+00  0.74505805969E-08  0.10566000000E+00  0.10566000000E+00 0.  1.
     999900   -1    0    0    0    0 -0.00000000000E+00 -0.00000000000E+00 -0.74505805969E-08  0.93827000000E+00  0.93827000000E+00 0. -1.
     999902    2    1    2    0    0 -0.95743189844E-02  0.18620781965E-01 -0.11106499309E-01  0.10202286196E+01  0.10199532739E+01 0.  0.
     999903    2    3    3    0    0 -0.61268279311E-01 -0.10838137704E+00 -0.31164166935E-01  0.12938400693E+00  0.16391796994E-01 0.  0.
         14    1    1    2    0    0  0.95743189844E-02 -0.18620781965E-01  0.11106499309E-01  0.23701380380E-01  0.00000000000E+00 0. -1.
     999901    1    3    3    0    0  0.51693960327E-01  0.12700215901E+00  0.20057667626E-01  0.89084461269E+00  0.88000000000E+00 0.  1.
        -11    1    4    4    0    0 -0.10560912713E-01 -0.17536670723E-01 -0.11554327072E-01  0.23512364672E-01  0.51100000000E-03 0.  1.
         11    1    4    4    0    0 -0.50707366598E-01 -0.90844706322E-01 -0.19609839863E-01  0.10587164226E+00  0.51100000000E-03 0. -1.
</event>
<event>
 8    1  0.1094829E+005  0.1043930E+01  0.7957747E-01            NaN
         13   -1    0    0    0    0  0.00000000000E+00  0.00000000000E+00  0.74505805969E-08  0.10566000000E+00  0.10566000000E+00 0.  1.
     999900   -1    0    0    0    0 -0.00000000000E+00 -0.00000000000E+00 -0.74505805969E-08  0.93827000000E+00  0.93827000000E+00 0. -1.
     999902    2    1    2    0    0  0.16815321462E-01 -0.97994616476E-02 -0.13961415986E-01  0.10199778473E+01  0.10196965741E+01 0.  0.
     999903    2    3    3    0    0 -0.28688584529E-01 -0.85420339817E-01 -0.94385660481E-01  0.13191412107E+00  0.19313546971E-01 0.  0.
         14    1    1    2    0    0 -0.16815321462E-01  0.97994616476E-02  0.13961415986E-01  0.23952152738E-01  0.00000000000E+00 0.  1.
     999901    1    3    3    0    0  0.45503905991E-01  0.75620878169E-01  0.80424244495E-01  0.88806372619E+00  0.88000000000E+00 0.  1.
        -11    1    4    4    0    0 -0.15252579563E-01 -0.23538422265E-01 -0.37178615531E-01  0.46574768704E-01  0.51100000000E-03 0. -1.
         11    1    4    4    0    0 -0.13436004966E-01 -0.61881917552E-01 -0.57207044950E-01  0.85339352366E-01  0.51100000000E-03 0.  1.
</event>
<event>
 8    1  0.1094829E+005  0.1043930E+01  0.7957747E-01            NaN
         13   -1    0    0    0    0  0.00000000000E+00  0.00000000000E+00  0.74505805969E-08  0.10566000000E+00  0.10566000000E+00 0. -1.
     999900   -1    0    0    0    0 -0.00000000000E+00 -0.00000000000E+00 -0.74505805969E-08  0.93827000000E+00  0.93827000000E+00 0.  1.
     999902    2    1    2    0    0  0.16228708302E-01  0.71124224516E-02 -0.16110531442E-01  0.10199819990E+01  0.10197008246E+01 0.  0.
     999903    2    3    3    0    0  0.11424136386E+00  0.23179627120E-01 -0.61124087056E-01  0.13325156881E+00  0.20771187788E-01 0.  0.
         14    1    1    2    0    0 -0.16228708302E-01 -0.71124224516E-02  0.16110531442E-01  0.23948000953E-01  0.00000000000E+00 0. -1.
     999901    1    3    3    0    0 -0.98012655560E-01 -0.16067204669E-01  0.45013555613E-01  0.88673043024E+00  0.88000000000E+00 0. -1.
        -11    1    4    4    0    0  0.24691987311E-01 -0.26996349711E-02 -0.17119653535E-01  0.30171607920E-01  0.51100000000E-03 0. -1.
         11    1    4    4    0    0  0.89549376551E-01  0.25879262091E-01 -0.44004433521E-01  0.10307996089E+00  0.51100000000E-03 0.  1.
</event>
<event>
 8    1  0.1094829E+005  0.1043930E+01  0.7957747E-01            NaN
         13   -1    0    0    0    0  0.00000000000E+00  0.00000000000E+00  0.74505805969E-08  0.10566000000E+00  0.10566000000E+00 0.  1.
     999900   -1    0    0    0    0 -0.00000000000E+00 -0.00000000000E+00 -0.74505805969E-08  0.93827000000E+00  0.93827000000E+00 0. -1.
     999902    2    1    2    0    0  0.59841346950E-02 -0.13619436987E-01 -0.17541949568E-01  0.10209295886E+01  0.10206704688E+01 0.  0.
     999903    2    3    3    0    0 -0.65508315194E-01 -0.87558360980E-01  0.68877466740E-01  0.13073497479E+00  0.19741384725E-01 0.  0.
         14    1    1    2    0    0 -0.59841346950E-02  0.13619436987E-01  0.17541949568E-01  0.23000411443E-01  0.00000000000E+00 0.  1.
     999901    1    3    3    0    0  0.71492449889E-01  0.73938923993E-01 -0.86419416308E-01  0.89019461377E+00  0.88000000000E+00 0. -1.
        -11    1    4    4    0    0 -0.43731686493E-01 -0.68000929709E-01  0.58009606855E-01  0.99508604921E-01  0.51100000000E-03 0.  1.
         11    1    4    4    0    0 -0.21776628701E-01 -0.19557431270E-01  0.10867859884E-01  0.31226369865E-01  0.51100000000E-03 0. -1.
</event>
<event>
 8    1  0.1094829E+005  0.1043930E+01  0.7957747E-01            NaN
         13   -1    0    0    0    0  0.00000000000E+00  0.00000000000E+00  0.74505805969E-08  0.10566000000E+00  0.10566000000E+00 0. -1.
     999900   -1    0    0    0    0 -0.00000000000E+00 -0.00000000000E+00 -0.74505805969E-08  0.93827000000E+00  0.93827000000E+00 0.  1.
     999902    2    1    2    0    0 -0.39816939859E-03  0.64677049190E-02  0.22114325024E-01  0.10208858442E+01  0.10206257266E+01 0.  0.
     999903    2    3    3    0    0  0.12663504127E-01 -0.57939157931E-01  0.11743898714E+00  0.13330168339E+00  0.21450238579E-01 0.  0.
         14    1    1    2    0    0  0.39816939859E-03 -0.64677049190E-02 -0.22114325024E-01  0.23044155811E-01  0.00000000000E+00 0.  1.
     999901    1    3    3    0    0 -0.13061673525E-01  0.64406862850E-01 -0.95324662116E-01  0.88758416080E+00  0.88000000000E+00 0.  1.
        -11    1    4    4    0    0  0.17729198053E-01 -0.48992896512E-01  0.10448231428E+00  0.11675377292E+00  0.51100000000E-03 0.  1.
         11    1    4    4    0    0 -0.50656939264E-02 -0.89462614189E-02  0.12956672861E-01  0.16547910471E-01  0.51100000000E-03 0. -1.
</event>
<event>
 8    1  0.1094829E+005  0.1043930E+01  0.7957747E-01            NaN
         13   -1    0    0    0    0  0.00000000000E+00  0.00000000000E+00  0.74505805969E-08  0.10566000000E+00  0.10566000000E+00 0. -1.
     999900   -1    0    0    0    0 -0.00000000000E+00 -0.00000000000E+00 -0.74505805969E-08  0.93827000000E+00  0.93827000000E+00 0. -1.
     999902    2    1    2    0    0 -0.15026697663E-03 -0.21815631505E-01  0.92241207388E-02  0.10202439543E+01  0.10199689689E+01 0.  0.
     999903    2    3    3    0    0 -0.10508146489E+00  0.15537810662E-01 -0.71615655048E-01  0.12954708931E+00  0.19238203583E-01 0.  0.
         14    1    1    2    0    0  0.15026697663E-03  0.21815631505E-01 -0.92241207388E-02  0.23686045713E-01  0.00000000000E+00 0.  1.
     999901    1    3    3    0    0  0.10493119791E+00 -0.37353442167E-01  0.80839775787E-01  0.89069686498E+00  0.88000000000E+00 0.  1.
        -11    1    4    4    0    0 -0.85453931777E-01  0.10549721991E-01 -0.66104498332E-01  0.10855292217E+00  0.51100000000E-03 0.  1.
         11    1    4    4    0    0 -0.19627533109E-01  0.49880886715E-02 -0.55111567158E-02  0.20994167140E-01  0.51100000000E-03 0. -1.
</event>
<event>
 8    1  0.1094829E+005  0.1043930E+01  0.7957747E-01            NaN
         13   -1    0    0    0    0  0.00000000000E+00  0.00000000000E+00  0.74505805969E-08  0.10566000000E+00  0.10566000000E+00 0.  1.
     999900   -1    0    0    0    0 -0.00000000000E+00 -0.00000000000E+00 -0.74505805969E-08  0.93827000000E+00  0.93827000000E+00 0. -1.
     999902    2    1    2    0    0  0.63236425421E-02 -0.18339212570E-02 -0.22063814940E-01  0.10209047171E+01  0.10206450303E+01 0.  0.
     999903    2    3    3    0    0  0.73728699798E-01  0.71256846788E-01  0.76930161812E-01  0.12978996045E+00  0.20340222438E-01 0.  0.
         14    1    1    2    0    0 -0.63236425421E-02  0.18339212570E-02  0.22063814940E-01  0.23025282884E-01  0.00000000000E+00 0.  1.
     999901    1    3    3    0    0 -0.67405057256E-01 -0.73090768045E-01 -0.98993976752E-01  0.89111475667E+00  0.88000000000E+00 0. -1.
        -11    1    4    4    0    0  0.41794800814E-01  0.45850940407E-01  0.34808503782E-01  0.71140756026E-01  0.51100000000E-03 0.  1.
         11    1    4    4    0    0  0.31933898983E-01  0.25405906381E-01  0.42121658029E-01  0.58649204423E-01  0.51100000000E-03 0. -1.
</event>
<event>
 8    1  0.1094829E+005  0.1043930E+01  0.7957747E-01            NaN
         13   -1    0    0    0    0  0.00000000000E+00  0.00000000000E+00  0.74505805969E-08  0.10566000000E+00  0.10566000000E+00 0. -1.
     999900   -1    0    0    0    0 -0.00000000000E+00 -0.00000000000E+00 -0.74505805969E-08  0.93827000000E+00  0.93827000000E+00 0.  1.
     999902    2    1    2    0    0  0.23289735836E-01 -0.68694146239E-03  0.22070621155E-02  0.10205258378E+01  0.10202574336E+01 0.  0.
     999903    2    3    3    0    0  0.38091639255E-01 -0.84409025761E-01  0.91762988103E-01  0.13190401296E+00  0.20059063762E-01 0.  0.
         14    1    1    2    0    0 -0.23289735836E-01  0.68694146239E-03 -0.22070621155E-02  0.23404162174E-01  0.00000000000E+00 0.  1.
     999901    1    3    3    0    0 -0.14801903420E-01  0.83722084299E-01 -0.89555925988E-01  0.88862182486E+00  0.88000000000E+00 0.  1.
        -11    1    4    4    0    0  0.29026467177E-01 -0.53875512569E-01  0.48013199267E-01  0.77785828248E-01  0.51100000000E-03 0.  1.
         11    1    4    4    0    0  0.90651720787E-02 -0.30533513192E-01  0.43749788836E-01  0.54118184715E-01  0.51100000000E-03 0. -1.
</event>
<event>
 8    1  0.1094829E+005  0.1043930E+01  0.7957747E-01            NaN
         13   -1    0    0    0    0  0.00000000000E+00  0.00000000000E+00  0.74505805969E-08  0.10566000000E+00  0.10566000000E+00 0. -1.
     999900   -1    0    0    0    0 -0.00000000000E+00 -0.00000000000E+00 -0.74505805969E-08  0.93827000000E+00  0.93827000000E+00 0.  1.
     999902    2    1    2    0    0 -0.13493285206E-01  0.22141514159E-01  0.81999192677E-02  0.10167352566E+01  0.10163715009E+01 0.  0.
     999903    2    3    3    0    0  0.38952339369E-02 -0.45187875544E-01 -0.11521647944E+00  0.12540635274E+00  0.19869555355E-01 0.  0.
         14    1    1    2    0    0  0.13493285206E-01 -0.22141514159E-01 -0.81999192677E-02  0.27194743442E-01  0.00000000000E+00 0. -1.
     999901    1    3    3    0    0 -0.17388519143E-01  0.67329389702E-01  0.12341639870E+00  0.89132890382E+00  0.88000000000E+00 0. -1.
        -11    1    4    4    0    0  0.11823129923E-01 -0.27247934795E-01 -0.74666776488E-01  0.80359349075E-01  0.51100000000E-03 0.  1.
         11    1    4    4    0    0 -0.79278959862E-02 -0.17939940749E-01 -0.40549702948E-01  0.45047003663E-01  0.51100000000E-03 0. -1.
</event>
<event>
 8    1  0.1094829E+005  0.1043930E+01  0.7957747E-01            NaN
         13   -1    0    0    0    0  0.00000000000E+00  0.00000000000E+00  0.74505805969E-08  0.10566000000E+00  0.10566000000E+00 0.  1.
     999900   -1    0    0    0    0 -0.00000000000E+00 -0.00000000000E+00 -0.74505805969E-08  0.93827000000E+00  0.93827000000E+00 0.  1.
     999902    2    1    2    0    0 -0.85174655238E-02 -0.13130074120E-01 -0.17441834663E-01  0.10204957588E+01  0.10202266562E+01 0.  0.
     999903    2    3    3    0    0 -0.23864430163E-01 -0.12881877589E+00 -0.10090520246E-01  0.13276074940E+00  0.18968656614E-01 0.  0.
         14    1    1    2    0    0  0.85174655238E-02  0.13130074120E-01  0.17441834663E-01  0.23434241224E-01  0.00000000000E+00 0.  1.
     999901    1    3    3    0    0  0.15346964639E-01  0.11568870177E+00 -0.73513144169E-02  0.88773500937E+00  0.88000000000E+00 0.  1.
        -11    1    4    4    0    0 -0.30515217284E-02 -0.64723456408E-01 -0.84786622060E-02  0.65349724009E-01  0.51100000000E-03 0.  1.
         11    1    4    4    0    0 -0.20812908434E-01 -0.64095319485E-01 -0.16118580405E-02  0.67411025394E-01  0.51100000000E-03 0. -1.
</event>
<event>
 8    1  0.1094829E+005  0.1043930E+01  0.7957747E-01            NaN
         13   -1    0    0    0    0  0.00000000000E+00  0.00000000000E+00  0.74505805969E-08  0.10566000000E+00  0.10566000000E+00 0. -1.
     999900   -1    0    0    0    0 -0.00000000000E+00 -0.00000000000E+00 -0.74505805969E-08  0.93827000000E+00  0.93827000000E+00 0.  1.
     999902    2    1    2    0    0 -0.15916826023E-01 -0.13045668766E-01  0.15650609894E-01  0.10180750892E+01  0.10177467321E+01 0.  0.
     999903    2    3    3    0    0  0.63935143534E-01 -0.99031156044E-01 -0.45822064114E-01  0.12816007597E+00  0.20747796665E-01 0.  0.
         14    1    1    2    0    0  0.15916826023E-01  0.13045668766E-01 -0.15650609894E-01  0.25854910834E-01  0.00000000000E+00 0.  1.
     999901    1    3    3    0    0 -0.79851969557E-01  0.85985487278E-01  0.61472674008E-01  0.88991501320E+00  0.88000000000E+00 0. -1.
        -11    1    4    4    0    0  0.43589496376E-01 -0.78099410422E-01 -0.27017629956E-01  0.93433267908E-01  0.51100000000E-03 0. -1.
         11    1    4    4    0    0  0.20345647158E-01 -0.20931745622E-01 -0.18804434158E-01  0.34726808060E-01  0.51100000000E-03 0.  1.
</event>
<event>
 8    1  0.1094829E+005  0.1043930E+01  0.7957747E-01            NaN
         13   -1    0    0    0    0  0.00000000000E+00  0.00000000000E+00  0.74505805969E-08  0.10566000000E+00  0.10566000000E+00 0.  1.
     999900   -1    0    0    0    0 -0.00000000000E+00 -0.00000000000E+00 -0.74505805969E-08  0.93827000000E+00  0.93827000000E+00 0. -1.
     999902    2    1    2    0    0 -0.22069190518E-01  0.13649336696E-01 -0.41047866162E-02  0.10176582883E+01  0.10173191185E+01 0.  0.
     999903    2    3    3    0    0  0.10710759524E+00 -0.98945655050E-02 -0.62461275002E-01  0.12600452307E+00  0.20144219439E-01 0.  0.
         14    1    1    2    0    0  0.22069190518E-01 -0.13649336696E-01  0.41047866162E-02  0.26271711698E-01  0.00000000000E+00 0.  1.
     999901    1    3    3    0    0 -0.12917678575E+00  0.23543902201E-01  0.58356488386E-01  0.89165376523E+00  0.88000000000E+00 0. -1.
        -11    1    4    4    0    0  0.37565871974E-01 -0.10900302868E-01 -0.15467456791E-01  0.42065599727E-01  0.51100000000E-03 0. -1.
         11    1    4    4    0    0  0.69541723261E-01  0.10057373634E-02 -0.46993818210E-01  0.83938923348E-01  0.51100000000E-03 0.  1.
</event>
<event>
 8    1  0.1094829E+005  0.1043930E+01  0.7957747E-01            NaN
         13   -1    0    0    0    0  0.00000000000E+00  0.00000000000E+00  0.74505805969E-08  0.10566000000E+00  0.10566000000E+00 0. -1.
     999900   -1    0    0    0    0 -0.00000000000E+00 -0.00000000000E+00 -0.74505805969E-08  0.93827000000E+00  0.93827000000E+00 0. -1.
     999902    2    1    2    0    0  0.80696488445E-02 -0.20072048633E-01 -0.79142294086E-02  0.10208943451E+01  0.10206344216E+01 0.  0.
     999903    2    3    3    0    0 -0.73811403059E-01  0.54992319391E-01 -0.89780924581E-01  0.13014111229E+00  0.20095180432E-01 0.  0.
         14    1    1    2    0    0 -0.80696488445E-02  0.20072048633E-01  0.79142294086E-02  0.23035654884E-01  0.00000000000E+00 0.  1.
     999901    1    3    3    0    0  0.81881051903E-01 -0.75064368023E-01  0.81866695172E-01  0.89075323282E+00  0.88000000000E+00 0.  1.
        -11    1    4    4    0    0 -0.34183211306E-01  0.13725242105E-01 -0.38876823851E-01  0.53558778550E-01  0.51100000000E-03 0. -1.
         11    1    4    4    0    0 -0.39628191753E-01  0.41267077285E-01 -0.50904100730E-01  0.76582333742E-01  0.51100000000E-03 0.  1.
</event>
<event>
 8    1  0.1094829E+005  0.1043930E+01  0.7957747E-01            NaN
         13   -1    0    0    0    0  0.00000000000E+00  0.00000000000E+00  0.74505805969E-08  0.10566000000E+00  0.10566000000E+00 0. -1.
     999900   -1    0    0    0    0 -0.00000000000E+00 -0.00000000000E+00 -0.74505805969E-08  0.93827000000E+00  0.93827000000E+00 0.  1.
     999902    2    1    2    0    0  0.17794956930E-01 -0.50724019502E-03  0.18211004734E-01  0.10184631887E+01  0.10181447384E+01 0.  0.
     999903    2    3    3    0    0  0.41668881107E-01 -0.70055100876E-01  0.10128838711E+00  0.13149716869E+00  0.19701654708E-01 0.  0.
         14    1    1    2    0    0 -0.17794956930E-01  0.50724019502E-03 -0.18211004734E-01  0.25466811308E-01  0.00000000000E+00 0.  1.
     999901    1    3    3    0    0 -0.23873924177E-01  0.69547860681E-01 -0.83077382374E-01  0.88696602000E+00  0.88000000000E+00 0.  1.
        -11    1    4    4    0    0  0.24398410121E-01 -0.55455886535E-01  0.66111268969E-01  0.89674961798E-01  0.51100000000E-03 0.  1.
         11    1    4    4    0    0  0.17270470986E-01 -0.14599214341E-01  0.35177118139E-01  0.41822206889E-01  0.51100000000E-03 0. -1.
</event>
<event>
 8    1  0.1094829E+005  0.1043930E+01  0.7957747E-01            NaN
         13   -1    0    0    0    0  0.00000000000E+00  0.00000000000E+00  0.74505805969E-08  0.10566000000E+00  0.10566000000E+00 0.  1.
     999900   -1    0    0    0    0 -0.00000000000E+00 -0.00000000000E+00 -0.74505805969E-08  0.93827000000E+00  0.93827000000E+00 0. -1.
     999902    2    1    2    0    0 -0.23530211428E-01 -0.42980585680E-02 -0.29784036334E-02  0.10198257463E+01  0.10195408466E+01 0.  0.
     999903    2    3    3    0    0 -0.92006063362E-02 -0.94096102074E-01 -0.87131023935E-01  0.13114656365E+00  0.25862680518E-01 0.  0.
         14    1    1    2    0    0  0.23530211428E-01  0.42980585680E-02  0.29784036334E-02  0.24104253681E-01  0.00000000000E+00 0. -1.
     999901    1    3    3    0    0 -0.14329605092E-01  0.89798043506E-01  0.84152620302E-01  0.88867918267E+00  0.88000000000E+00 0. -1.
        -11    1    4    4    0    0 -0.13973787698E-01 -0.24399167432E-01 -0.26590296708E-01  0.38702598285E-01  0.51100000000E-03 0. -1.
         11    1    4    4    0    0  0.47731813614E-02 -0.69696934643E-01 -0.60540727227E-01  0.92443965369E-01  0.51100000000E-03 0.  1.
</event>
<event>
 7    1  0.1765515E+005  0.1043930E+01  0.7957747E-01            NaN
         13   -1    0    0    0    0  0.00000000000E+00  0.00000000000E+00  0.74505805969E-08  0.10566000000E+00  0.10566000000E+00 0. -1.
     999900   -1    0    0    0    0 -0.00000000000E+00 -0.00000000000E+00 -0.74505805969E-08  0.93827000000E+00  0.93827000000E+00 0. -1.
     999903    2    1    2    0    0  0.26895793652E-01  0.85542349465E-02 -0.72253802463E-01  0.80079625825E-01  0.19889088722E-01 0.  0.
         14    1    1    2    0    0  0.20124215793E-01 -0.74079444472E-01  0.15709583753E-01  0.78355211545E-01  0.00000000000E+00 0.  1.
     999901    1    1    2    0    0 -0.47020009445E-01  0.65525209525E-01  0.56544218710E-01  0.88549516263E+00  0.88000000000E+00 0.  1.
        -11    1    3    3    0    0  0.10673627076E-01  0.12735026755E-01 -0.25772948876E-01  0.30669418583E-01  0.51100000000E-03 0. -1.
         11    1    3    3    0    0  0.16222166577E-01 -0.41807918088E-02 -0.46480853587E-01  0.49410207242E-01  0.51100000000E-03 0.  1.
</event>
<event>
 8    1  0.1094829E+005  0.1043930E+01  0.7957747E-01            NaN
         13   -1    0    0    0    0  0.00000000000E+00  0.00000000000E+00  0.74505805969E-08  0.10566000000E+00  0.10566000000E+00 0. -1.
     999900   -1    0    0    0    0 -0.00000000000E+00 -0.00000000000E+00 -0.74505805969E-08  0.93827000000E+00  0.93827000000E+00 0.  1.
     999902    2    1    2    0    0 -0.41782072402E-03 -0.14627576416E-01 -0.18590180260E-01  0.10202712729E+01  0.10199969289E+01 0.  0.
     999903    2    3    3    0    0  0.12587685519E-01 -0.38034496841E-01  0.12069062558E+00  0.12891490758E+00  0.21160187104E-01 0.  0.
         14    1    1    2    0    0  0.41782072402E-03  0.14627576416E-01  0.18590180260E-01  0.23658727101E-01  0.00000000000E+00 0. -1.
     999901    1    3    3    0    0 -0.13005506243E-01  0.23406920425E-01 -0.13928080584E+00  0.89135636532E+00  0.88000000000E+00 0.  1.
        -11    1    4    4    0    0  0.42322666193E-02 -0.36551390349E-01  0.98949228158E-01  0.10557048400E+00  0.51100000000E-03 0. -1.
         11    1    4    4    0    0  0.83554188993E-02 -0.14831064918E-02  0.21741397418E-01  0.23344423585E-01  0.51100000000E-03 0.  1.
</event>
<event>
 8    1  0.1094829E+005  0.1043930E+01  0.7957747E-01            NaN
         13   -1    0    0    0    0  0.00000000000E+00  0.00000000000E+00  0.74505805969E-08  0.10566000000E+00  0.10566000000E+00 0.  1.
     999900   -1    0    0    0    0 -0.00000000000E+00 -0.00000000000E+00 -0.74505805969E-08  0.93827000000E+00  0.93827000000E+00 0. -1.
     999902    2    1    2    0    0  0.22022107582E-01 -0.43063589900E-02  0.34453772639E-02  0.10212278289E+01  0.10209754600E+01 0.  0.
     999903    2    3    3    0    0 -0.22472493470E-01  0.10870813348E+00 -0.65598273181E-01  0.13020646509E+00  0.18114051400E-01 0.  0.
         14    1    1    2    0    0 -0.22022107582E-01  0.43063589900E-02 -0.34453772639E-02  0.22702171142E-01  0.00000000000E+00 0.  1.
     999901    1    3    3    0    0  0.44494601051E-01 -0.11301449247E+00  0.69043650445E-01  0.89102136377E+00  0.88000000000E+00 0.  1.
        -11    1    4    4    0    0 -0.12802260363E-01  0.47670076381E-01 -0.39066115810E-01  0.62950429530E-01  0.51100000000E-03 0.  1.
         11    1    4    4    0    0 -0.96702331072E-02  0.61038057100E-01 -0.26532157371E-01  0.67256035555E-01  0.51100000000E-03 0. -1.
</event>
<event>
 8    1  0.1094829E+005  0.1043930E+01  0.7957747E-01            NaN
         13   -1    0    0    0    0  0.00000000000E+00  0.00000000000E+00  0.74505805969E-08  0.10566000000E+00  0.10566000000E+00 0. -1.
     999900   -1    0    0    0    0 -0.00000000000E+00 -0.00000000000E+00 -0.74505805969E-08  0.93827000000E+00  0.93827000000E+00 0.  1.
     999902    2    1    2    0    0 -0.13581118445E-01  0.18952912269E-01 -0.38145174814E-02  0.10203035274E+01  0.10200299397E+01 0.  0.
     999903    2    3    3    0    0 -0.30168682302E-01 -0.96199989496E-01  0.77248751649E-01  0.12895253504E+00  0.22288994851E-01 0.  0.
         14    1    1    2    0    0  0.13581118445E-01 -0.18952912269E-01  0.38145174814E-02  0.23626472553E-01  0.00000000000E+00 0. -1.
     999901    1    3    3    0    0  0.16587563857E-01  0.11515290177E+00 -0.81063269130E-01  0.89135099241E+00  0.88000000000E+00 0.  1.
        -11    1    4    4    0    0 -0.70051117436E-02 -0.38095944072E-02  0.65208173040E-02  0.10313427141E-01  0.51100000000E-03 0.  1.
         11    1    4    4    0    0 -0.23163570558E-01 -0.92390395089E-01  0.70727934344E-01  0.11863910790E+00  0.51100000000E-03 0. -1.
</event>
<event>
 8    1  0.1094829E+005  0.1043930E+01  0.7957747E-01            NaN
         13   -1    0    0    0    0  0.00000000000E+00  0.00000000000E+00  0.74505805969E-08  0.10566000000E+00  0.10566000000E+00 0.  1.
     999900   -1    0    0    0    0 -0.00000000000E+00 -0.00000000000E+00 -0.74505805969E-08  0.93827000000E+00  0.93827000000E+00 0. -1.
     999902    2    1    2    0    0 -0.20280224102E-01 -0.44659724648E-02  0.13942782147E-01  0.10189173317E+01  0.10186102765E+01 0.  0.
     999903    2    3    3    0    0  0.80527589195E-01 -0.20809720635E-01 -0.93159735859E-01  0.12656074231E+00  0.20521891113E-01 0.  0.
         14    1    1    2    0    0  0.20280224102E-01  0.44659724648E-02 -0.13942782147E-01  0.25012668264E-01  0.00000000000E+00 0. -1.
     999901    1    3    3    0    0 -0.10080781330E+00  0.16343748170E-01  0.10710251801E+00  0.89235658942E+00  0.88000000000E+00 0.  1.
        -11    1    4    4    0    0  0.33345856086E-01 -0.19007771517E-01 -0.44178282555E-01  0.58525407019E-01  0.51100000000E-03 0. -1.
         11    1    4    4    0    0  0.47181733108E-01 -0.18019491175E-02 -0.48981453303E-01  0.68035335293E-01  0.51100000000E-03 0.  1.
</event>
<event>
 8    1  0.1094829E+005  0.1043930E+01  0.7957747E-01            NaN
         13   -1    0    0    0    0  0.00000000000E+00  0.00000000000E+00  0.74505805969E-08  0.10566000000E+00  0.10566000000E+00 0.  1.
     999900   -1    0    0    0    0 -0.00000000000E+00 -0.00000000000E+00 -0.74505805969E-08  0.93827000000E+00  0.93827000000E+00 0. -1.
     999902    2    1    2    0    0  0.16584629294E-02  0.97861855321E-02  0.21570151918E-01  0.10201857085E+01  0.10199093530E+01 0.  0.
     999903    2    3    3    0    0  0.60629280639E-01 -0.10952413324E+00 -0.21257910254E-01  0.12914881113E+00  0.23581162727E-01 0.  0.
         14    1    1    2    0    0 -0.16584629294E-02 -0.97861855321E-02 -0.21570151918E-01  0.23744291531E-01  0.00000000000E+00 0.  1.
     999901    1    3    3    0    0 -0.58970817710E-01  0.11931031877E+00  0.42828062172E-01  0.89103689734E+00  0.88000000000E+00 0. -1.
        -11    1    4    4    0    0  0.34060976346E-01 -0.69169792145E-01 -0.19834713261E-02  0.77128500144E-01  0.51100000000E-03 0. -1.
         11    1    4    4    0    0  0.26568304294E-01 -0.40354341095E-01 -0.19274438928E-01  0.52020310987E-01  0.51100000000E-03 0.  1.
</event>
<event>
 8    1  0.1094829E+005  0.1043930E+01  0.7957747E-01            NaN
         13   -1    0    0    0    0  0.00000000000E+00  0.00000000000E+00  0.74505805969E-08  0.10566000000E+00  0.10566000000E+00 0.  1.
     999900   -1    0    0    0    0 -0.00000000000E+00 -0.00000000000E+00 -0.74505805969E-08  0.93827000000E+00  0.93827000000E+00 0. -1.
     999902    2    1    2    0    0  0.18587497948E-01 -0.11746096398E-01  0.72804972013E-02  0.10207681456E+01  0.10205053334E+01 0.  0.
     999903    2    3    3    0    0  0.10618546533E+00  0.34264947563E-01  0.69472437438E-01  0.13304169138E+00  0.20596902785E-01 0.  0.
         14    1    1    2    0    0 -0.18587497948E-01  0.11746096398E-01 -0.72804972013E-02  0.23161854417E-01  0.00000000000E+00 0. -1.
     999901    1    3    3    0    0 -0.87597967379E-01 -0.46011043961E-01 -0.62191940237E-01  0.88772645420E+00  0.88000000000E+00 0. -1.
        -11    1    4    4    0    0  0.67763476657E-01  0.31490579489E-01  0.41946497368E-01  0.85693145161E-01  0.51100000000E-03 0. -1.
         11    1    4    4    0    0  0.38421988670E-01  0.27743680735E-02  0.27525940071E-01  0.47348546222E-01  0.51100000000E-03 0.  1.
</event>
<event>
 8    1  0.1094829E+005  0.1043930E+01  0.7957747E-01            NaN
         13   -1    0    0    0    0  0.00000000000E+00  0.00000000000E+00  0.74505805969E-08  0.10566000000E+00  0.10566000000E+00 0. -1.
     999900   -1    0    0    0    0 -0.00000000000E+00 -0.00000000000E+00 -0.74505805969E-08  0.93827000000E+00  0.93827000000E+00 0.  1.
     999902    2    1    2    0    0 -0.64383912759E-02 -0.86258779173E-02 -0.33176126748E-01  0.10090514387E+01  0.10084484577E+01 0.  0.
     999903    2    3    3    0    0 -0.60548437030E-01 -0.97414617811E-01  0.31568943324E-01  0.12056775203E+00  0.19602644144E-01 0.  0.
         14    1    1    2    0    0  0.64383912759E-02  0.86258779173E-02  0.33176126748E-01  0.34878561296E-01  0.00000000000E+00 0. -1.
     999901    1    3    3    0    0  0.54110045754E-01  0.88788739894E-01 -0.64745070072E-01  0.88848368667E+00  0.88000000000E+00 0. -1.
        -11    1    4    4    0    0 -0.17733550852E-01 -0.20998006068E-01  0.15347858678E-01  0.31483534930E-01  0.51100000000E-03 0. -1.
         11    1    4    4    0    0 -0.42814886178E-01 -0.76416611743E-01  0.16221084646E-01  0.89084217102E-01  0.51100000000E-03 0.  1.
</event>
<event>
 8    1  0.1094829E+005  0.1043930E+01  0.7957747E-01            NaN
         13   -1    0    0    0    0  0.00000000000E+00  0.00000000000E+00  0.74505805969E-08  0.10566000000E+00  0.10566000000E+00 0. -1.
     999900   -1    0    0    0    0 -0.00000000000E+00 -0.00000000000E+00 -0.74505805969E-08  0.93827000000E+00  0.93827000000E+00 0.  1.
     999902    2    1    2    0    0 -0.12811075031E-01 -0.81184895649E-02  0.29019509158E-01  0.10111860627E+01  0.10106557713E+01 0.  0.
     999903    2    3    3    0    0 -0.11570105349E+00 -0.40704833754E-01  0.47120330019E-02  0.12425930651E+00  0.19353416473E-01 0.  0.
         14    1    1    2    0    0  0.12811075031E-01  0.81184895649E-02 -0.29019509158E-01  0.32743937272E-01  0.00000000000E+00 0.  1.
     999901    1    3    3    0    0  0.10288997846E+00  0.32586344189E-01  0.24307476156E-01  0.88692675622E+00  0.88000000000E+00 0.  1.
        -11    1    4    4    0    0 -0.98944467546E-01 -0.34444253974E-01  0.10875105031E-01  0.10533253685E+00  0.51100000000E-03 0. -1.
         11    1    4    4    0    0 -0.16756585948E-01 -0.62605797803E-02 -0.61630720290E-02  0.18926769657E-01  0.51100000000E-03 0.  1.
</event>
<event>
 8    1  0.1094829E+005  0.1043930E+01  0.7957747E-01            NaN
         13   -1    0    0    0    0  0.00000000000E+00  0.00000000000E+00  0.74505805969E-08  0.10566000000E+00  0.10566000000E+00 0.  1.
     999900   -1    0    0    0    0 -0.00000000000E+00 -0.00000000000E+00 -0.74505805969E-08  0.93827000000E+00  0.93827000000E+00 0. -1.
     999902    2    1    2    0    0  0.13405650322E-01 -0.16454240455E-01  0.98750671917E-02  0.10205212315E+01  0.10202527204E+01 0.  0.
     999903    2    3    3    0    0  0.10964412308E-01  0.10449864953E+00  0.74389457003E-01  0.12990477775E+00  0.17357242815E-01 0.  0.
         14    1    1    2    0    0 -0.13405650322E-01  0.16454240455E-01 -0.98750671917E-02  0.23408768476E-01  0.00000000000E+00 0.  1.
     999901    1    3    3    0    0  0.24412380149E-02 -0.12095288999E+00 -0.64514389811E-01  0.89061645377E+00  0.88000000000E+00 0.  1.
        -11    1    4    4    0    0 -0.13425460510E-02  0.66260141847E-01  0.48180409125E-01  0.81937914129E-01  0.51100000000E-03 0.  1.
         11    1    4    4    0    0  0.12306958359E-01  0.38238507685E-01  0.26209047879E-01  0.47966863622E-01  0.51100000000E-03 0. -1.
</event>
<event>
 8    1  0.1094829E+005  0.1043930E+01  0.7957747E-01            NaN
         13   -1    0    0    0    0  0.00000000000E+00  0.00000000000E+00  0.74505805969E-08  0.10566000000E+00  0.10566000000E+00 0.  1.
     999900   -1    0    0    0    0 -0.00000000000E+00 -0.00000000000E+00 -0.74505805969E-08  0.93827000000E+00  0.93827000000E+00 0.  1.
     999902    2    1    2    0    0 -0.18676611842E-01 -0.75666295339E-02 -0.16050712423E-01  0.10181677198E+01  0.10178417414E+01 0.  0.
     999903    2    3    3    0    0 -0.90465006788E-01 -0.90545819225E-01  0.16024305633E-01  0.13077382396E+00  0.21507018152E-01 0.  0.
         14    1    1    2    0    0  0.18676611842E-01  0.75666295339E-02  0.16050712423E-01  0.25762280211E-01  0.00000000000E+00 0.  1.
     999901    1    3    3    0    0  0.71788394946E-01  0.82979189691E-01 -0.32075018056E-01  0.88739389583E+00  0.88000000000E+00 0. -1.
        -11    1    4    4    0    0 -0.44375235911E-01 -0.52131411324E-01  0.17826103720E-01  0.70745153217E-01  0.51100000000E-03 0. -1.
         11    1    4    4    0    0 -0.46089770877E-01 -0.38414407901E-01 -0.18017980863E-02  0.60028670743E-01  0.51100000000E-03 0.  1.
</event>
<event>
 8    1  0.1094829E+005  0.1043930E+01  0.7957747E-01            NaN
         13   -1    0    0    0    0  0.00000000000E+00  0.00000000000E+00  0.74505805969E-08  0.10566000000E+00  0.10566000000E+00 0. -1.
     999900   -1    0    0    0    0 -0.00000000000E+00 -0.00000000000E+00 -0.74505805969E-08  0.93827000000E+00  0.93827000000E+00 0. -1.
     999902    2    1    2    0    0 -0.16707409647E-01 -0.16244758002E-01 -0.41631530843E-02  0.10202580431E+01  0.10199833886E+01 0.  0.
     999903    2    3    3    0    0 -0.75986567633E-01  0.71514043743E-01 -0.76528606769E-01  0.13095922677E+00  0.20136397588E-01 0.  0.
         14    1    1    2    0    0  0.16707409647E-01  0.16244758002E-01  0.41631530843E-02  0.23671956896E-01  0.00000000000E+00 0. -1.
     999901    1    3    3    0    0  0.59279157986E-01 -0.87758801745E-01  0.72365453685E-01  0.88929881634E+00  0.88000000000E+00 0.  1.
        -11    1    4    4    0    0 -0.30962063564E-01  0.17469570947E-01 -0.20597824175E-01  0.41089740458E-01  0.51100000000E-03 0.  1.
         11    1    4    4    0    0 -0.45024504070E-01  0.54044472795E-01 -0.55930782594E-01  0.89869486307E-01  0.51100000000E-03 0. -1.
</event>
<event>
 8    1  0.1094829E+005  0.1043930E+01  0.7957747E-01            NaN
         13   -1    0    0    0    0  0.00000000000E+00  0.00000000000E+00  0.74505805969E-08  0.10566000000E+00  0.10566000000E+00 0.  1.
     999900   -1    0    0    0    0 -0.00000000000E+00 -0.00000000000E+00 -0.74505805969E-08  0.93827000000E+00  0.93827000000E+00 0.  1.
     999902    2    1    2    0    0  0.20329416236E-01  0.40144044562E-02  0.59679661466E-02  0.10223657419E+01  0.10221382944E+01 0.  0.
     999903    2    3    3    0    0 -0.50424109314E-01 -0.11171782412E+00 -0.40793818209E-01  0.13074548944E+00  0.20168896367E-01 0.  0.
         14    1    1    2    0    0 -0.20329416236E-01 -0.40144044562E-02 -0.59679661466E-02  0.21564258103E-01  0.00000000000E+00 0.  1.
     999901    1    3    3    0    0  0.70753525549E-01  0.11573222857E+00  0.46761784356E-01  0.89162025245E+00  0.88000000000E+00 0. -1.
        -11    1    4    4    0    0 -0.15427629097E-01 -0.17448906277E-01 -0.38258242999E-02  0.23608772149E-01  0.51100000000E-03 0. -1.
         11    1    4    4    0    0 -0.34996480216E-01 -0.94268917838E-01 -0.36967993910E-01  0.10713671729E+00  0.51100000000E-03 0.  1.
</event>
<event>
 8    1  0.1094829E+005  0.1043930E+01  0.7957747E-01            NaN
         13   -1    0    0    0    0  0.00000000000E+00  0.00000000000E+00  0.74505805969E-08  0.10566000000E+00  0.10566000000E+00 0.  1.
     999900   -1    0    0    0    0 -0.00000000000E+00 -0.00000000000E+00 -0.74505805969E-08  0.93827000000E+00  0.93827000000E+00 0. -1.
     999902    2    1    2    0    0 -0.52143985739E-02 -0.22308415831E-01  0.86369416096E-02  0.10194462885E+01  0.10191522374E+01 0.  0.
     999903    2    3    3    0    0  0.57669911643E-01 -0.65077615922E-01 -0.95007589789E-01  0.13010617928E+00  0.18446163983E-01 0.  0.
         14    1    1    2    0    0  0.52143985739E-02  0.22308415831E-01 -0.86369416096E-02  0.24483711519E-01  0.00000000000E+00 0. -1.
     999901    1    3    3    0    0 -0.62884310217E-01  0.42769200091E-01  0.10364453140E+00  0.88934010920E+00  0.88000000000E+00 0.  1.
        -11    1    4    4    0    0  0.36111979629E-01 -0.27121166975E-01 -0.45746833394E-01  0.64285820034E-01  0.51100000000E-03 0.  1.
         11    1    4    4    0    0  0.21557932014E-01 -0.37956448948E-01 -0.49260756395E-01  0.65820359245E-01  0.51100000000E-03 0. -1.
</event>
<event>
 8    1  0.1094829E+005  0.1043930E+01  0.7957747E-01            NaN
         13   -1    0    0    0    0  0.00000000000E+00  0.00000000000E+00  0.74505805969E-08  0.10566000000E+00  0.10566000000E+00 0.  1.
     999900   -1    0    0    0    0 -0.00000000000E+00 -0.00000000000E+00 -0.74505805969E-08  0.93827000000E+00  0.93827000000E+00 0.  1.
     999902    2    1    2    0    0 -0.18851830634E-01  0.91731899362E-03  0.13818991709E-01  0.10205377465E+01  0.10202696185E+01 0.  0.
     999903    2    3    3    0    0  0.22896521009E-01 -0.81903386783E-01 -0.94972500756E-01  0.12900099290E+00  0.19724726322E-01 0.  0.
         14    1    1    2    0    0  0.18851830634E-01 -0.91731899362E-03 -0.13818991709E-01  0.23392253509E-01  0.00000000000E+00 0. -1.
     999901    1    3    3    0    0 -0.41748351643E-01  0.82820705776E-01  0.10879149247E+00  0.89153675359E+00  0.88000000000E+00 0. -1.
        -11    1    4    4    0    0  0.42747556894E-02 -0.21911305719E-01 -0.38619393174E-01  0.44610508903E-01  0.51100000000E-03 0.  1.
         11    1    4    4    0    0  0.18621765319E-01 -0.59992081063E-01 -0.56353107583E-01  0.84390483997E-01  0.51100000000E-03 0. -1.
</event>
<event>
 8    1  0.1094829E+005  0.1043930E+01  0.7957747E-01            NaN
         13   -1    0    0    0    0  0.00000000000E+00  0.00000000000E+00  0.74505805969E-08  0.10566000000E+00  0.10566000000E+00 0.  1.
     999900   -1    0    0    0    0 -0.00000000000E+00 -0.00000000000E+00 -0.74505805969E-08  0.93827000000E+00  0.93827000000E+00 0. -1.
     999902    2    1    2    0    0  0.18409934566E-01 -0.14391054925E-01  0.82255005104E-02  0.10191572930E+01  0.10188561728E+01 0.  0.
     999903    2    3    3    0    0  0.46214279756E-01 -0.12875120431E-01  0.12091095507E+00  0.13153496830E+00  0.19505395387E-01 0.  0.
         14    1    1    2    0    0 -0.18409934566E-01  0.14391054925E-01 -0.82255005104E-02  0.24772706982E-01  0.00000000000E+00 0. -1.
     999901    1    3    3    0    0 -0.27804345190E-01 -0.15159344934E-02 -0.11268545456E+00  0.88762232472E+00  0.88000000000E+00 0. -1.
        -11    1    4    4    0    0  0.46306429581E-01 -0.88713312178E-02  0.10467596875E+00  0.11480551160E+00  0.51100000000E-03 0.  1.
         11    1    4    4    0    0 -0.92149824937E-04 -0.40037892133E-02  0.16234986323E-01  0.16729456703E-01  0.51100000000E-03 0. -1.
</event>
<event>
 8    1  0.1094829E+005  0.1043930E+01  0.7957747E-01            NaN
         13   -1    0    0    0    0  0.00000000000E+00  0.00000000000E+00  0.74505805969E-08  0.10566000000E+00  0.10566000000E+00 0. -1.
     999900   -1    0    0    0    0 -0.00000000000E+00 -0.00000000000E+00 -0.74505805969E-08  0.93827000000E+00  0.93827000000E+00 0. -1.
     999902    2    1    2    0    0  0.96801447130E-02 -0.19928410880E-01  0.79162066123E-02  0.10204031411E+01  0.10201318823E+01 0.  0.
     999903    2    3    3    0    0 -0.69258280057E-01 -0.34348503266E-02  0.10928191962E+00  0.13092108946E+00  0.19730335958E-01 0.  0.
         14    1    1    2    0    0 -0.96801447130E-02  0.19928410880E-01 -0.79162066123E-02  0.23526858885E-01  0.00000000000E+00 0.  1.
     999901    1    3    3    0    0  0.78938424770E-01 -0.16493560553E-01 -0.10136571300E+00  0.88948205166E+00  0.88000000000E+00 0. -1.
        -11    1    4    4    0    0 -0.44223751834E-01 -0.43701770382E-02  0.52035340074E-01  0.68430814779E-01  0.51100000000E-03 0.  1.
         11    1    4    4    0    0 -0.25034528222E-01  0.93532671154E-03  0.57246579542E-01  0.62490274680E-01  0.51100000000E-03 0. -1.
</event>
<event>
 7    1  0.1094829E+005  0.1043930E+01  0.7957747E-01            NaN
         13   -1    0    0    0    0  0.00000000000E+00  0.00000000000E+00  0.74505805969E-08  0.10566000000E+00  0.10566000000E+00 0. -1.
     999900   -1    0    0    0    0 -0.00000000000E+00 -0.00000000000E+00 -0.74505805969E-08  0.93827000000E+00  0.93827000000E+00 0. -1.
     999903    2    1    2    0    0 -0.74097024520E-01  0.46383749790E-01  0.58989582367E-01  0.10777298071E+00  0.22213132524E-01 0.  0.
         14    1    1    2    0    0 -0.20059830805E-01 -0.44277282513E-01 -0.10957876429E-01  0.49829204434E-01  0.00000000000E+00 0. -1.
     999901    1    1    2    0    0  0.94156855325E-01 -0.21064672774E-02 -0.48031705938E-01  0.88632781485E+00  0.88000000000E+00 0. -1.
        -11    1    3    3    0    0 -0.34576575735E-01  0.91208717756E-02  0.20798417247E-01  0.41371066852E-01  0.51100000000E-03 0. -1.
         11    1    3    3    0    0 -0.39520448785E-01  0.37262878014E-01  0.38191165120E-01  0.66401913860E-01  0.51100000000E-03 0.  1.
</event>
<event>
 8    1  0.1094829E+005  0.1043930E+01  0.7957747E-01            NaN
         13   -1    0    0    0    0  0.00000000000E+00  0.00000000000E+00  0.74505805969E-08  0.10566000000E+00  0.10566000000E+00 0.  1.
     999900   -1    0    0    0    0 -0.00000000000E+00 -0.00000000000E+00 -0.74505805969E-08  0.93827000000E+00  0.93827000000E+00 0. -1.
     999902    2    1    2    0    0  0.13051166464E-02  0.12046670793E-01 -0.24400006258E-01  0.10166869107E+01  0.10163218430E+01 0.  0.
     999903    2    3    3    0    0  0.93672467350E-01 -0.55669808128E-01  0.59716101958E-01  0.12528757899E+00  0.16040758712E-01 0.  0.
         14    1    1    2    0    0 -0.13051166464E-02 -0.12046670793E-01  0.24400006258E-01  0.27243089253E-01  0.00000000000E+00 0. -1.
     999901    1    3    3    0    0 -0.92367350703E-01  0.67716478921E-01 -0.84116108216E-01  0.89139933176E+00  0.88000000000E+00 0. -1.
        -11    1    4    4    0    0  0.11381744763E-01 -0.29605869864E-02  0.24649324308E-02  0.12026894946E-01  0.51100000000E-03 0. -1.
         11    1    4    4    0    0  0.82290722587E-01 -0.52709221142E-01  0.57251169527E-01  0.11326068405E+00  0.51100000000E-03 0.  1.
</event>
<event>
 8    1  0.1094829E+005  0.1043930E+01  0.7957747E-01            NaN
         13   -1    0    0    0    0  0.00000000000E+00  0.00000000000E+00  0.74505805969E-08  0.10566000000E+00  0.10566000000E+00 0. -1.
     999900   -1    0    0    0    0 -0.00000000000E+00 -0.00000000000E+00 -0.74505805969E-08  0.93827000000E+00  0.93827000000E+00 0. -1.
     999902    2    1    2    0    0  0.55692433373E-02  0.12045770466E-01  0.21605023176E-01  0.10185746439E+01  0.10182590098E+01 0.  0.
     999903    2    3    3    0    0  0.50541765888E-04 -0.43529961271E-01 -0.11649821112E+00  0.12605482822E+00  0.20570037433E-01 0.  0.
         14    1    1    2    0    0 -0.55692433373E-02 -0.12045770466E-01 -0.21605023176E-01  0.25355356119E-01  0.00000000000E+00 0.  1.
     999901    1    3    3    0    0  0.55187015714E-02  0.55575731737E-01  0.13810323430E+00  0.89251981566E+00  0.88000000000E+00 0. -1.
        -11    1    4    4    0    0  0.58391714428E-02 -0.73946102621E-02 -0.11589034986E-01  0.14944665837E-01  0.51100000000E-03 0. -1.
         11    1    4    4    0    0 -0.57886296769E-02 -0.36135351008E-01 -0.10490917614E+00  0.11111016238E+00  0.51100000000E-03 0.  1.
</event>
<event>
 8    1  0.1094829E+005  0.1043930E+01  0.7957747E-01            NaN
         13   -1    0    0    0    0  0.00000000000E+00  0.00000000000E+00  0.74505805969E-08  0.10566000000E+00  0.10566000000E+00 0.  1.
     999900   -1    0    0    0    0 -0.00000000000E+00 -0.00000000000E+00 -0.74505805969E-08  0.93827000000E+00  0.93827000000E+00 0.  1.
     999902    2    1    2    0    0  0.21221468984E-01  0.98752346980E-02 -0.46351466465E-02  0.10200688267E+01  0.10197897115E+01 0.  0.
     999903    2    3    3    0    0 -0.51993585639E-01  0.87706403141E-01  0.77186228900E-01  0.12983690609E+00  0.22453555421E-01 0.  0.
         14    1    1    2    0    0 -0.21221468984E-01 -0.98752346980E-02  0.46351466465E-02  0.23861173287E-01  0.00000000000E+00 0.  1.
     999901    1    3    3    0    0  0.73215054623E-01 -0.77831168443E-01 -0.81821375547E-01  0.89023192063E+00  0.88000000000E+00 0.  1.
        -11    1    4    4    0    0 -0.33604165869E-01  0.37669762866E-01  0.30557318947E-01  0.59010692763E-01  0.51100000000E-03 0. -1.
         11    1    4    4    0    0 -0.18389419770E-01  0.50036640275E-01  0.46628909953E-01  0.70826213325E-01  0.51100000000E-03 0.  1.
</event>
<event>
 8    1  0.1094829E+005  0.1043930E+01  0.7957747E-01            NaN
         13   -1    0    0    0    0  0.00000000000E+00  0.00000000000E+00  0.74505805969E-08  0.10566000000E+00  0.10566000000E+00 0.  1.
     999900   -1    0    0    0    0 -0.00000000000E+00 -0.00000000000E+00 -0.74505805969E-08  0.93827000000E+00  0.93827000000E+00 0.  1.
     999902    2    1    2    0    0  0.19023025912E-01 -0.27702440106E-02  0.13333277572E-01  0.10205349993E+01  0.10202668076E+01 0.  0.
     999903    2    3    3    0    0 -0.11915689419E+00  0.43492730821E-01  0.66649613867E-02  0.12852691661E+00  0.19615389775E-01 0.  0.
         14    1    1    2    0    0 -0.19023025912E-01  0.27702440106E-02 -0.13333277572E-01  0.23395000695E-01  0.00000000000E+00 0.  1.
     999901    1    3    3    0    0  0.13817992010E+00 -0.46262974832E-01  0.66683161849E-02  0.89200808270E+00  0.88000000000E+00 0. -1.
        -11    1    4    4    0    0 -0.41634962548E-01  0.59397678235E-02  0.51464927914E-02  0.42373322471E-01  0.51100000000E-03 0. -1.
         11    1    4    4    0    0 -0.77521931637E-01  0.37552962998E-01  0.15184685953E-02  0.86153594136E-01  0.51100000000E-03 0.  1.
</event>
<event>
 8    1  0.1094829E+005  0.1043930E+01  0.7957747E-01            NaN
         13   -1    0    0    0    0  0.00000000000E+00  0.00000000000E+00  0.74505805969E-08  0.10566000000E+00  0.10566000000E+00 0.  1.
     999900   -1    0    0    0    0 -0.00000000000E+00 -0.00000000000E+00 -0.74505805969E-08  0.93827000000E+00  0.93827000000E+00 0.  1.
     999902    2    1    2    0    0  0.75651321981E-02  0.22188832936E-01 -0.62207393723E-03  0.10204787205E+01  0.10202092220E+01 0.  0.
     999903    2    3    3    0    0  0.94392337382E-01 -0.42419873813E-01  0.76854155975E-01  0.13046983590E+00  0.20160797036E-01 0.  0.
         14    1    1    2    0    0 -0.75651321981E-02 -0.22188832936E-01  0.62207393723E-03  0.23451279458E-01  0.00000000000E+00 0. -1.
     999901    1    3    3    0    0 -0.86827205184E-01  0.64608706749E-01 -0.77476229912E-01  0.89000888465E+00  0.88000000000E+00 0.  1.
        -11    1    4    4    0    0  0.32589385630E-01 -0.19035941230E-01  0.17332536183E-01  0.41534480203E-01  0.51100000000E-03 0. -1.
         11    1    4    4    0    0  0.61802951753E-01 -0.23383932583E-01  0.59521619793E-01  0.88935355692E-01  0.51100000000E-03 0.  1.
</event>
<event>
 8    1  0.1094829E+005  0.1043930E+01  0.7957747E-01            NaN
         13   -1    0    0    0    0  0.00000000000E+00  0.00000000000E+00  0.74505805969E-08  0.10566000000E+00  0.10566000000E+00 0. -1.
     999900   -1    0    0    0    0 -0.00000000000E+00 -0.00000000000E+00 -0.74505805969E-08  0.93827000000E+00  0.93827000000E+00 0.  1.
     999902    2    1    2    0    0  0.14809880969E-01 -0.17011676351E-01 -0.83023059950E-02  0.10198954833E+01  0.10196122493E+01 0.  0.
     999903    2    3    3    0    0 -0.12663861854E+00  0.77033360183E-03 -0.75495289969E-02  0.12842229553E+00  0.19933827592E-01 0.  0.
         14    1    1    2    0    0 -0.14809880969E-01  0.17011676351E-01  0.83023059950E-02  0.24034516667E-01  0.00000000000E+00 0. -1.
     999901    1    3    3    0    0  0.14144849951E+00 -0.17782009953E-01 -0.75277699803E-03  0.89147318780E+00  0.88000000000E+00 0.  1.
        -11    1    4    4    0    0 -0.89289528629E-01 -0.45587873563E-02 -0.12832146149E-01  0.90323460744E-01  0.51100000000E-03 0.  1.
         11    1    4    4    0    0 -0.37349089911E-01  0.53291209581E-02  0.52826171520E-02  0.38098834790E-01  0.51100000000E-03 0. -1.
</event>
<event>
 8    1  0.1094829E+005  0.1043930E+01  0.7957747E-01            NaN
         13   -1    0    0    0    0  0.00000000000E+00  0.00000000000E+00  0.74505805969E-08  0.10566000000E+00  0.10566000000E+00 0.  1.
     999900   -1    0    0    0    0 -0.00000000000E+00 -0.00000000000E+00 -0.74505805969E-08  0.93827000000E+00  0.93827000000E+00 0. -1.
     999902    2    1    2    0    0  0.23725678372E-02  0.19084712759E-01  0.15081740324E-01  0.10194899871E+01  0.10191969974E+01 0.  0.
     999903    2    3    3    0    0 -0.27262995988E-02  0.28944673336E-01  0.12743757639E+00  0.13227690606E+00  0.20288350792E-01 0.  0.
         14    1    1    2    0    0 -0.23725678372E-02 -0.19084712759E-01 -0.15081740324E-01  0.24440012898E-01  0.00000000000E+00 0. -1.
     999901    1    3    3    0    0  0.50988674360E-02 -0.98599605766E-02 -0.11235583606E+00  0.88721308104E+00  0.88000000000E+00 0. -1.
        -11    1    4    4    0    0 -0.89751741569E-02  0.23910502484E-01  0.75105506356E-01  0.79330725991E-01  0.51100000000E-03 0.  1.
         11    1    4    4    0    0  0.62488745581E-02  0.50341708515E-02  0.52332070030E-01  0.52946180071E-01  0.51100000000E-03 0. -1.
</event>
<event>
 8    1  0.1094829E+005  0.1043930E+01  0.7957747E-01            NaN
         13   -1    0    0    0    0  0.00000000000E+00  0.00000000000E+00  0.74505805969E-08  0.10566000000E+00  0.10566000000E+00 0. -1.
     999900   -1    0    0    0    0 -0.00000000000E+00 -0.00000000000E+00 -0.74505805969E-08  0.93827000000E+00  0.93827000000E+00 0. -1.
     999902    2    1    2    0    0  0.19271655310E-01 -0.12846985520E-01  0.59936998357E-02  0.10200058245E+01  0.10197252159E+01 0.  0.
     999903    2    3    3    0    0 -0.50732583887E-01 -0.11365904959E+00  0.35359027822E-01  0.13100301897E+00  0.20478171544E-01 0.  0.
         14    1    1    2    0    0 -0.19271655310E-01  0.12846985520E-01 -0.59936998357E-02  0.23924175494E-01  0.00000000000E+00 0. -1.
     999901    1    3    3    0    0  0.70004239197E-01  0.10081206407E+00 -0.29365327986E-01  0.88900280554E+00  0.88000000000E+00 0. -1.
        -11    1    4    4    0    0 -0.18419321652E-01 -0.29507144717E-01  0.18124269247E-01  0.39226180750E-01  0.51100000000E-03 0. -1.
         11    1    4    4    0    0 -0.32313262234E-01 -0.84151904869E-01  0.17234758575E-01  0.91776838219E-01  0.51100000000E-03 0.  1.
</event>
<event>
 8    1  0.1094829E+005  0.1043930E+01  0.7957747E-01            NaN
         13   -1    0    0    0    0  0.00000000000E+00  0.00000000000E+00  0.74505805969E-08  0.10566000000E+00  0.10566000000E+00 0. -1.
     999900   -1    0    0    0    0 -0.00000000000E+00 -0.00000000000E+00 -0.74505805969E-08  0.93827000000E+00  0.93827000000E+00 0. -1.
     999902    2    1    2    0    0  0.13316878712E-01 -0.14980759434E-01  0.11364462285E-01  0.10208884416E+01  0.10206283833E+01 0.  0.
     999903    2    3    3    0    0  0.63169022687E-01  0.11196561840E+00  0.85074440231E-02  0.13037803643E+00  0.19985761199E-01 0.  0.
         14    1    1    2    0    0 -0.13316878712E-01  0.14980759434E-01 -0.11364462285E-01  0.23041558429E-01  0.00000000000E+00 0. -1.
     999901    1    3    3    0    0 -0.49852143976E-01 -0.12694637783E+00  0.28570182618E-02  0.89051040514E+00  0.88000000000E+00 0.  1.
        -11    1    4    4    0    0  0.49295947572E-02  0.24638357122E-01  0.14447501854E-02  0.25173358342E-01  0.51100000000E-03 0.  1.
         11    1    4    4    0    0  0.58239427930E-01  0.87327261273E-01  0.70626938377E-02  0.10520467809E+00  0.51100000000E-03 0. -1.
</event>
<event>
 8    1  0.1094829E+005  0.1043930E+01  0.7957747E-01            NaN
         13   -1    0    0    0    0  0.00000000000E+00  0.00000000000E+00  0.74505805969E-08  0.10566000000E+00  0.10566000000E+00 0. -1.
     999900   -1    0    0    0    0 -0.00000000000E+00 -0.00000000000E+00 -0.74505805969E-08  0.93827000000E+00  0.93827000000E+00 0. -1.
     999902    2    1    2    0    0  0.41500226754E-02  0.23874832951E-01  0.55785825867E-02  0.10190633372E+01  0.10187599002E+01 0.  0.
     999903    2    3    3    0    0 -0.90695824358E-01  0.91234475690E-01 -0.17029604367E-01  0.13111954036E+00  0.18784683378E-01 0.  0.
         14    1    1    2    0    0 -0.41500226754E-02 -0.23874832951E-01 -0.55785825867E-02  0.24866662831E-01  0.00000000000E+00 0.  1.
     999901    1    3    3    0    0  0.94845847034E-01 -0.67359642739E-01  0.22608186953E-01  0.88794379681E+00  0.88000000000E+00 0.  1.
        -11    1    4    4    0    0 -0.43493402290E-01  0.39242281627E-01 -0.16617220891E-01  0.60893561739E-01  0.51100000000E-03 0. -1.
         11    1    4    4    0    0 -0.47202422068E-01  0.51992194063E-01 -0.41238347520E-03  0.70225978624E-01  0.51100000000E-03 0.  1.
</event>
<event>
 8    1  0.1094829E+005  0.1043930E+01  0.7957747E-01            NaN
         13   -1    0    0    0    0  0.00000000000E+00  0.00000000000E+00  0.74505805969E-08  0.10566000000E+00  0.10566000000E+00 0. -1.
     999900   -1    0    0    0    0 -0.00000000000E+00 -0.00000000000E+00 -0.74505805969E-08  0.93827000000E+00  0.93827000000E+00 0. -1.
     999902    2    1    2    0    0  0.19670339942E-01 -0.12196055898E-01  0.40303835556E-02  0.10204372342E+01  0.10201667701E+01 0.  0.
     999903    2    3    3    0    0  0.79647924673E-01  0.81064015624E-01 -0.61956848124E-01  0.13102784233E+00  0.20358730402E-01 0.  0.
         14    1    1    2    0    0 -0.19670339942E-01  0.12196055898E-01 -0.40303835556E-02  0.23492765791E-01  0.00000000000E+00 0.  1.
     999901    1    3    3    0    0 -0.59977584731E-01 -0.93260071522E-01  0.65987231679E-01  0.88940939187E+00  0.88000000000E+00 0.  1.
        -11    1    4    4    0    0  0.94375793299E-02  0.40195600079E-02 -0.11108127022E-02  0.10330527195E-01  0.51100000000E-03 0. -1.
         11    1    4    4    0    0  0.70210345343E-01  0.77044455616E-01 -0.60846035421E-01  0.12069731514E+00  0.51100000000E-03 0.  1.
</event>
<event>
 8    1  0.1094829E+005  0.1043930E+01  0.7957747E-01            NaN
         13   -1    0    0    0    0  0.00000000000E+00  0.00000000000E+00  0.74505805969E-08  0.10566000000E+00  0.10566000000E+00 0. -1.
     999900   -1    0    0    0    0 -0.00000000000E+00 -0.00000000000E+00 -0.74505805969E-08  0.93827000000E+00  0.93827000000E+00 0.  1.
     999902    2    1    2    0    0  0.67419593249E-02  0.80889290728E-02 -0.15551182942E-01  0.10251490501E+01  0.10249770001E+01 0.  0.
     999903    2    3    3    0    0  0.27855040453E-01  0.86717424842E-01 -0.10069005233E+00  0.13729949659E+00  0.20416906668E-01 0.  0.
         14    1    1    2    0    0 -0.67419593249E-02 -0.80889290728E-02  0.15551182942E-01  0.18780949922E-01  0.00000000000E+00 0. -1.
     999901    1    3    3    0    0 -0.21113081128E-01 -0.78628495769E-01  0.85138869384E-01  0.88784955348E+00  0.88000000000E+00 0.  1.
        -11    1    4    4    0    0  0.28226638133E-02  0.35676412170E-01 -0.47239850354E-01  0.59267515544E-01  0.51100000000E-03 0. -1.
         11    1    4    4    0    0  0.25032376639E-01  0.51041012672E-01 -0.53450201972E-01  0.78031981050E-01  0.51100000000E-03 0.  1.
</event>
<event>
 8    1  0.1094829E+005  0.1043930E+01  0.7957747E-01            NaN
         13   -1    0    0    0    0  0.00000000000E+00  0.00000000000E+00  0.74505805969E-08  0.10566000000E+00  0.10566000000E+00 0. -1.
     999900   -1    0    0    0    0 -0.00000000000E+00 -0.00000000000E+00 -0.74505805969E-08  0.93827000000E+00  0.93827000000E+00 0.  1.
     999902    2    1    2    0    0  0.11769625259E-01  0.10105086429E-01  0.17509471211E-01  0.10205372996E+01  0.10202691613E+01 0.  0.
     999903    2    3    3    0    0  0.87309992337E-01  0.16592607502E-01  0.97669434746E-01  0.13364719662E+00  0.20588960521E-01 0.  0.
         14    1    1    2    0    0 -0.11769625259E-01 -0.10105086429E-01 -0.17509471211E-01  0.23392700412E-01  0.00000000000E+00 0. -1.
     999901    1    3    3    0    0 -0.75540367078E-01 -0.64875210730E-02 -0.80159963535E-01  0.88689010297E+00  0.88000000000E+00 0.  1.
        -11    1    4    4    0    0  0.40196897397E-01  0.21431834234E-02  0.31362737992E-01  0.51032012021E-01  0.51100000000E-03 0.  1.
         11    1    4    4    0    0  0.47113094939E-01  0.14449424078E-01  0.66306696755E-01  0.82615184600E-01  0.51100000000E-03 0. -1.
</event>
<event>
 8    1  0.1094829E+005  0.1043930E+01  0.7957747E-01            NaN
         13   -1    0    0    0    0  0.00000000000E+00  0.00000000000E+00  0.74505805969E-08  0.10566000000E+00  0.10566000000E+00 0. -1.
     999900   -1    0    0    0    0 -0.00000000000E+00 -0.00000000000E+00 -0.74505805969E-08  0.93827000000E+00  0.93827000000E+00 0. -1.
     999902    2    1    2    0    0  0.35180976353E-02  0.64219524846E-02  0.21164688385E-01  0.10215344085E+01  0.10212888843E+01 0.  0.
     999903    2    3    3    0    0 -0.84987382997E-01  0.87058805482E-01  0.49883228577E-01  0.13296236486E+00  0.19712003859E-01 0.  0.
         14    1    1    2    0    0 -0.35180976353E-02 -0.64219524846E-02 -0.21164688385E-01  0.22395591511E-01  0.00000000000E+00 0.  1.
     999901    1    3    3    0    0  0.88505480632E-01 -0.80636852997E-01 -0.28718540192E-01  0.88857204363E+00  0.88000000000E+00 0. -1.
        -11    1    4    4    0    0 -0.72999596868E-01  0.71868978114E-01  0.49070562793E-01  0.11358817021E+00  0.51100000000E-03 0.  1.
         11    1    4    4    0    0 -0.11987786129E-01  0.15189827368E-01  0.81266578347E-03  0.19374194652E-01  0.51100000000E-03 0. -1.
</event>
<event>
 8    1  0.1094829E+005  0.1043930E+01  0.7957747E-01            NaN
         13   -1    0    0    0    0  0.00000000000E+00  0.00000000000E+00  0.74505805969E-08  0.10566000000E+00  0.10566000000E+00 0. -1.
     999900   -1    0    0    0    0 -0.00000000000E+00 -0.00000000000E+00 -0.74505805969E-08  0.93827000000E+00  0.93827000000E+00 0.  1.
     999902    2    1    2    0    0  0.83359957342E-02  0.21599227696E-01 -0.39070802744E-02  0.10204506316E+01  0.10201804796E+01 0.  0.
     999903    2    3    3    0    0  0.85206577029E-02 -0.79920364563E-01 -0.99538319181E-01  0.12946713260E+00  0.19849311321E-01 0.  0.
         14    1    1    2    0    0 -0.83359957342E-02 -0.21599227696E-01  0.39070802744E-02  0.23479368352E-01  0.00000000000E+00 0. -1.
     999901    1    3    3    0    0 -0.18466196873E-03  0.10151959226E+00  0.95631238906E-01  0.89098349904E+00  0.88000000000E+00 0.  1.
        -11    1    4    4    0    0  0.12979826749E-01 -0.30859302456E-01 -0.42266716785E-01  0.53921321565E-01  0.51100000000E-03 0. -1.
         11    1    4    4    0    0 -0.44591690465E-02 -0.49061062107E-01 -0.57271602396E-01  0.75545811040E-01  0.51100000000E-03 0.  1.
</event>
<event>
 8    1  0.1094829E+005  0.1043930E+01  0.7957747E-01            NaN
         13   -1    0    0    0    0  0.00000000000E+00  0.00000000000E+00  0.74505805969E-08  0.10566000000E+00  0.10566000000E+00 0. -1.
     999900   -1    0    0    0    0 -0.00000000000E+00 -0.00000000000E+00 -0.74505805969E-08  0.93827000000E+00  0.93827000000E+00 0.  1.
     999902    2    1    2    0    0  0.70988362594E-02 -0.69997337116E-02  0.21528256245E-01  0.10202054228E+01  0.10199295314E+01 0.  0.
     999903    2    3    3    0    0 -0.24761248008E-01 -0.94349513300E-01 -0.83321501682E-01  0.12911703169E+00  0.14621394143E-01 0.  0.
         14    1    1    2    0    0 -0.70988362594E-02  0.69997337116E-02 -0.21528256245E-01  0.23724577240E-01  0.00000000000E+00 0.  1.
     999901    1    3    3    0    0  0.31860084267E-01  0.87349779589E-01  0.10484975793E+00  0.89108839107E+00  0.88000000000E+00 0. -1.
        -11    1    4    4    0    0 -0.12669196366E-01 -0.29871155830E-01 -0.21160531268E-01  0.38740465817E-01  0.51100000000E-03 0. -1.
         11    1    4    4    0    0 -0.12092051642E-01 -0.64478357470E-01 -0.62160970414E-01  0.90376565871E-01  0.51100000000E-03 0.  1.
</event>
<event>
 8    1  0.1094829E+005  0.1043930E+01  0.7957747E-01            NaN
         13   -1    0    0    0    0  0.00000000000E+00  0.00000000000E+00  0.74505805969E-08  0.10566000000E+00  0.10566000000E+00 0. -1.
     999900   -1    0    0    0    0 -0.00000000000E+00 -0.00000000000E+00 -0.74505805969E-08  0.93827000000E+00  0.93827000000E+00 0.  1.
     999902    2    1    2    0    0 -0.12497955857E-01  0.82617464099E-02  0.19236904082E-01  0.10195473457E+01  0.10192557462E+01 0.  0.
     999903    2    3    3    0    0  0.32571321639E-02 -0.12661828202E+00  0.15129986226E-01  0.12912176671E+00  0.20017889567E-01 0.  0.
         14    1    1    2    0    0  0.12497955857E-01 -0.82617464099E-02 -0.19236904082E-01  0.24382654346E-01  0.00000000000E+00 0.  1.
     999901    1    3    3    0    0 -0.15755088021E-01  0.13488002843E+00  0.41069178551E-02  0.89042557895E+00  0.88000000000E+00 0. -1.
        -11    1    4    4    0    0  0.12776502306E-02 -0.76827110841E-01  0.18952509068E-01  0.79142252124E-01  0.51100000000E-03 0. -1.
         11    1    4    4    0    0  0.19794819332E-02 -0.49791171179E-01 -0.38225228413E-02  0.49979514583E-01  0.51100000000E-03 0.  1.
</event>
<event>
 8    1  0.1094829E+005  0.1043930E+01  0.7957747E-01            NaN
         13   -1    0    0    0    0  0.00000000000E+00  0.00000000000E+00  0.74505805969E-08  0.10566000000E+00  0.10566000000E+00 0. -1.
     999900   -1    0    0    0    0 -0.00000000000E+00 -0.00000000000E+00 -0.74505805969E-08  0.93827000000E+00  0.93827000000E+00 0. -1.
     999902    2    1    2    0    0 -0.25367478453E-01  0.94317992617E-02 -0.16825743440E-01  0.10120619369E+01  0.10115600777E+01 0.  0.
     999903    2    3    3    0    0  0.21465903532E-01  0.10129622743E+00 -0.66631483151E-01  0.12464261637E+00  0.19347262364E-01 0.  0.
         14    1    1    2    0    0  0.25367478453E-01 -0.94317992617E-02  0.16825743440E-01  0.31868063052E-01  0.00000000000E+00 0. -1.
     999901    1    3    3    0    0 -0.46833381985E-01 -0.91864428173E-01  0.49805739711E-01  0.88741932058E+00  0.88000000000E+00 0.  1.
        -11    1    4    4    0    0  0.19200813859E-01  0.76903060561E-01 -0.41223901436E-01  0.89344407475E-01  0.51100000000E-03 0.  1.
         11    1    4    4    0    0  0.22650896727E-02  0.24393166874E-01 -0.25407581716E-01  0.35298208892E-01  0.51100000000E-03 0. -1.
</event>
<event>
 8    1  0.1094829E+005  0.1043930E+01  0.7957747E-01            NaN
         13   -1    0    0    0    0  0.00000000000E+00  0.00000000000E+00  0.74505805969E-08  0.10566000000E+00  0.10566000000E+00 0.  1.
     999900   -1    0    0    0    0 -0.00000000000E+00 -0.00000000000E+00 -0.74505805969E-08  0.93827000000E+00  0.93827000000E+00 0.  1.
     999902    2    1    2    0    0 -0.77342786104E-02 -0.22038954886E-01  0.21055653322E-02  0.10204786034E+01  0.10202091021E+01 0.  0.
     999903    2    3    3    0    0 -0.12074108715E+00 -0.39622249498E-01 -0.31424667157E-01  0.13244482727E+00  0.20144224526E-01 0.  0.
         14    1    1    2    0    0  0.77342786104E-02  0.22038954886E-01 -0.21055653322E-02  0.23451396620E-01  0.00000000000E+00 0.  1.
     999901    1    3    3    0    0  0.11300680854E+00  0.17583294612E-01  0.33530232489E-01  0.88803377611E+00  0.88000000000E+00 0.  1.
        -11    1    4    4    0    0 -0.25013121770E-01 -0.25638058554E-03 -0.37272729225E-02  0.25295763996E-01  0.51100000000E-03 0. -1.
         11    1    4    4    0    0 -0.95727965383E-01 -0.39365868912E-01 -0.27697394234E-01  0.10714906327E+00  0.51100000000E-03 0.  1.
</event>
<event>
 8    1  0.1094829E+005  0.1043930E+01  0.7957747E-01            NaN
         13   -1    0    0    0    0  0.00000000000E+00  0.00000000000E+00  0.74505805969E-08  0.10566000000E+00  0.10566000000E+00 0. -1.
     999900   -1    0    0    0    0 -0.00000000000E+00 -0.00000000000E+00 -0.74505805969E-08  0.93827000000E+00  0.93827000000E+00 0. -1.
     999902    2    1    2    0    0 -0.23584835940E-01  0.52598335022E-02 -0.15349162160E-02  0.10197170633E+01  0.10194295576E+01 0.  0.
     999903    2    3    3    0    0  0.11377032736E+00  0.27625397915E-01  0.46421741507E-01  0.12749147504E+00  0.19805255053E-01 0.  0.
         14    1    1    2    0    0  0.23584835940E-01 -0.52598335022E-02  0.15349162160E-02  0.24212936678E-01  0.00000000000E+00 0. -1.
     999901    1    3    3    0    0 -0.13735516330E+00 -0.22365564412E-01 -0.47956657723E-01  0.89222558828E+00  0.88000000000E+00 0. -1.
        -11    1    4    4    0    0  0.66001074935E-01  0.16379508033E-01  0.16383378415E-01  0.69950742564E-01  0.51100000000E-03 0. -1.
         11    1    4    4    0    0  0.47769252422E-01  0.11245889882E-01  0.30038363092E-01  0.57540732481E-01  0.51100000000E-03 0.  1.
</event>
<event>
 8    1  0.1094829E+005  0.1043930E+01  0.7957747E-01            NaN
         13   -1    0    0    0    0  0.00000000000E+00  0.00000000000E+00  0.74505805969E-08  0.10566000000E+00  0.10566000000E+00 0. -1.
     999900   -1    0    0    0    0 -0.00000000000E+00 -0.00000000000E+00 -0.74505805969E-08  0.93827000000E+00  0.93827000000E+00 0. -1.
     999902    2    1    2    0    0  0.99506195047E-02  0.15700745800E-02 -0.20897701483E-01  0.10207309938E+01  0.10204673281E+01 0.  0.
     999903    2    3    3    0    0 -0.48486735868E-01 -0.28571623798E-01  0.11311517114E+00  0.12816004616E+00  0.21509399092E-01 0.  0.
         14    1    1    2    0    0 -0.99506195047E-02 -0.15700745800E-02  0.20897701483E-01  0.23199006229E-01  0.00000000000E+00 0. -1.
     999901    1    3    3    0    0  0.58437355373E-01  0.30141698378E-01 -0.13401287262E+00  0.89257094761E+00  0.88000000000E+00 0. -1.
        -11    1    4    4    0    0 -0.16272748607E-01 -0.42137324052E-02  0.17044056860E-01  0.23944078250E-01  0.51100000000E-03 0.  1.
         11    1    4    4    0    0 -0.32213987261E-01 -0.24357891393E-01  0.96071114279E-01  0.10421596791E+00  0.51100000000E-03 0. -1.
</event>
<event>
 8    1  0.1094829E+005  0.1043930E+01  0.7957747E-01            NaN
         13   -1    0    0    0    0  0.00000000000E+00  0.00000000000E+00  0.74505805969E-08  0.10566000000E+00  0.10566000000E+00 0.  1.
     999900   -1    0    0    0    0 -0.00000000000E+00 -0.00000000000E+00 -0.74505805969E-08  0.93827000000E+00  0.93827000000E+00 0. -1.
     999902    2    1    2    0    0 -0.13905982532E-01 -0.78712767410E-02  0.18097070762E-01  0.10197879761E+01  0.10195021721E+01 0.  0.
     999903    2    3    3    0    0  0.10238603212E+00  0.73112810425E-01  0.15740486191E-01  0.12844752008E+00  0.20557720910E-01 0.  0.
         14    1    1    2    0    0  0.13905982532E-01  0.78712767410E-02 -0.18097070762E-01  0.24142023898E-01  0.00000000000E+00 0. -1.
     999901    1    3    3    0    0 -0.11629201465E+00 -0.80984087166E-01  0.23565845710E-02  0.89134045602E+00  0.88000000000E+00 0.  1.
        -11    1    4    4    0    0  0.45779047499E-01  0.36059676001E-01  0.17237262961E-01  0.60773396964E-01  0.51100000000E-03 0. -1.
         11    1    4    4    0    0  0.56606984618E-01  0.37053134425E-01 -0.14967767693E-02  0.67674123119E-01  0.51100000000E-03 0.  1.
</event>
<event>
 8    1  0.1094829E+005  0.1043930E+01  0.7957747E-01            NaN
         13   -1    0    0    0    0  0.00000000000E+00  0.00000000000E+00  0.74505805969E-08  0.10566000000E+00  0.10566000000E+00 0. -1.
     999900   -1    0    0    0    0 -0.00000000000E+00 -0.00000000000E+00 -0.74505805969E-08  0.93827000000E+00  0.93827000000E+00 0. -1.
     999902    2    1    2    0    0  0.47240218150E-02 -0.17208100878E-01  0.21686654701E-01  0.10158453759E+01  0.10154570802E+01 0.  0.
     999903    2    3    3    0    0 -0.16674718578E-01  0.11428895315E+00 -0.39793087153E-01  0.12369676723E+00  0.19426512459E-01 0.  0.
         14    1    1    2    0    0 -0.47240218150E-02  0.17208100878E-01 -0.21686654701E-01  0.28084624086E-01  0.00000000000E+00 0.  1.
     999901    1    3    3    0    0  0.21398740393E-01 -0.13149705403E+00  0.61479741854E-01  0.89214860868E+00  0.88000000000E+00 0.  1.
        -11    1    4    4    0    0 -0.95941800690E-02  0.10484540034E+00 -0.35043602771E-01  0.11096360431E+00  0.51100000000E-03 0.  1.
         11    1    4    4    0    0 -0.70805385087E-02  0.94435528101E-02 -0.47494843824E-02  0.12733162928E-01  0.51100000000E-03 0. -1.
</event>
<event>
 8    1  0.1094829E+005  0.1043930E+01  0.7957747E-01            NaN
         13   -1    0    0    0    0  0.00000000000E+00  0.00000000000E+00  0.74505805969E-08  0.10566000000E+00  0.10566000000E+00 0.  1.
     999900   -1    0    0    0    0 -0.00000000000E+00 -0.00000000000E+00 -0.74505805969E-08  0.93827000000E+00  0.93827000000E+00 0.  1.
     999902    2    1    2    0    0  0.15455375408E-01  0.10025155312E-01 -0.14551032724E-01  0.10204543760E+01  0.10201843111E+01 0.  0.
     999903    2    3    3    0    0 -0.64123444694E-01 -0.21954726541E-01  0.10655621359E+00  0.12802932787E+00  0.21058394100E-01 0.  0.
         14    1    1    2    0    0 -0.15455375408E-01 -0.10025155312E-01  0.14551032724E-01  0.23475623983E-01  0.00000000000E+00 0.  1.
     999901    1    3    3    0    0  0.79578820102E-01  0.31979881853E-01 -0.12110724632E+00  0.89242504815E+00  0.88000000000E+00 0.  1.
        -11    1    4    4    0    0 -0.43294147695E-01 -0.21692491557E-01  0.86356416860E-01  0.99008278787E-01  0.51100000000E-03 0.  1.
         11    1    4    4    0    0 -0.20829296999E-01 -0.26223498438E-03  0.20199796734E-01  0.29021049081E-01  0.51100000000E-03 0. -1.
</event>
<event>
 8    1  0.1094829E+005  0.1043930E+01  0.7957747E-01            NaN
         13   -1    0    0    0    0  0.00000000000E+00  0.00000000000E+00  0.74505805969E-08  0.10566000000E+00  0.10566000000E+00 0. -1.
     999900   -1    0    0    0    0 -0.00000000000E+00 -0.00000000000E+00 -0.74505805969E-08  0.93827000000E+00  0.93827000000E+00 0. -1.
     999902    2    1    2    0    0 -0.46390588974E-02 -0.15359922975E-01 -0.14089922848E-01  0.10225764517E+01  0.10223534738E+01 0.  0.
     999903    2    3    3    0    0  0.28833245530E-02  0.12553670241E+00 -0.32232741014E-01  0.13115196963E+00  0.19852262641E-01 0.  0.
         14    1    1    2    0    0  0.46390588974E-02  0.15359922975E-01  0.14089922848E-01  0.21353548350E-01  0.00000000000E+00 0. -1.
     999901    1    3    3    0    0 -0.75223834504E-02 -0.14089662538E+00  0.18142818166E-01  0.89142448202E+00  0.88000000000E+00 0. -1.
        -11    1    4    4    0    0 -0.48938150299E-02  0.88092185855E-01 -0.28522997742E-01  0.92725428850E-01  0.51100000000E-03 0.  1.
         11    1    4    4    0    0  0.77771395829E-02  0.37444516554E-01 -0.37097432729E-02  0.38426540778E-01  0.51100000000E-03 0. -1.
</event>
<event>
 8    1  0.1094829E+005  0.1043930E+01  0.7957747E-01            NaN
         13   -1    0    0    0    0  0.00000000000E+00  0.00000000000E+00  0.74505805969E-08  0.10566000000E+00  0.10566000000E+00 0.  1.
     999900   -1    0    0    0    0 -0.00000000000E+00 -0.00000000000E+00 -0.74505805969E-08  0.93827000000E+00  0.93827000000E+00 0.  1.
     999902    2    1    2    0    0  0.66320440101E-02 -0.47542881120E-02  0.24218225250E-01  0.10183739890E+01  0.10180532755E+01 0.  0.
     999903    2    3    3    0    0  0.39115245513E-01 -0.38096944540E-01  0.11865822091E+00  0.13209761908E+00  0.19713649143E-01 0.  0.
         14    1    1    2    0    0 -0.66320440101E-02  0.47542881120E-02 -0.24218225250E-01  0.25556010985E-01  0.00000000000E+00 0. -1.
     999901    1    3    3    0    0 -0.32483201503E-01  0.33342656428E-01 -0.94439995664E-01  0.88627636993E+00  0.88000000000E+00 0.  1.
        -11    1    4    4    0    0  0.11725169927E-01 -0.20708566124E-01  0.66912416731E-01  0.71020116549E-01  0.51100000000E-03 0.  1.
         11    1    4    4    0    0  0.27390075586E-01 -0.17388378416E-01  0.51745804182E-01  0.61077502535E-01  0.51100000000E-03 0. -1.
</event>
<event>
 8    1  0.1094829E+005  0.1043930E+01  0.7957747E-01            NaN
         13   -1    0    0    0    0  0.00000000000E+00  0.00000000000E+00  0.74505805969E-08  0.10566000000E+00  0.10566000000E+00 0.  1.
     999900   -1    0    0    0    0 -0.00000000000E+00 -0.00000000000E+00 -0.74505805969E-08  0.93827000000E+00  0.93827000000E+00 0. -1.
     999902    2    1    2    0    0 -0.13423350841E-01 -0.31685155010E-02  0.20561937918E-01  0.10191707769E+01  0.10188699884E+01 0.  0.
     999903    2    3    3    0    0  0.43514265098E-01  0.26106905391E-01  0.11931993934E+00  0.13133515853E+00  0.20895314426E-01 0.  0.
         14    1    1    2    0    0  0.13423350841E-01  0.31685155010E-02 -0.20561937918E-01  0.24759223114E-01  0.00000000000E+00 0. -1.
     999901    1    3    3    0    0 -0.56937615938E-01 -0.29275420892E-01 -0.98758001425E-01  0.88783561836E+00  0.88000000000E+00 0. -1.
        -11    1    4    4    0    0  0.31042068957E-01  0.17497235848E-01  0.10330944938E+00  0.10928342399E+00  0.51100000000E-03 0. -1.
         11    1    4    4    0    0  0.12472196141E-01  0.86096695431E-02  0.16010489965E-01  0.22051734538E-01  0.51100000000E-03 0.  1.
</event>
<event>
 8    1  0.1094829E+005  0.1043930E+01  0.7957747E-01            NaN
         13   -1    0    0    0    0  0.00000000000E+00  0.00000000000E+00  0.74505805969E-08  0.10566000000E+00  0.10566000000E+00 0. -1.
     999900   -1    0    0    0    0 -0.00000000000E+00 -0.00000000000E+00 -0.74505805969E-08  0.93827000000E+00  0.93827000000E+00 0. -1.
     999902    2    1    2    0    0 -0.18448090811E-01 -0.79701708288E-02  0.11845593186E-01  0.10206024679E+01  0.10203358387E+01 0.  0.
     999903    2    3    3    0    0 -0.90361608366E-01 -0.17925658783E-01  0.94806328803E-01  0.13372415073E+00  0.20183136484E-01 0.  0.
         14    1    1    2    0    0  0.18448090811E-01  0.79701708288E-02 -0.11845593186E-01  0.23327532135E-01  0.00000000000E+00 0.  1.
     999901    1    3    3    0    0  0.71913517556E-01  0.99554879542E-02 -0.82960735617E-01  0.88687831713E+00  0.88000000000E+00 0. -1.
        -11    1    4    4    0    0 -0.64412107413E-01 -0.48132006791E-02  0.72310361774E-01  0.96959455562E-01  0.51100000000E-03 0.  1.
         11    1    4    4    0    0 -0.25949500954E-01 -0.13112458104E-01  0.22495967029E-01  0.36764695169E-01  0.51100000000E-03 0. -1.
</event>
<event>
 7    1  0.1094829E+005  0.1043930E+01  0.7957747E-01            NaN
         13   -1    0    0    0    0  0.00000000000E+00  0.00000000000E+00  0.74505805969E-08  0.10566000000E+00  0.10566000000E+00 0. -1.
     999900   -1    0    0    0    0 -0.00000000000E+00 -0.00000000000E+00 -0.74505805969E-08  0.93827000000E+00  0.93827000000E+00 0.  1.
     999903    2    1    2    0    0 -0.34061568642E-01 -0.56141194638E-01  0.48999096319E-01  0.84193015972E-01  0.19378552698E-01 0.  0.
         14    1    1    2    0    0  0.49738439273E-01  0.25058222968E-01  0.48260247283E-01  0.73694493332E-01  0.00000000000E+00 0.  1.
     999901    1    1    2    0    0 -0.15676870631E-01  0.31082971670E-01 -0.97259343602E-01  0.88604249070E+00  0.88000000000E+00 0.  1.
        -11    1    3    3    0    0 -0.29228963223E-01 -0.34218763232E-01  0.25664096925E-01  0.51808908888E-01  0.51100000000E-03 0.  1.
         11    1    3    3    0    0 -0.48326054187E-02 -0.21922431407E-01  0.23334999395E-01  0.32384107084E-01  0.51100000000E-03 0. -1.
</event>
<event>
 8    1  0.1094829E+005  0.1043930E+01  0.7957747E-01            NaN
         13   -1    0    0    0    0  0.00000000000E+00  0.00000000000E+00  0.74505805969E-08  0.10566000000E+00  0.10566000000E+00 0.  1.
     999900   -1    0    0    0    0 -0.00000000000E+00 -0.00000000000E+00 -0.74505805969E-08  0.93827000000E+00  0.93827000000E+00 0. -1.
     999902    2    1    2    0    0  0.17521346358E-01 -0.14496767041E-01  0.66045687213E-02  0.10202493294E+01  0.10199744702E+01 0.  0.
     999903    2    3    3    0    0 -0.86683712970E-01 -0.20068317933E-01  0.92427664054E-01  0.12993739514E+00  0.20592476631E-01 0.  0.
         14    1    1    2    0    0 -0.17521346358E-01  0.14496767041E-01 -0.66045687213E-02  0.23680670616E-01  0.00000000000E+00 0.  1.
     999901    1    3    3    0    0  0.10420505933E+00  0.55715508925E-02 -0.85823095332E-01  0.89031193425E+00  0.88000000000E+00 0. -1.
        -11    1    4    4    0    0 -0.72505561803E-01 -0.19956044534E-01  0.66530634972E-01  0.10040859882E+00  0.51100000000E-03 0.  1.
         11    1    4    4    0    0 -0.14178151166E-01 -0.11227339940E-03  0.25897029081E-01  0.29528796319E-01  0.51100000000E-03 0. -1.
</event>
<event>
 8    1  0.1094829E+005  0.1043930E+01  0.7957747E-01            NaN
         13   -1    0    0    0    0  0.00000000000E+00  0.00000000000E+00  0.74505805969E-08  0.10566000000E+00  0.10566000000E+00 0. -1.
     999900   -1    0    0    0    0 -0.00000000000E+00 -0.00000000000E+00 -0.74505805969E-08  0.93827000000E+00  0.93827000000E+00 0. -1.
     999902    2    1    2    0    0 -0.86282269196E-02 -0.15902629242E-01  0.13027104030E-01  0.10216354860E+01  0.10213921974E+01 0.  0.
     999903    2    3    3    0    0 -0.12886364401E-01  0.11964083534E+00  0.46690382653E-01  0.13061170466E+00  0.19985937407E-01 0.  0.
         14    1    1    2    0    0  0.86282269196E-02  0.15902629242E-01 -0.13027104030E-01  0.22294514033E-01  0.00000000000E+00 0.  1.
     999901    1    3    3    0    0  0.42581374815E-02 -0.13554346458E+00 -0.33663278623E-01  0.89102378131E+00  0.88000000000E+00 0.  1.
        -11    1    4    4    0    0 -0.75169331012E-02  0.11356515016E+00  0.44421675503E-01  0.12217648706E+00  0.51100000000E-03 0.  1.
         11    1    4    4    0    0 -0.53694312999E-02  0.60756851753E-02  0.22687071501E-02  0.84352176004E-02  0.51100000000E-03 0. -1.
</event>
<event>
 8    1  0.1094829E+005  0.1043930E+01  0.7957747E-01            NaN
         13   -1    0    0    0    0  0.00000000000E+00  0.00000000000E+00  0.74505805969E-08  0.10566000000E+00  0.10566000000E+00 0. -1.
     999900   -1    0    0    0    0 -0.00000000000E+00 -0.00000000000E+00 -0.74505805969E-08  0.93827000000E+00  0.93827000000E+00 0. -1.
     999902    2    1    2    0    0  0.17351600976E-01 -0.69959049833E-02 -0.18681415373E-01  0.10174910888E+01  0.10171475310E+01 0.  0.
     999903    2    3    3    0    0 -0.11497359783E+00 -0.66910292972E-02  0.45110653491E-01  0.12531426823E+00  0.20124529613E-01 0.  0.
         14    1    1    2    0    0 -0.17351600976E-01  0.69959049833E-02  0.18681415373E-01  0.26438911160E-01  0.00000000000E+00 0. -1.
     999901    1    3    3    0    0  0.13232519881E+00 -0.30487568608E-03 -0.63792068864E-01  0.89217682061E+00  0.88000000000E+00 0.  1.
        -11    1    4    4    0    0 -0.27289385364E-01 -0.16004216161E-03  0.20102504791E-01  0.33898495349E-01  0.51100000000E-03 0.  1.
         11    1    4    4    0    0 -0.87684212466E-01 -0.65309871356E-02  0.25008148700E-01  0.91415772879E-01  0.51100000000E-03 0. -1.
</event>
<event>
 8    1  0.1094829E+005  0.1043930E+01  0.7957747E-01            NaN
         13   -1    0    0    0    0  0.00000000000E+00  0.00000000000E+00  0.74505805969E-08  0.10566000000E+00  0.10566000000E+00 0. -1.
     999900   -1    0    0    0    0 -0.00000000000E+00 -0.00000000000E+00 -0.74505805969E-08  0.93827000000E+00  0.93827000000E+00 0.  1.
     999902    2    1    2    0    0 -0.14990491396E-01 -0.79849475685E-02  0.17545453747E-01  0.10195103938E+01  0.10192178991E+01 0.  0.
     999903    2    3    3    0    0  0.54556720636E-01  0.46709372772E-01  0.10637300064E+00  0.13062422759E+00  0.24274931485E-01 0.  0.
         14    1    1    2    0    0  0.14990491396E-01  0.79849475685E-02 -0.17545453747E-01  0.24419606204E-01  0.00000000000E+00 0.  1.
     999901    1    3    3    0    0 -0.69547212032E-01 -0.54694320341E-01 -0.88827546891E-01  0.88888616620E+00  0.88000000000E+00 0.  1.
        -11    1    4    4    0    0  0.52199192280E-01  0.36766941889E-01  0.80133522082E-01  0.10246075431E+00  0.51100000000E-03 0. -1.
         11    1    4    4    0    0  0.23575283560E-02  0.99424308833E-02  0.26239478556E-01  0.28163473289E-01  0.51100000000E-03 0.  1.
</event>
<event>
 8    1  0.1094829E+005  0.1043930E+01  0.7957747E-01            NaN
         13   -1    0    0    0    0  0.00000000000E+00  0.00000000000E+00  0.74505805969E-08  0.10566000000E+00  0.10566000000E+00 0.  1.
     999900   -1    0    0    0    0 -0.00000000000E+00 -0.00000000000E+00 -0.74505805969E-08  0.93827000000E+00  0.93827000000E+00 0.  1.
     999902    2    1    2    0    0  0.11356952169E-01  0.22635869723E-02 -0.21380856891E-01  0.10196144653E+01  0.10193244883E+01 0.  0.
     999903    2    3    3    0    0 -0.11165419553E-01 -0.43273413102E-02  0.12508602396E+00  0.12720018660E+00  0.19747951881E-01 0.  0.
         14    1    1    2    0    0 -0.11356952169E-01 -0.22635869723E-02  0.21380856891E-01  0.24315534746E-01  0.00000000000E+00 0.  1.
     999901    1    3    3    0    0  0.22522371722E-01  0.65909282825E-02 -0.14646688085E+00  0.89241427866E+00  0.88000000000E+00 0.  1.
        -11    1    4    4    0    0 -0.14774047337E-01 -0.17873325963E-03  0.56842211137E-01  0.58733316850E-01  0.51100000000E-03 0. -1.
         11    1    4    4    0    0  0.36086277841E-02 -0.41486080505E-02  0.68243812825E-01  0.68466869748E-01  0.51100000000E-03 0.  1.
</event>
<event>
 8    1  0.1094829E+005  0.1043930E+01  0.7957747E-01            NaN
         13   -1    0    0    0    0  0.00000000000E+00  0.00000000000E+00  0.74505805969E-08  0.10566000000E+00  0.10566000000E+00 0.  1.
     999900   -1    0    0    0    0 -0.00000000000E+00 -0.00000000000E+00 -0.74505805969E-08  0.93827000000E+00  0.93827000000E+00 0.  1.
     999902    2    1    2    0    0  0.36908479675E-02 -0.20929351345E-01  0.10206118252E-01  0.10203540598E+01  0.10200816548E+01 0.  0.
     999903    2    3    3    0    0 -0.24202495704E-01  0.11382844061E+00  0.51209839611E-01  0.12871567667E+00  0.20064970882E-01 0.  0.
         14    1    1    2    0    0 -0.36908479675E-02  0.20929351345E-01 -0.10206118252E-01  0.23575940198E-01  0.00000000000E+00 0. -1.
     999901    1    3    3    0    0  0.27893343671E-01 -0.13475779196E+00 -0.41003721359E-01  0.89163838313E+00  0.88000000000E+00 0.  1.
        -11    1    4    4    0    0 -0.76119030564E-02  0.80240158959E-01  0.33790135444E-01  0.87398275454E-01  0.51100000000E-03 0.  1.
         11    1    4    4    0    0 -0.16590592648E-01  0.33588281652E-01  0.17419704167E-01  0.41317401213E-01  0.51100000000E-03 0. -1.
</event>
<event>
 8    1  0.1094829E+005  0.1043930E+01  0.7957747E-01            NaN
         13   -1    0    0    0    0  0.00000000000E+00  0.00000000000E+00  0.74505805969E-08  0.10566000000E+00  0.10566000000E+00 0. -1.
     999900   -1    0    0    0    0 -0.00000000000E+00 -0.00000000000E+00 -0.74505805969E-08  0.93827000000E+00  0.93827000000E+00 0. -1.
     999902    2    1    2    0    0  0.18911318202E-01  0.98509531593E-02  0.10169310626E-01  0.10203059844E+01  0.10200324542E+01 0.  0.
     999903    2    3    3    0    0  0.11103890011E+00 -0.68169667884E-01 -0.50684235546E-02  0.13193280989E+00  0.20095682387E-01 0.  0.
         14    1    1    2    0    0 -0.18911318202E-01 -0.98509531593E-02 -0.10169310626E-01  0.23624015596E-01  0.00000000000E+00 0.  1.
     999901    1    3    3    0    0 -0.92127581908E-01  0.78020621043E-01  0.15237734180E-01  0.88837317452E+00  0.88000000000E+00 0. -1.
        -11    1    4    4    0    0  0.53584280541E-01 -0.37670075634E-01  0.66372480976E-02  0.65837860709E-01  0.51100000000E-03 0. -1.
         11    1    4    4    0    0  0.57454619569E-01 -0.30499592250E-01 -0.11705671652E-01  0.66094949180E-01  0.51100000000E-03 0.  1.
</event>
<event>
 8    1  0.1094829E+005  0.1043930E+01  0.7957747E-01            NaN
         13   -1    0    0    0    0  0.00000000000E+00  0.00000000000E+00  0.74505805969E-08  0.10566000000E+00  0.10566000000E+00 0.  1.
     999900   -1    0    0    0    0 -0.00000000000E+00 -0.00000000000E+00 -0.74505805969E-08  0.93827000000E+00  0.93827000000E+00 0.  1.
     999902    2    1    2    0    0  0.12110315358E-01 -0.70126004482E-04  0.29677061559E-01  0.10118770339E+01  0.10113692397E+01 0.  0.
     999903    2    3    3    0    0  0.21468163962E-01  0.32318999786E-01 -0.11168977201E+00  0.11995707869E+00  0.20240942259E-01 0.  0.
         14    1    1    2    0    0 -0.12110315358E-01  0.70126004482E-04 -0.29677061559E-01  0.32052966143E-01  0.00000000000E+00 0. -1.
     999901    1    3    3    0    0 -0.93578486036E-02 -0.32389125791E-01  0.14136683357E+00  0.89191995517E+00  0.88000000000E+00 0. -1.
        -11    1    4    4    0    0  0.21320586440E-01  0.22263782679E-01 -0.61823791838E-01  0.69084627693E-01  0.51100000000E-03 0.  1.
         11    1    4    4    0    0  0.14757752230E-03  0.10055217108E-01 -0.49865980175E-01  0.50872450993E-01  0.51100000000E-03 0. -1.
</event>
<event>
 8    1  0.1094829E+005  0.1043930E+01  0.7957747E-01            NaN
         13   -1    0    0    0    0  0.00000000000E+00  0.00000000000E+00  0.74505805969E-08  0.10566000000E+00  0.10566000000E+00 0.  1.
     999900   -1    0    0    0    0 -0.00000000000E+00 -0.00000000000E+00 -0.74505805969E-08  0.93827000000E+00  0.93827000000E+00 0. -1.
     999902    2    1    2    0    0 -0.43774873648E-02  0.58144357040E-02 -0.22188459045E-01  0.10205783882E+01  0.10203112019E+01 0.  0.
     999903    2    3    3    0    0  0.77124103270E-01  0.37312688959E-01 -0.99675152524E-01  0.13286287247E+00  0.19417589620E-01 0.  0.
         14    1    1    2    0    0  0.43774873648E-02 -0.58144357040E-02  0.22188459045E-01  0.23351611785E-01  0.00000000000E+00 0.  1.
     999901    1    3    3    0    0 -0.81501590635E-01 -0.31498253255E-01  0.77486693480E-01  0.88771551575E+00  0.88000000000E+00 0. -1.
        -11    1    4    4    0    0  0.37048506203E-01  0.82713142876E-02 -0.37125474270E-01  0.53099608405E-01  0.51100000000E-03 0.  1.
         11    1    4    4    0    0  0.40075597067E-01  0.29041374671E-01 -0.62549678254E-01  0.79763264062E-01  0.51100000000E-03 0. -1.
</event>
<event>
 8    1  0.1094829E+005  0.1043930E+01  0.7957747E-01            NaN
         13   -1    0    0    0    0  0.00000000000E+00  0.00000000000E+00  0.74505805969E-08  0.10566000000E+00  0.10566000000E+00 0.  1.
     999900   -1    0    0    0    0 -0.00000000000E+00 -0.00000000000E+00 -0.74505805969E-08  0.93827000000E+00  0.93827000000E+00 0.  1.
     999902    2    1    2    0    0  0.14799925683E-01 -0.18074917949E-01 -0.22299313924E-02  0.10204627238E+01  0.10201928531E+01 0.  0.
     999903    2    3    3    0    0 -0.62812656782E-01  0.10816796308E+00  0.18709055171E-01  0.12782650497E+00  0.18543153424E-01 0.  0.
         14    1    1    2    0    0 -0.14799925683E-01  0.18074917949E-01  0.22299313924E-02  0.23467276218E-01  0.00000000000E+00 0.  1.
     999901    1    3    3    0    0  0.77612582466E-01 -0.12624288103E+00 -0.20938986563E-01  0.89263621881E+00  0.88000000000E+00 0.  1.
        -11    1    4    4    0    0 -0.37528031920E-01  0.57848440396E-01  0.16287567023E-02  0.68976149540E-01  0.51100000000E-03 0. -1.
         11    1    4    4    0    0 -0.25284624863E-01  0.50319522688E-01  0.17080298469E-01  0.58850355435E-01  0.51100000000E-03 0.  1.
</event>
<event>
 8    1  0.1094829E+005  0.1043930E+01  0.7957747E-01            NaN
         13   -1    0    0    0    0  0.00000000000E+00  0.00000000000E+00  0.74505805969E-08  0.10566000000E+00  0.10566000000E+00 0. -1.
     999900   -1    0    0    0    0 -0.00000000000E+00 -0.00000000000E+00 -0.74505805969E-08  0.93827000000E+00  0.93827000000E+00 0.  1.
     999902    2    1    2    0    0  0.17059045159E-01  0.13723031760E-01 -0.94630003743E-02  0.10200787736E+01  0.10197998938E+01 0.  0.
     999903    2    3    3    0    0  0.16593550369E-01 -0.91489171090E-01 -0.87610056642E-01  0.13037276225E+00  0.25998476324E-01 0.  0.
         14    1    1    2    0    0 -0.17059045159E-01 -0.13723031760E-01  0.94630003743E-02  0.23851226353E-01  0.00000000000E+00 0. -1.
     999901    1    3    3    0    0  0.46549478989E-03  0.10521220285E+00  0.78147056268E-01  0.88970601140E+00  0.88000000000E+00 0.  1.
        -11    1    4    4    0    0  0.18676375328E-01 -0.73103649070E-01 -0.56850528888E-01  0.94473246259E-01  0.51100000000E-03 0. -1.
         11    1    4    4    0    0 -0.20828249592E-02 -0.18385522020E-01 -0.30759527753E-01  0.35899515991E-01  0.51100000000E-03 0.  1.
</event>
<event>
 8    1  0.1094829E+005  0.1043930E+01  0.7957747E-01            NaN
         13   -1    0    0    0    0  0.00000000000E+00  0.00000000000E+00  0.74505805969E-08  0.10566000000E+00  0.10566000000E+00 0. -1.
     999900   -1    0    0    0    0 -0.00000000000E+00 -0.00000000000E+00 -0.74505805969E-08  0.93827000000E+00  0.93827000000E+00 0.  1.
     999902    2    1    2    0    0 -0.36150690593E-02 -0.60194195656E-02 -0.22696758065E-01  0.10201719495E+01  0.10198952699E+01 0.  0.
     999903    2    3    3    0    0 -0.79423287527E-01 -0.10021648574E+00 -0.24901989096E-01  0.13190124961E+00  0.20650132508E-01 0.  0.
         14    1    1    2    0    0  0.36150690593E-02  0.60194195656E-02  0.22696758065E-01  0.23758050486E-01  0.00000000000E+00 0. -1.
     999901    1    3    3    0    0  0.75808218467E-01  0.94197066174E-01  0.22052310313E-02  0.88827069990E+00  0.88000000000E+00 0. -1.
        -11    1    4    4    0    0 -0.79056260806E-02 -0.22012155461E-01 -0.70371354667E-02  0.24429824157E-01  0.51100000000E-03 0. -1.
         11    1    4    4    0    0 -0.71517661446E-01 -0.78204330279E-01 -0.17864853630E-01  0.10747142545E+00  0.51100000000E-03 0.  1.
</event>
<event>
 8    1  0.1094829E+005  0.1043930E+01  0.7957747E-01            NaN
         13   -1    0    0    0    0  0.00000000000E+00  0.00000000000E+00  0.74505805969E-08  0.10566000000E+00  0.10566000000E+00 0. -1.
     999900   -1    0    0    0    0 -0.00000000000E+00 -0.00000000000E+00 -0.74505805969E-08  0.93827000000E+00  0.93827000000E+00 0. -1.
     999902    2    1    2    0    0 -0.19782987871E-01  0.13785906264E-02  0.54442456367E-02  0.10233652989E+01  0.10231586524E+01 0.  0.
     999903    2    3    3    0    0 -0.80347158634E-01 -0.94657817395E-01  0.49338413825E-01  0.13498603954E+00  0.19266123034E-01 0.  0.
         14    1    1    2    0    0  0.19782987871E-01 -0.13785906264E-02 -0.54442456367E-02  0.20564701110E-01  0.00000000000E+00 0.  1.
     999901    1    3    3    0    0  0.60564170763E-01  0.96036408021E-01 -0.43894168188E-01  0.88837925935E+00  0.88000000000E+00 0.  1.
        -11    1    4    4    0    0 -0.35507583457E-01 -0.56448110846E-01  0.27962908581E-01  0.72314335220E-01  0.51100000000E-03 0. -1.
         11    1    4    4    0    0 -0.44839575177E-01 -0.38209706549E-01  0.21375505244E-01  0.62671704317E-01  0.51100000000E-03 0.  1.
</event>
<event>
 8    1  0.1094829E+005  0.1043930E+01  0.7957747E-01            NaN
         13   -1    0    0    0    0  0.00000000000E+00  0.00000000000E+00  0.74505805969E-08  0.10566000000E+00  0.10566000000E+00 0.  1.
     999900   -1    0    0    0    0 -0.00000000000E+00 -0.00000000000E+00 -0.74505805969E-08  0.93827000000E+00  0.93827000000E+00 0. -1.
     999902    2    1    2    0    0 -0.17124550490E-01 -0.13253218357E-01  0.57108882499E-02  0.10215355304E+01  0.10212900310E+01 0.  0.
     999903    2    3    3    0    0  0.68249455521E-02 -0.11134377896E+00 -0.68913472113E-01  0.13262376218E+00  0.19899212566E-01 0.  0.
         14    1    1    2    0    0  0.17124550490E-01  0.13253218357E-01 -0.57108882499E-02  0.22394469650E-01  0.00000000000E+00 0. -1.
     999901    1    3    3    0    0 -0.23949496042E-01  0.98090560600E-01  0.74624360363E-01  0.88891176817E+00  0.88000000000E+00 0.  1.
        -11    1    4    4    0    0  0.13032784113E-01 -0.51431591598E-01 -0.31064114307E-01  0.61484163772E-01  0.51100000000E-03 0. -1.
         11    1    4    4    0    0 -0.62078385608E-02 -0.59912187359E-01 -0.37849357806E-01  0.71139598404E-01  0.51100000000E-03 0.  1.
</event>
<event>
 8    1  0.1094829E+005  0.1043930E+01  0.7957747E-01            NaN
         13   -1    0    0    0    0  0.00000000000E+00  0.00000000000E+00  0.74505805969E-08  0.10566000000E+00  0.10566000000E+00 0. -1.
     999900   -1    0    0    0    0 -0.00000000000E+00 -0.00000000000E+00 -0.74505805969E-08  0.93827000000E+00  0.93827000000E+00 0.  1.
     999902    2    1    2    0    0  0.11687452784E-02 -0.21830346111E-01  0.11648690832E-01  0.10191586057E+01  0.10188575178E+01 0.  0.
     999903    2    3    3    0    0  0.10426776918E+00 -0.22115435191E-03  0.76376325503E-01  0.13051580200E+00  0.18144279402E-01 0.  0.
         14    1    1    2    0    0 -0.11687452784E-02  0.21830346111E-01 -0.11648690832E-01  0.24771394287E-01  0.00000000000E+00 0.  1.
     999901    1    3    3    0    0 -0.10309902390E+00 -0.21609191759E-01 -0.64727634671E-01  0.88864280371E+00  0.88000000000E+00 0.  1.
        -11    1    4    4    0    0  0.29271402089E-01 -0.32888355569E-02  0.31189675695E-01  0.42903244756E-01  0.51100000000E-03 0. -1.
         11    1    4    4    0    0  0.74996367093E-01  0.30676812050E-02  0.45186649808E-01  0.87612557245E-01  0.51100000000E-03 0.  1.
</event>
<event>
 8    1  0.1094829E+005  0.1043930E+01  0.7957747E-01            NaN
         13   -1    0    0    0    0  0.00000000000E+00  0.00000000000E+00  0.74505805969E-08  0.10566000000E+00  0.10566000000E+00 0. -1.
     999900   -1    0    0    0    0 -0.00000000000E+00 -0.00000000000E+00 -0.74505805969E-08  0.93827000000E+00  0.93827000000E+00 0. -1.
     999902    2    1    2    0    0  0.21835669643E-01 -0.24431440804E-02 -0.57536531165E-02  0.10212172295E+01  0.10209646222E+01 0.  0.
     999903    2    3    3    0    0 -0.61945595828E-01  0.27633239302E-01  0.10832316550E+00  0.12940031448E+00  0.20240564413E-01 0.  0.
         14    1    1    2    0    0 -0.21835669643E-01  0.24431440804E-02  0.57536531165E-02  0.22712770547E-01  0.00000000000E+00 0.  1.
     999901    1    3    3    0    0  0.83781265470E-01 -0.30076383383E-01 -0.11407681862E+00  0.89181691497E+00  0.88000000000E+00 0. -1.
        -11    1    4    4    0    0 -0.25867054848E-01  0.13633335295E-01  0.65187805130E-01  0.71447067234E-01  0.51100000000E-03 0. -1.
         11    1    4    4    0    0 -0.36078540980E-01  0.13999904007E-01  0.43135360369E-01  0.57953247248E-01  0.51100000000E-03 0.  1.
</event>
<event>
 8    1  0.1094829E+005  0.1043930E+01  0.7957747E-01            NaN
         13   -1    0    0    0    0  0.00000000000E+00  0.00000000000E+00  0.74505805969E-08  0.10566000000E+00  0.10566000000E+00 0. -1.
     999900   -1    0    0    0    0 -0.00000000000E+00 -0.00000000000E+00 -0.74505805969E-08  0.93827000000E+00  0.93827000000E+00 0.  1.
     999902    2    1    2    0    0  0.18722323085E-01 -0.34552052251E-02  0.12918265282E-01  0.10209224925E+01  0.10206632110E+01 0.  0.
     999903    2    3    3    0    0 -0.11718084923E+00  0.21044788158E-01  0.47832632936E-01  0.12946922113E+00  0.17322930172E-01 0.  0.
         14    1    1    2    0    0 -0.18722323085E-01  0.34552052251E-02 -0.12918265282E-01  0.23007507530E-01  0.00000000000E+00 0.  1.
     999901    1    3    3    0    0  0.13590317232E+00 -0.24499993383E-01 -0.34914367654E-01  0.89145327134E+00  0.88000000000E+00 0.  1.
        -11    1    4    4    0    0 -0.96054270280E-01  0.20203637879E-01  0.45504099355E-01  0.10819193132E+00  0.51100000000E-03 0.  1.
         11    1    4    4    0    0 -0.21126578953E-01  0.84115027898E-03  0.23285335809E-02  0.21277289811E-01  0.51100000000E-03 0. -1.
</event>
<event>
 8    1  0.1094829E+005  0.1043930E+01  0.7957747E-01            NaN
         13   -1    0    0    0    0  0.00000000000E+00  0.00000000000E+00  0.74505805969E-08  0.10566000000E+00  0.10566000000E+00 0.  1.
     999900   -1    0    0    0    0 -0.00000000000E+00 -0.00000000000E+00 -0.74505805969E-08  0.93827000000E+00  0.93827000000E+00 0. -1.
     999902    2    1    2    0    0  0.32761159321E-02 -0.12995155169E-01  0.18062883779E-01  0.10214383401E+01  0.10211906815E+01 0.  0.
     999903    2    3    3    0    0 -0.12350750215E+00  0.37627363918E-01 -0.16617858784E-02  0.13069382690E+00  0.20203793029E-01 0.  0.
         14    1    1    2    0    0 -0.32761159321E-02  0.12995155169E-01 -0.18062883779E-01  0.22491659874E-01  0.00000000000E+00 0. -1.
     999901    1    3    3    0    0  0.12678361809E+00 -0.50622519087E-01  0.19724669658E-01  0.89074451323E+00  0.88000000000E+00 0.  1.
        -11    1    4    4    0    0 -0.89958915770E-01  0.32880314413E-01  0.59403288387E-02  0.95964942714E-01  0.51100000000E-03 0. -1.
         11    1    4    4    0    0 -0.33548586384E-01  0.47470495050E-02 -0.76021147171E-02  0.34728884183E-01  0.51100000000E-03 0.  1.
</event>
<event>
 8    1  0.1094829E+005  0.1043930E+01  0.7957747E-01            NaN
         13   -1    0    0    0    0  0.00000000000E+00  0.00000000000E+00  0.74505805969E-08  0.10566000000E+00  0.10566000000E+00 0.  1.
     999900   -1    0    0    0    0 -0.00000000000E+00 -0.00000000000E+00 -0.74505805969E-08  0.93827000000E+00  0.93827000000E+00 0. -1.
     999902    2    1    2    0    0 -0.12006309213E-01  0.15395902671E-01  0.20560678027E-01  0.10155763977E+01  0.10151805223E+01 0.  0.
     999903    2    3    3    0    0 -0.94915677074E-01  0.83824205003E-01  0.14613119127E-01  0.12901462928E+00  0.19893421516E-01 0.  0.
         14    1    1    2    0    0  0.12006309213E-01 -0.15395902671E-01 -0.20560678027E-01  0.28353602256E-01  0.00000000000E+00 0. -1.
     999901    1    3    3    0    0  0.82909367860E-01 -0.68428302332E-01  0.59475588999E-02  0.88656176846E+00  0.88000000000E+00 0. -1.
        -11    1    4    4    0    0 -0.46054187196E-01  0.53363348154E-01  0.10735744142E-01  0.71303242617E-01  0.51100000000E-03 0. -1.
         11    1    4    4    0    0 -0.48861489878E-01  0.30460856849E-01  0.38773749849E-02  0.57711386666E-01  0.51100000000E-03 0.  1.
</event>
<event>
 8    1  0.1094829E+005  0.1043930E+01  0.7957747E-01            NaN
         13   -1    0    0    0    0  0.00000000000E+00  0.00000000000E+00  0.74505805969E-08  0.10566000000E+00  0.10566000000E+00 0. -1.
     999900   -1    0    0    0    0 -0.00000000000E+00 -0.00000000000E+00 -0.74505805969E-08  0.93827000000E+00  0.93827000000E+00 0. -1.
     999902    2    1    2    0    0 -0.31308854970E-02 -0.22893022714E-01 -0.13328465601E-02  0.10207854669E+01  0.10205230522E+01 0.  0.
     999903    2    3    3    0    0 -0.35223731741E-01 -0.11357026611E+00  0.57476945309E-01  0.13359275678E+00  0.20112404121E-01 0.  0.
         14    1    1    2    0    0  0.31308854970E-02  0.22893022714E-01  0.13328465601E-02  0.23144533111E-01  0.00000000000E+00 0. -1.
     999901    1    3    3    0    0  0.32092846244E-01  0.90677243398E-01 -0.58809791869E-01  0.88719271011E+00  0.88000000000E+00 0. -1.
        -11    1    4    4    0    0 -0.33856881557E-01 -0.83189751829E-01  0.38340439385E-01  0.97657942081E-01  0.51100000000E-03 0.  1.
         11    1    4    4    0    0 -0.13668501836E-02 -0.30380514283E-01  0.19136505923E-01  0.35934814700E-01  0.51100000000E-03 0. -1.
</event>
<event>
 8    1  0.1094829E+005  0.1043930E+01  0.7957747E-01            NaN
         13   -1    0    0    0    0  0.00000000000E+00  0.00000000000E+00  0.74505805969E-08  0.10566000000E+00  0.10566000000E+00 0. -1.
     999900   -1    0    0    0    0 -0.00000000000E+00 -0.00000000000E+00 -0.74505805969E-08  0.93827000000E+00  0.93827000000E+00 0. -1.
     999902    2    1    2    0    0 -0.23357717134E-01  0.31564237387E-02 -0.17215696391E-02  0.10202971889E+01  0.10200234526E+01 0.  0.
     999903    2    3    3    0    0 -0.70825624402E-01  0.10907459209E+00 -0.18046686472E-01  0.13252561348E+00  0.17994988828E-01 0.  0.
         14    1    1    2    0    0  0.23357717134E-01 -0.31564237387E-02  0.17215696391E-02  0.23632811143E-01  0.00000000000E+00 0. -1.
     999901    1    3    3    0    0  0.47467907268E-01 -0.10591816836E+00  0.16325116833E-01  0.88777157538E+00  0.88000000000E+00 0. -1.
        -11    1    4    4    0    0 -0.39910596667E-01  0.48968124862E-01 -0.28100606583E-02  0.63236781550E-01  0.51100000000E-03 0.  1.
         11    1    4    4    0    0 -0.30915027735E-01  0.60106467232E-01 -0.15236625814E-01  0.69288831929E-01  0.51100000000E-03 0. -1.
</event>
<event>
 8    1  0.1094829E+005  0.1043930E+01  0.7957747E-01            NaN
         13   -1    0    0    0    0  0.00000000000E+00  0.00000000000E+00  0.74505805969E-08  0.10566000000E+00  0.10566000000E+00 0.  1.
     999900   -1    0    0    0    0 -0.00000000000E+00 -0.00000000000E+00 -0.74505805969E-08  0.93827000000E+00  0.93827000000E+00 0. -1.
     999902    2    1    2    0    0 -0.19964675255E-01 -0.13026325613E-01  0.17971662788E-02  0.10200238664E+01  0.10197436858E+01 0.  0.
     999903    2    3    3    0    0  0.32924960824E-01  0.11033332484E+00  0.52638033006E-01  0.12839630363E+00  0.21385804920E-01 0.  0.
         14    1    1    2    0    0  0.19964675255E-01  0.13026325613E-01 -0.17971662788E-02  0.23906133599E-01  0.00000000000E+00 0.  1.
     999901    1    3    3    0    0 -0.52889636078E-01 -0.12335965045E+00 -0.50840866728E-01  0.89162756277E+00  0.88000000000E+00 0. -1.
        -11    1    4    4    0    0  0.79728720839E-02  0.62791428910E-01  0.25600299482E-01  0.68278596122E-01  0.51100000000E-03 0. -1.
         11    1    4    4    0    0  0.24952088740E-01  0.47541895928E-01  0.27037733524E-01  0.60117707508E-01  0.51100000000E-03 0.  1.
</event>
<event>
 8    1  0.1094829E+005  0.1043930E+01  0.7957747E-01            NaN
         13   -1    0    0    0    0  0.00000000000E+00  0.00000000000E+00  0.74505805969E-08  0.10566000000E+00  0.10566000000E+00 0.  1.
     999900   -1    0    0    0    0 -0.00000000000E+00 -0.00000000000E+00 -0.74505805969E-08  0.93827000000E+00  0.93827000000E+00 0. -1.
     999902    2    1    2    0    0  0.15791308074E-01 -0.11874416028E-02 -0.14173829770E-01  0.10226774030E+01  0.10224565505E+01 0.  0.
     999903    2    3    3    0    0 -0.17342783098E-01 -0.51384861134E-01 -0.12120821394E+00  0.13415390399E+00  0.19096144934E-01 0.  0.
         14    1    1    2    0    0 -0.15791308074E-01  0.11874416028E-02  0.14173829770E-01  0.21252596984E-01  0.00000000000E+00 0.  1.
     999901    1    3    3    0    0  0.33134091171E-01  0.50197419531E-01  0.10703438417E+00  0.88852349902E+00  0.88000000000E+00 0.  1.
        -11    1    4    4    0    0 -0.12653764311E-01 -0.18918677899E-01 -0.67314092366E-01  0.71059709236E-01  0.51100000000E-03 0. -1.
         11    1    4    4    0    0 -0.46890187867E-02 -0.32466183235E-01 -0.53894121569E-01  0.63094194755E-01  0.51100000000E-03 0.  1.
</event>
<event>
 8    1  0.1094829E+005  0.1043930E+01  0.7957747E-01            NaN
         13   -1    0    0    0    0  0.00000000000E+00  0.00000000000E+00  0.74505805969E-08  0.10566000000E+00  0.10566000000E+00 0.  1.
     999900   -1    0    0    0    0 -0.00000000000E+00 -0.00000000000E+00 -0.74505805969E-08  0.93827000000E+00  0.93827000000E+00 0. -1.
     999902    2    1    2    0    0  0.20095214376E-01 -0.99851907462E-02 -0.74702554585E-02  0.10202799177E+01  0.10200057765E+01 0.  0.
     999903    2    3    3    0    0  0.58428607614E-01 -0.10590562725E+00 -0.51934792495E-01  0.13312306900E+00  0.19865164430E-01 0.  0.
         14    1    1    2    0    0 -0.20095214376E-01  0.99851907462E-02  0.74702554585E-02  0.23650082276E-01  0.00000000000E+00 0.  1.
     999901    1    3    3    0    0 -0.38333393238E-01  0.95920436508E-01  0.44464537036E-01  0.88715684872E+00  0.88000000000E+00 0. -1.
        -11    1    4    4    0    0  0.18463013477E-01 -0.53890024348E-01 -0.24942264038E-01  0.62188385147E-01  0.51100000000E-03 0.  1.
         11    1    4    4    0    0  0.39965594137E-01 -0.52015602906E-01 -0.26992528457E-01  0.70934683857E-01  0.51100000000E-03 0. -1.
</event>
<event>
 8    1  0.1094829E+005  0.1043930E+01  0.7957747E-01            NaN
         13   -1    0    0    0    0  0.00000000000E+00  0.00000000000E+00  0.74505805969E-08  0.10566000000E+00  0.10566000000E+00 0.  1.
     999900   -1    0    0    0    0 -0.00000000000E+00 -0.00000000000E+00 -0.74505805969E-08  0.93827000000E+00  0.93827000000E+00 0.  1.
     999902    2    1    2    0    0 -0.21121187271E-02 -0.11348753848E-01  0.20416378083E-01  0.10204761356E+01  0.10202065770E+01 0.  0.
     999903    2    3    3    0    0  0.61037400030E-01  0.60078432791E-01  0.98202392116E-01  0.13191529434E+00  0.20565815680E-01 0.  0.
         14    1    1    2    0    0  0.21121187271E-02  0.11348753848E-01 -0.20416378083E-01  0.23453864361E-01  0.00000000000E+00 0. -1.
     999901    1    3    3    0    0 -0.63149518757E-01 -0.71427186640E-01 -0.77786014033E-01  0.88856084130E+00  0.88000000000E+00 0.  1.
        -11    1    4    4    0    0  0.43773216947E-01  0.47741157416E-01  0.60417121805E-01  0.88576533922E-01  0.51100000000E-03 0.  1.
         11    1    4    4    0    0  0.17264183083E-01  0.12337275375E-01  0.37785270310E-01  0.43338760419E-01  0.51100000000E-03 0. -1.
</event>
<event>
 8    1  0.1094829E+005  0.1043930E+01  0.7957747E-01            NaN
         13   -1    0    0    0    0  0.00000000000E+00  0.00000000000E+00  0.74505805969E-08  0.10566000000E+00  0.10566000000E+00 0.  1.
     999900   -1    0    0    0    0 -0.00000000000E+00 -0.00000000000E+00 -0.74505805969E-08  0.93827000000E+00  0.93827000000E+00 0. -1.
     999902    2    1    2    0    0 -0.96559438737E-02 -0.22362141595E-01 -0.81229686758E-03  0.10195586550E+01  0.10192673293E+01 0.  0.
     999903    2    3    3    0    0  0.11030422471E-01 -0.12304090562E+00  0.43810680039E-01  0.13245361653E+00  0.19074857066E-01 0.  0.
         14    1    1    2    0    0  0.96559438737E-02  0.22362141595E-01  0.81229686758E-03  0.24371344957E-01  0.00000000000E+00 0.  1.
     999901    1    3    3    0    0 -0.20686366344E-01  0.10067876402E+00 -0.44622976907E-01  0.88710503851E+00  0.88000000000E+00 0. -1.
        -11    1    4    4    0    0 -0.33629316310E-02 -0.44078502431E-01  0.21411550752E-01  0.49121678639E-01  0.51100000000E-03 0.  1.
         11    1    4    4    0    0  0.14393354102E-01 -0.78962403189E-01  0.22399129287E-01  0.83331937896E-01  0.51100000000E-03 0. -1.
</event>
<event>
 8    1  0.1094829E+005  0.1043930E+01  0.7957747E-01            NaN
         13   -1    0    0    0    0  0.00000000000E+00  0.00000000000E+00  0.74505805969E-08  0.10566000000E+00  0.10566000000E+00 0.  1.
     999900   -1    0    0    0    0 -0.00000000000E+00 -0.00000000000E+00 -0.74505805969E-08  0.93827000000E+00  0.93827000000E+00 0.  1.
     999902    2    1    2    0    0 -0.15194921117E-01  0.31718602974E-02  0.17968413777E-01  0.10201853118E+01  0.10199089470E+01 0.  0.
     999903    2    3    3    0    0 -0.41111391071E-01  0.12064099452E+00 -0.22454390218E-01  0.13108201969E+00  0.20830271493E-01 0.  0.
         14    1    1    2    0    0  0.15194921117E-01 -0.31718602974E-02 -0.17968413777E-01  0.23744688231E-01  0.00000000000E+00 0. -1.
     999901    1    3    3    0    0  0.25916469954E-01 -0.11746913422E+00  0.40422803995E-01  0.88910329208E+00  0.88000000000E+00 0. -1.
        -11    1    4    4    0    0 -0.20514157011E-01  0.40698987163E-01 -0.19770807303E-03  0.45580021978E-01  0.51100000000E-03 0. -1.
         11    1    4    4    0    0 -0.20597234060E-01  0.79942007357E-01 -0.22256682145E-01  0.85501997709E-01  0.51100000000E-03 0.  1.
</event>
<event>
 8    1  0.1094829E+005  0.1043930E+01  0.7957747E-01            NaN
         13   -1    0    0    0    0  0.00000000000E+00  0.00000000000E+00  0.74505805969E-08  0.10566000000E+00  0.10566000000E+00 0.  1.
     999900   -1    0    0    0    0 -0.00000000000E+00 -0.00000000000E+00 -0.74505805969E-08  0.93827000000E+00  0.93827000000E+00 0. -1.
     999902    2    1    2    0    0  0.18008023028E-01 -0.14496117787E-01  0.38892666923E-02  0.10204874592E+01  0.10202181637E+01 0.  0.
     999903    2    3    3    0    0 -0.64112337230E-02 -0.12486128966E+00  0.39379753926E-01  0.13254807728E+00  0.19666779022E-01 0.  0.
         14    1    1    2    0    0 -0.18008023028E-01  0.14496117787E-01 -0.38892666923E-02  0.23442540811E-01  0.00000000000E+00 0. -1.
     999901    1    3    3    0    0  0.24419256751E-01  0.11036517188E+00 -0.35490487234E-01  0.88793938191E+00  0.88000000000E+00 0.  1.
        -11    1    4    4    0    0 -0.24832606675E-02 -0.40662547847E-01  0.33507445695E-02  0.40879065439E-01  0.51100000000E-03 0. -1.
         11    1    4    4    0    0 -0.39279730555E-02 -0.84198741815E-01  0.36029009356E-01  0.91669011840E-01  0.51100000000E-03 0.  1.
</event>
<event>
 8    1  0.1094829E+005  0.1043930E+01  0.7957747E-01            NaN
         13   -1    0    0    0    0  0.00000000000E+00  0.00000000000E+00  0.74505805969E-08  0.10566000000E+00  0.10566000000E+00 0.  1.
     999900   -1    0    0    0    0 -0.00000000000E+00 -0.00000000000E+00 -0.74505805969E-08  0.93827000000E+00  0.93827000000E+00 0.  1.
     999902    2    1    2    0    0  0.50290538119E-02  0.65459650240E-02 -0.22197285697E-01  0.10202475058E+01  0.10199726038E+01 0.  0.
     999903    2    3    3    0    0 -0.10405565217E+00 -0.59529121965E-01 -0.47990583782E-01  0.13067981053E+00  0.20070416988E-01 0.  0.
         14    1    1    2    0    0 -0.50290538119E-02 -0.65459650240E-02  0.22197285697E-01  0.23682494224E-01  0.00000000000E+00 0.  1.
     999901    1    3    3    0    0  0.10908470598E+00  0.66075086989E-01  0.25793298085E-01  0.88956769525E+00  0.88000000000E+00 0.  1.
        -11    1    4    4    0    0 -0.31294801623E-01 -0.14591123813E-01 -0.47795316045E-02  0.34862164965E-01  0.51100000000E-03 0.  1.
         11    1    4    4    0    0 -0.72760850547E-01 -0.44937998153E-01 -0.43211052178E-01  0.95817645565E-01  0.51100000000E-03 0. -1.
</event>
<event>
 8    1  0.1094829E+005  0.1043930E+01  0.7957747E-01            NaN
         13   -1    0    0    0    0  0.00000000000E+00  0.00000000000E+00  0.74505805969E-08  0.10566000000E+00  0.10566000000E+00 0. -1.
     999900   -1    0    0    0    0 -0.00000000000E+00 -0.00000000000E+00 -0.74505805969E-08  0.93827000000E+00  0.93827000000E+00 0. -1.
     999902    2    1    2    0    0  0.97047620071E-02 -0.88160993202E-03 -0.21034973179E-01  0.10207474691E+01  0.10204841821E+01 0.  0.
     999903    2    3    3    0    0  0.11759265176E+00 -0.29165669750E-01  0.45721011848E-01  0.13119918693E+00  0.21074811662E-01 0.  0.
         14    1    1    2    0    0 -0.97047620071E-02  0.88160993202E-03  0.21034973179E-01  0.23182530887E-01  0.00000000000E+00 0. -1.
     999901    1    3    3    0    0 -0.10788788975E+00  0.28284059818E-01 -0.66755985028E-01  0.88954828218E+00  0.88000000000E+00 0. -1.
        -11    1    4    4    0    0  0.80742416738E-01 -0.10403194554E-01  0.26684481059E-01  0.85673140295E-01  0.51100000000E-03 0.  1.
         11    1    4    4    0    0  0.36850235024E-01 -0.18762475196E-01  0.19036530790E-01  0.45526046636E-01  0.51100000000E-03 0. -1.
</event>
<event>
 8    1  0.1094829E+005  0.1043930E+01  0.7957747E-01            NaN
         13   -1    0    0    0    0  0.00000000000E+00  0.00000000000E+00  0.74505805969E-08  0.10566000000E+00  0.10566000000E+00 0. -1.
     999900   -1    0    0    0    0 -0.00000000000E+00 -0.00000000000E+00 -0.74505805969E-08  0.93827000000E+00  0.93827000000E+00 0.  1.
     999902    2    1    2    0    0  0.20201628043E-02  0.19114667836E-01 -0.14151729816E-01  0.10200611282E+01  0.10197818307E+01 0.  0.
     999903    2    3    3    0    0 -0.72741237159E-01  0.10819218533E-01  0.10436887546E+00  0.12893531482E+00  0.17975265481E-01 0.  0.
         14    1    1    2    0    0 -0.20201628043E-02 -0.19114667836E-01  0.14151729816E-01  0.23868871800E-01  0.00000000000E+00 0. -1.
     999901    1    3    3    0    0  0.74761399964E-01  0.82954493031E-02 -0.11852060527E+00  0.89112581338E+00  0.88000000000E+00 0.  1.
        -11    1    4    4    0    0 -0.37689491276E-01 -0.31051723144E-02  0.47986594788E-01  0.61099216428E-01  0.51100000000E-03 0. -1.
         11    1    4    4    0    0 -0.35051745884E-01  0.13924390847E-01  0.56382280671E-01  0.67836098389E-01  0.51100000000E-03 0.  1.
</event>
<event>
 8    1  0.1094829E+005  0.1043930E+01  0.7957747E-01            NaN
         13   -1    0    0    0    0  0.00000000000E+00  0.00000000000E+00  0.74505805969E-08  0.10566000000E+00  0.10566000000E+00 0. -1.
     999900   -1    0    0    0    0 -0.00000000000E+00 -0.00000000000E+00 -0.74505805969E-08  0.93827000000E+00  0.93827000000E+00 0.  1.
     999902    2    1    2    0    0  0.18486113043E-01  0.13477018070E-01  0.17723661467E-02  0.10209842450E+01  0.10207263692E+01 0.  0.
     999903    2    3    3    0    0 -0.11205411637E+00  0.56611037036E-01  0.26144423426E-01  0.12997622467E+00  0.21197962038E-01 0.  0.
         14    1    1    2    0    0 -0.18486113043E-01 -0.13477018070E-01 -0.17723661467E-02  0.22945755016E-01  0.00000000000E+00 0. -1.
     999901    1    3    3    0    0  0.13054022941E+00 -0.43134018966E-01 -0.24372057279E-01  0.89100802031E+00  0.88000000000E+00 0.  1.
        -11    1    4    4    0    0 -0.45749124105E-01  0.34474910622E-01  0.14683675893E-01  0.59138593807E-01  0.51100000000E-03 0. -1.
         11    1    4    4    0    0 -0.66304992261E-01  0.22136126414E-01  0.11460747533E-01  0.70837630864E-01  0.51100000000E-03 0.  1.
</event>
<event>
 8    1  0.1094829E+005  0.1043930E+01  0.7957747E-01            NaN
         13   -1    0    0    0    0  0.00000000000E+00  0.00000000000E+00  0.74505805969E-08  0.10566000000E+00  0.10566000000E+00 0.  1.
     999900   -1    0    0    0    0 -0.00000000000E+00 -0.00000000000E+00 -0.74505805969E-08  0.93827000000E+00  0.93827000000E+00 0.  1.
     999902    2    1    2    0    0  0.15994135477E-01 -0.16998006739E-01  0.44319799223E-02  0.10201731684E+01  0.10198965175E+01 0.  0.
     999903    2    3    3    0    0 -0.65741929143E-01  0.29462116275E-02 -0.10899386216E+00  0.12891339830E+00  0.20206950858E-01 0.  0.
         14    1    1    2    0    0 -0.15994135477E-01  0.16998006739E-01 -0.44319799223E-02  0.23756831623E-01  0.00000000000E+00 0. -1.
     999901    1    3    3    0    0  0.81736064620E-01 -0.19944218367E-01  0.11342584208E+00  0.89125977008E+00  0.88000000000E+00 0. -1.
        -11    1    4    4    0    0 -0.43893433041E-01  0.42738857771E-02 -0.88701075449E-01  0.99060796840E-01  0.51100000000E-03 0. -1.
         11    1    4    4    0    0 -0.21848496101E-01 -0.13276741496E-02 -0.20292786708E-01  0.29852601460E-01  0.51100000000E-03 0.  1.
</event>
<event>
 8    1  0.1094829E+005  0.1043930E+01  0.7957747E-01            NaN
         13   -1    0    0    0    0  0.00000000000E+00  0.00000000000E+00  0.74505805969E-08  0.10566000000E+00  0.10566000000E+00 0. -1.
     999900   -1    0    0    0    0 -0.00000000000E+00 -0.00000000000E+00 -0.74505805969E-08  0.93827000000E+00  0.93827000000E+00 0.  1.
     999902    2    1    2    0    0 -0.23441757914E-01 -0.53812734074E-02 -0.13335356759E-01  0.10164289844E+01  0.10160568756E+01 0.  0.
     999903    2    3    3    0    0  0.91367951464E-01 -0.25916520708E-01  0.77574962669E-01  0.12409067867E+00  0.18996133782E-01 0.  0.
         14    1    1    2    0    0  0.23441757914E-01  0.53812734074E-02  0.13335356759E-01  0.27501015572E-01  0.00000000000E+00 0. -1.
     999901    1    3    3    0    0 -0.11480970938E+00  0.20535247300E-01 -0.90910319429E-01  0.89233830576E+00  0.88000000000E+00 0.  1.
        -11    1    4    4    0    0  0.58492872235E-01 -0.25746758125E-01  0.49079298396E-01  0.80581327293E-01  0.51100000000E-03 0.  1.
         11    1    4    4    0    0  0.32875079229E-01 -0.16976258294E-03  0.28495664273E-01  0.43509351375E-01  0.51100000000E-03 0. -1.
</event>
<event>
 8    1  0.1094829E+005  0.1043930E+01  0.7957747E-01            NaN
         13   -1    0    0    0    0  0.00000000000E+00  0.00000000000E+00  0.74505805969E-08  0.10566000000E+00  0.10566000000E+00 0.  1.
     999900   -1    0    0    0    0 -0.00000000000E+00 -0.00000000000E+00 -0.74505805969E-08  0.93827000000E+00  0.93827000000E+00 0.  1.
     999902    2    1    2    0    0  0.10687365512E-02  0.10964780986E-01  0.20340129070E-01  0.10207979990E+01  0.10205358716E+01 0.  0.
     999903    2    3    3    0    0 -0.30700431632E-01  0.11959842180E+00 -0.40301694830E-01  0.13147917047E+00  0.20402123968E-01 0.  0.
         14    1    1    2    0    0 -0.10687365512E-02 -0.10964780986E-01 -0.20340129070E-01  0.23132001005E-01  0.00000000000E+00 0.  1.
     999901    1    3    3    0    0  0.31769168183E-01 -0.10863364081E+00  0.60641823900E-01  0.88931882853E+00  0.88000000000E+00 0.  1.
        -11    1    4    4    0    0 -0.24561367941E-01  0.72622466482E-01 -0.33306138965E-01  0.83587340231E-01  0.51100000000E-03 0.  1.
         11    1    4    4    0    0 -0.61390636911E-02  0.46975955316E-01 -0.69955558650E-02  0.47891830240E-01  0.51100000000E-03 0. -1.
</event>
<event>
 8    1  0.1094829E+005  0.1043930E+01  0.7957747E-01            NaN
         13   -1    0    0    0    0  0.00000000000E+00  0.00000000000E+00  0.74505805969E-08  0.10566000000E+00  0.10566000000E+00 0. -1.
     999900   -1    0    0    0    0 -0.00000000000E+00 -0.00000000000E+00 -0.74505805969E-08  0.93827000000E+00  0.93827000000E+00 0.  1.
     999902    2    1    2    0    0  0.14869928586E-01  0.41012049202E-02 -0.19182998393E-01  0.10193145153E+01  0.10190172516E+01 0.  0.
     999903    2    3    3    0    0  0.97682012733E-01  0.41435399499E-01 -0.76482182264E-01  0.13278483177E+00  0.22882731517E-01 0.  0.
         14    1    1    2    0    0 -0.14869928586E-01 -0.41012049202E-02  0.19182998393E-01  0.24615484665E-01  0.00000000000E+00 0. -1.
     999901    1    3    3    0    0 -0.82812084147E-01 -0.37334194579E-01  0.57299183871E-01  0.88652968356E+00  0.88000000000E+00 0.  1.
        -11    1    4    4    0    0  0.69901605357E-01  0.40079655262E-01 -0.53756695282E-01  0.96864114130E-01  0.51100000000E-03 0.  1.
         11    1    4    4    0    0  0.27780407376E-01  0.13557442372E-02 -0.22725486981E-01  0.35920717642E-01  0.51100000000E-03 0. -1.
</event>
<event>
 8    1  0.1094829E+005  0.1043930E+01  0.7957747E-01            NaN
         13   -1    0    0    0    0  0.00000000000E+00  0.00000000000E+00  0.74505805969E-08  0.10566000000E+00  0.10566000000E+00 0.  1.
     999900   -1    0    0    0    0 -0.00000000000E+00 -0.00000000000E+00 -0.74505805969E-08  0.93827000000E+00  0.93827000000E+00 0.  1.
     999902    2    1    2    0    0  0.48736450681E-02 -0.66818983803E-03 -0.22721423007E-01  0.10206821623E+01  0.10204173727E+01 0.  0.
     999903    2    3    3    0    0 -0.68583250579E-01  0.10904337560E+00 -0.22769926642E-02  0.13059760574E+00  0.21364220279E-01 0.  0.
         14    1    1    2    0    0 -0.48736450681E-02  0.66818983803E-03  0.22721423007E-01  0.23247837693E-01  0.00000000000E+00 0.  1.
     999901    1    3    3    0    0  0.73456895647E-01 -0.10971156543E+00 -0.20444430343E-01  0.89008455657E+00  0.88000000000E+00 0.  1.
        -11    1    4    4    0    0 -0.34057903058E-01  0.73246099810E-01 -0.33747481353E-02  0.80849130756E-01  0.51100000000E-03 0.  1.
         11    1    4    4    0    0 -0.34525347521E-01  0.35797275786E-01  0.10977554711E-02  0.49748474983E-01  0.51100000000E-03 0. -1.
</event>
<event>
 8    1  0.1094829E+005  0.1043930E+01  0.7957747E-01            NaN
         13   -1    0    0    0    0  0.00000000000E+00  0.00000000000E+00  0.74505805969E-08  0.10566000000E+00  0.10566000000E+00 0. -1.
     999900   -1    0    0    0    0 -0.00000000000E+00 -0.00000000000E+00 -0.74505805969E-08  0.93827000000E+00  0.93827000000E+00 0.  1.
     999902    2    1    2    0    0 -0.26776510867E-02 -0.19465468169E-01  0.14061256758E-01  0.10197681870E+01  0.10194819086E+01 0.  0.
     999903    2    3    3    0    0  0.44963032479E-01  0.10352393305E+00  0.59092891029E-01  0.12880024389E+00  0.18938163902E-01 0.  0.
         14    1    1    2    0    0  0.26776510867E-02  0.19465468169E-01 -0.14061256758E-01  0.24161813011E-01  0.00000000000E+00 0.  1.
     999901    1    3    3    0    0 -0.47640683566E-01 -0.12298940122E+00 -0.45031634272E-01  0.89096794310E+00  0.88000000000E+00 0.  1.
        -11    1    4    4    0    0  0.20853573119E-01  0.64846908531E-01  0.42525726879E-01  0.80303746024E-01  0.51100000000E-03 0. -1.
         11    1    4    4    0    0  0.24109459360E-01  0.38677024520E-01  0.16567164150E-01  0.48496497867E-01  0.51100000000E-03 0.  1.
</event>
<event>
 8    1  0.1094829E+005  0.1043930E+01  0.7957747E-01            NaN
         13   -1    0    0    0    0  0.00000000000E+00  0.00000000000E+00  0.74505805969E-08  0.10566000000E+00  0.10566000000E+00 0. -1.
     999900   -1    0    0    0    0 -0.00000000000E+00 -0.00000000000E+00 -0.74505805969E-08  0.93827000000E+00  0.93827000000E+00 0. -1.
     999902    2    1    2    0    0 -0.18144390433E-01  0.16457595872E-01  0.33738314654E-03  0.10194313226E+01  0.10191369076E+01 0.  0.
     999903    2    3    3    0    0  0.43653158610E-01  0.12172869882E+00 -0.44438533784E-02  0.13099235319E+00  0.20390546507E-01 0.  0.
         14    1    1    2    0    0  0.18144390433E-01 -0.16457595872E-01 -0.33738314654E-03  0.24498677382E-01  0.00000000000E+00 0. -1.
     999901    1    3    3    0    0 -0.61797549043E-01 -0.10527110295E+00  0.47812365250E-02  0.88843896943E+00  0.88000000000E+00 0.  1.
        -11    1    4    4    0    0  0.18127444674E-01  0.79058147894E-01 -0.52703461250E-03  0.81113093181E-01  0.51100000000E-03 0. -1.
         11    1    4    4    0    0  0.25525713936E-01  0.42670550927E-01 -0.39168187659E-02  0.49879260005E-01  0.51100000000E-03 0.  1.
</event>
<event>
 8    1  0.1094829E+005  0.1043930E+01  0.7957747E-01            NaN
         13   -1    0    0    0    0  0.00000000000E+00  0.00000000000E+00  0.74505805969E-08  0.10566000000E+00  0.10566000000E+00 0. -1.
     999900   -1    0    0    0    0 -0.00000000000E+00 -0.00000000000E+00 -0.74505805969E-08  0.93827000000E+00  0.93827000000E+00 0. -1.
     999902    2    1    2    0    0  0.21322257843E-03 -0.20644833561E-01 -0.11219942180E-01  0.10204323040E+01  0.10201617250E+01 0.  0.
     999903    2    3    3    0    0  0.41444206357E-01  0.47670220896E-01  0.11004503885E+00  0.12853985736E+00  0.20555100409E-01 0.  0.
         14    1    1    2    0    0 -0.21322257843E-03  0.20644833561E-01  0.11219942180E-01  0.23497696039E-01  0.00000000000E+00 0. -1.
     999901    1    3    3    0    0 -0.41230983779E-01 -0.68315054456E-01 -0.12126498103E+00  0.89189244661E+00  0.88000000000E+00 0. -1.
        -11    1    4    4    0    0  0.18972720240E-01  0.36823937533E-01  0.66428373226E-01  0.78287651511E-01  0.51100000000E-03 0.  1.
         11    1    4    4    0    0  0.22471486117E-01  0.10846283363E-01  0.43616665623E-01  0.50252205844E-01  0.51100000000E-03 0. -1.
</event>
<event>
 8    1  0.1094829E+005  0.1043930E+01  0.7957747E-01            NaN
         13   -1    0    0    0    0  0.00000000000E+00  0.00000000000E+00  0.74505805969E-08  0.10566000000E+00  0.10566000000E+00 0. -1.
     999900   -1    0    0    0    0 -0.00000000000E+00 -0.00000000000E+00 -0.74505805969E-08  0.93827000000E+00  0.93827000000E+00 0. -1.
     999902    2    1    2    0    0  0.17688734759E-01  0.94010535409E-02 -0.93624204940E-02  0.10218183275E+01  0.10215790563E+01 0.  0.
     999903    2    3    3    0    0  0.13691719890E-01  0.12605836396E+00 -0.38336030224E-01  0.13363795486E+00  0.17643056687E-01 0.  0.
         14    1    1    2    0    0 -0.17688734759E-01 -0.94010535409E-02  0.93624204940E-02  0.22111672541E-01  0.00000000000E+00 0.  1.
     999901    1    3    3    0    0  0.39970148686E-02 -0.11665731042E+00  0.28973609730E-01  0.88818037259E+00  0.88000000000E+00 0.  1.
        -11    1    4    4    0    0  0.21604118223E-02  0.24521047529E-01 -0.14950623902E-01  0.28805059056E-01  0.51100000000E-03 0. -1.
         11    1    4    4    0    0  0.11531308068E-01  0.10153731643E+00 -0.23385406321E-01  0.10483289581E+00  0.51100000000E-03 0.  1.
</event>
<event>
 8    1  0.1094829E+005  0.1043930E+01  0.7957747E-01            NaN
         13   -1    0    0    0    0  0.00000000000E+00  0.00000000000E+00  0.74505805969E-08  0.10566000000E+00  0.10566000000E+00 0.  1.
     999900   -1    0    0    0    0 -0.00000000000E+00 -0.00000000000E+00 -0.74505805969E-08  0.93827000000E+00  0.93827000000E+00 0. -1.
     999902    2    1    2    0    0 -0.12278608166E-02 -0.64840524051E-02  0.22648385096E-01  0.10203397494E+01  0.10200670097E+01 0.  0.
     999903    2    3    3    0    0 -0.44925999641E-02  0.10094465658E+00  0.83108432071E-01  0.13174141304E+00  0.15452549318E-01 0.  0.
         14    1    1    2    0    0  0.12278608166E-02  0.64840524051E-02 -0.22648385096E-01  0.23590250639E-01  0.00000000000E+00 0. -1.
     999901    1    3    3    0    0  0.32647391475E-02 -0.10742870899E+00 -0.60460046975E-01  0.88859833632E+00  0.88000000000E+00 0. -1.
        -11    1    4    4    0    0 -0.59640999706E-02  0.69633733984E-01  0.48647763746E-01  0.85154526805E-01  0.51100000000E-03 0.  1.
         11    1    4    4    0    0  0.14715000065E-02  0.31310922600E-01  0.34460668325E-01  0.46586886232E-01  0.51100000000E-03 0. -1.
</event>
<event>
 8    1  0.1094829E+005  0.1043930E+01  0.7957747E-01            NaN
         13   -1    0    0    0    0  0.00000000000E+00  0.00000000000E+00  0.74505805969E-08  0.10566000000E+00  0.10566000000E+00 0.  1.
     999900   -1    0    0    0    0 -0.00000000000E+00 -0.00000000000E+00 -0.74505805969E-08  0.93827000000E+00  0.93827000000E+00 0.  1.
     999902    2    1    2    0    0  0.19530889407E-01  0.50877797552E-02 -0.11174618245E-01  0.10208602528E+01  0.10205995505E+01 0.  0.
     999903    2    3    3    0    0 -0.78669348468E-01  0.85843262099E-01  0.52909454705E-01  0.12941675875E+00  0.19782694741E-01 0.  0.
         14    1    1    2    0    0 -0.19530889407E-01 -0.50877797552E-02  0.11174618245E-01  0.23069747220E-01  0.00000000000E+00 0.  1.
     999901    1    3    3    0    0  0.98200237875E-01 -0.80755482344E-01 -0.64084072950E-01  0.89144349403E+00  0.88000000000E+00 0. -1.
        -11    1    4    4    0    0 -0.30096671812E-01  0.26114302805E-01  0.92443780087E-02  0.40908264580E-01  0.51100000000E-03 0. -1.
         11    1    4    4    0    0 -0.48572676656E-01  0.59728959294E-01  0.43665076697E-01  0.88508494168E-01  0.51100000000E-03 0.  1.
</event>
<event>
 8    1  0.1094829E+005  0.1043930E+01  0.7957747E-01            NaN
         13   -1    0    0    0    0  0.00000000000E+00  0.00000000000E+00  0.74505805969E-08  0.10566000000E+00  0.10566000000E+00 0.  1.
     999900   -1    0    0    0    0 -0.00000000000E+00 -0.00000000000E+00 -0.74505805969E-08  0.93827000000E+00  0.93827000000E+00 0. -1.
     999902    2    1    2    0    0 -0.10731651794E-01 -0.21192056016E-01 -0.82211383815E-03  0.10201613766E+01  0.10198844478E+01 0.  0.
     999903    2    3    3    0    0  0.50172843423E-01 -0.89033676774E-01  0.80592684313E-01  0.13171317189E+00  0.20220511071E-01 0.  0.
         14    1    1    2    0    0  0.10731651794E-01  0.21192056016E-01  0.82211383815E-03  0.23768623426E-01  0.00000000000E+00 0.  1.
     999901    1    3    3    0    0 -0.60904495217E-01  0.67841620758E-01 -0.81414798151E-01  0.88844820468E+00  0.88000000000E+00 0. -1.
        -11    1    4    4    0    0  0.20475830477E-01 -0.56630944463E-01  0.46956927312E-01  0.76364505158E-01  0.51100000000E-03 0. -1.
         11    1    4    4    0    0  0.29697012946E-01 -0.32402732311E-01  0.33635757002E-01  0.55348666733E-01  0.51100000000E-03 0.  1.
</event>
<event>
 8    1  0.1094829E+005  0.1043930E+01  0.7957747E-01            NaN
         13   -1    0    0    0    0  0.00000000000E+00  0.00000000000E+00  0.74505805969E-08  0.10566000000E+00  0.10566000000E+00 0. -1.
     999900   -1    0    0    0    0 -0.00000000000E+00 -0.00000000000E+00 -0.74505805969E-08  0.93827000000E+00  0.93827000000E+00 0. -1.
     999902    2    1    2    0    0  0.14322360673E-01 -0.20246870906E-01  0.12575182899E-02  0.10190976189E+01  0.10187950283E+01 0.  0.
     999903    2    3    3    0    0  0.67546502754E-02 -0.69687281551E-01 -0.10858586457E+00  0.13085936644E+00  0.20768757545E-01 0.  0.
         14    1    1    2    0    0 -0.14322360673E-01  0.20246870906E-01 -0.12575182899E-02  0.24832381057E-01  0.00000000000E+00 0. -1.
     999901    1    3    3    0    0  0.75677103976E-02  0.49440410645E-01  0.10984338286E+00  0.88823825250E+00  0.88000000000E+00 0.  1.
        -11    1    4    4    0    0  0.79077047013E-02 -0.47007377651E-01 -0.88569789120E-01  0.10058376615E+00  0.51100000000E-03 0. -1.
         11    1    4    4    0    0 -0.11530544260E-02 -0.22679903900E-01 -0.20016075455E-01  0.30275600292E-01  0.51100000000E-03 0.  1.
</event>
<event>
 8    1  0.1094829E+005  0.1043930E+01  0.7957747E-01            NaN
         13   -1    0    0    0    0  0.00000000000E+00  0.00000000000E+00  0.74505805969E-08  0.10566000000E+00  0.10566000000E+00 0. -1.
     999900   -1    0    0    0    0 -0.00000000000E+00 -0.00000000000E+00 -0.74505805969E-08  0.93827000000E+00  0.93827000000E+00 0. -1.
     999902    2    1    2    0    0 -0.62413641668E-02 -0.20590309047E-01 -0.68474540536E-02  0.10213511807E+01  0.10211015773E+01 0.  0.
     999903    2    3    3    0    0  0.94411355746E-01 -0.69425623990E-01  0.57165274581E-01  0.13196179049E+00  0.20313152679E-01 0.  0.
         14    1    1    2    0    0  0.62413641668E-02  0.20590309047E-01  0.68474540536E-02  0.22578819286E-01  0.00000000000E+00 0. -1.
     999901    1    3    3    0    0 -0.10065271991E+00  0.48835314943E-01 -0.64012728635E-01  0.88938939022E+00  0.88000000000E+00 0. -1.
        -11    1    4    4    0    0  0.37379674555E-01 -0.39914466798E-01  0.27853711514E-01  0.61371777681E-01  0.51100000000E-03 0. -1.
         11    1    4    4    0    0  0.57031681191E-01 -0.29511157193E-01  0.29311563068E-01  0.70590012812E-01  0.51100000000E-03 0.  1.
</event>
<event>
 8    1  0.1094829E+005  0.1043930E+01  0.7957747E-01            NaN
         13   -1    0    0    0    0  0.00000000000E+00  0.00000000000E+00  0.74505805969E-08  0.10566000000E+00  0.10566000000E+00 0.  1.
     999900   -1    0    0    0    0 -0.00000000000E+00 -0.00000000000E+00 -0.74505805969E-08  0.93827000000E+00  0.93827000000E+00 0. -1.
     999902    2    1    2    0    0 -0.22999302510E-01 -0.94908261964E-02 -0.98589170382E-02  0.10171673031E+01  0.10168151654E+01 0.  0.
     999903    2    3    3    0    0 -0.31318337459E-01  0.28648897227E-01  0.11807913832E+00  0.12705944965E+00  0.19995581167E-01 0.  0.
         14    1    1    2    0    0  0.22999302510E-01  0.94908261964E-02  0.98589170382E-02  0.26762696856E-01  0.00000000000E+00 0.  1.
     999901    1    3    3    0    0  0.83190349493E-02 -0.38139723423E-01 -0.12793805535E+00  0.89010785349E+00  0.88000000000E+00 0. -1.
        -11    1    4    4    0    0 -0.34515035183E-02  0.64354730719E-02  0.46771984955E-01  0.47341397190E-01  0.51100000000E-03 0. -1.
         11    1    4    4    0    0 -0.27866833941E-01  0.22213424155E-01  0.71307153361E-01  0.79718052460E-01  0.51100000000E-03 0.  1.
</event>
<event>
 8    1  0.1094829E+005  0.1043930E+01  0.7957747E-01            NaN
         13   -1    0    0    0    0  0.00000000000E+00  0.00000000000E+00  0.74505805969E-08  0.10566000000E+00  0.10566000000E+00 0.  1.
     999900   -1    0    0    0    0 -0.00000000000E+00 -0.00000000000E+00 -0.74505805969E-08  0.93827000000E+00  0.93827000000E+00 0.  1.
     999902    2    1    2    0    0 -0.18371788866E-01 -0.15053467375E-01 -0.14440375339E-02  0.10201347326E+01  0.10198571753E+01 0.  0.
     999903    2    3    3    0    0 -0.11684436640E+00  0.20855604546E-01 -0.55761853834E-01  0.13225144346E+00  0.17131776154E-01 0.  0.
         14    1    1    2    0    0  0.18371788866E-01  0.15053467375E-01  0.14440375339E-02  0.23795267398E-01  0.00000000000E+00 0. -1.
     999901    1    3    3    0    0  0.98472577532E-01 -0.35909071921E-01  0.54317816301E-01  0.88788328914E+00  0.88000000000E+00 0. -1.
        -11    1    4    4    0    0 -0.46859937151E-01  0.16719466351E-01 -0.21147835877E-01  0.54063724883E-01  0.51100000000E-03 0.  1.
         11    1    4    4    0    0 -0.69984429246E-01  0.41361381949E-02 -0.34614017957E-01  0.78187718576E-01  0.51100000000E-03 0. -1.
</event>
<event>
 8    1  0.1094829E+005  0.1043930E+01  0.7957747E-01            NaN
         13   -1    0    0    0    0  0.00000000000E+00  0.00000000000E+00  0.74505805969E-08  0.10566000000E+00  0.10566000000E+00 0.  1.
     999900   -1    0    0    0    0 -0.00000000000E+00 -0.00000000000E+00 -0.74505805969E-08  0.93827000000E+00  0.93827000000E+00 0.  1.
     999902    2    1    2    0    0 -0.89293871636E-02  0.23066546421E-01 -0.65772068845E-02  0.10183358763E+01  0.10180141933E+01 0.  0.
     999903    2    3    3    0    0 -0.23371286509E-01 -0.10358596486E+00  0.65161411936E-01  0.12626196874E+00  0.20489167753E-01 0.  0.
         14    1    1    2    0    0  0.89293871636E-02 -0.23066546421E-01  0.65772068845E-02  0.25594123726E-01  0.00000000000E+00 0.  1.
     999901    1    3    3    0    0  0.14441899346E-01  0.12665251128E+00 -0.71738618820E-01  0.89207390753E+00  0.88000000000E+00 0. -1.
        -11    1    4    4    0    0 -0.20441550567E-01 -0.77463394951E-01  0.38751516452E-01  0.88996492601E-01  0.51100000000E-03 0.  1.
         11    1    4    4    0    0 -0.29297359419E-02 -0.26122569912E-01  0.26409895484E-01  0.37265476140E-01  0.51100000000E-03 0. -1.
</event>
<event>
 8    1  0.1094829E+005  0.1043930E+01  0.7957747E-01            NaN
         13   -1    0    0    0    0  0.00000000000E+00  0.00000000000E+00  0.74505805969E-08  0.10566000000E+00  0.10566000000E+00 0. -1.
     999900   -1    0    0    0    0 -0.00000000000E+00 -0.00000000000E+00 -0.74505805969E-08  0.93827000000E+00  0.93827000000E+00 0.  1.
     999902    2    1    2    0    0 -0.58061443272E-02 -0.22903876552E-01  0.36989118717E-02  0.10200138795E+01  0.10197334620E+01 0.  0.
     999903    2    3    3    0    0  0.21692192567E-01  0.11406726064E+00 -0.48522880160E-01  0.12746451582E+00  0.20269231043E-01 0.  0.
         14    1    1    2    0    0  0.58061443272E-02  0.22903876552E-01 -0.36989118717E-02  0.23916120548E-01  0.00000000000E+00 0. -1.
     999901    1    3    3    0    0 -0.27498336894E-01 -0.13697113719E+00  0.52221792032E-01  0.89254936363E+00  0.88000000000E+00 0. -1.
        -11    1    4    4    0    0  0.13466688771E-01  0.51621147649E-01 -0.12107067933E-01  0.54707739909E-01  0.51100000000E-03 0. -1.
         11    1    4    4    0    0  0.82255037957E-02  0.62446112987E-01 -0.36415812227E-01  0.72756775912E-01  0.51100000000E-03 0.  1.
</event>
<event>
 8    1  0.1094829E+005  0.1043930E+01  0.7957747E-01            NaN
         13   -1    0    0    0    0  0.00000000000E+00  0.00000000000E+00  0.74505805969E-08  0.10566000000E+00  0.10566000000E+00 0. -1.
     999900   -1    0    0    0    0 -0.00000000000E+00 -0.00000000000E+00 -0.74505805969E-08  0.93827000000E+00  0.93827000000E+00 0.  1.
     999902    2    1    2    0    0  0.23110324501E-01 -0.15932019454E-02 -0.55198590032E-02  0.10201162595E+01  0.10198382660E+01 0.  0.
     999903    2    3    3    0    0  0.73304095090E-02 -0.11121362783E+00 -0.66103089718E-01  0.13110783926E+00  0.19935925562E-01 0.  0.
         14    1    1    2    0    0 -0.23110324501E-01  0.15932019454E-02  0.55198590032E-02  0.23813740454E-01  0.00000000000E+00 0.  1.
     999901    1    3    3    0    0  0.15779914992E-01  0.10962042588E+00  0.60583230715E-01  0.88900842028E+00  0.88000000000E+00 0.  1.
        -11    1    4    4    0    0  0.26450691633E-02 -0.85176760968E-02 -0.89644193141E-04  0.89339998908E-02  0.51100000000E-03 0. -1.
         11    1    4    4    0    0  0.46853403456E-02 -0.10269595173E+00 -0.66013445525E-01  0.12217383937E+00  0.51100000000E-03 0.  1.
</event>
<event>
 8    1  0.1094829E+005  0.1043930E+01  0.7957747E-01            NaN
         13   -1    0    0    0    0  0.00000000000E+00  0.00000000000E+00  0.74505805969E-08  0.10566000000E+00  0.10566000000E+00 0. -1.
     999900   -1    0    0    0    0 -0.00000000000E+00 -0.00000000000E+00 -0.74505805969E-08  0.93827000000E+00  0.93827000000E+00 0. -1.
     999902    2    1    2    0    0 -0.10584692444E-01  0.16499471972E-01 -0.11998455806E-01  0.10209467184E+01  0.10206879889E+01 0.  0.
     999903    2    3    3    0    0 -0.94891440234E-01  0.35172499882E-01  0.82168520644E-01  0.13172024046E+00  0.18896184366E-01 0.  0.
         14    1    1    2    0    0  0.10584692444E-01 -0.16499471972E-01  0.11998455806E-01  0.22983281559E-01  0.00000000000E+00 0.  1.
     999901    1    3    3    0    0  0.84306747791E-01 -0.18673027910E-01 -0.94166976450E-01  0.88922647798E+00  0.88000000000E+00 0. -1.
        -11    1    4    4    0    0 -0.47236980027E-01  0.75195615121E-02  0.37032294319E-01  0.60494033019E-01  0.51100000000E-03 0. -1.
         11    1    4    4    0    0 -0.47654460208E-01  0.27652938370E-01  0.45136226325E-01  0.71226207438E-01  0.51100000000E-03 0.  1.
</event>
<event>
 8    1  0.1094829E+005  0.1043930E+01  0.7957747E-01            NaN
         13   -1    0    0    0    0  0.00000000000E+00  0.00000000000E+00  0.74505805969E-08  0.10566000000E+00  0.10566000000E+00 0.  1.
     999900   -1    0    0    0    0 -0.00000000000E+00 -0.00000000000E+00 -0.74505805969E-08  0.93827000000E+00  0.93827000000E+00 0. -1.
     999902    2    1    2    0    0 -0.17331231614E-01  0.82156075573E-02  0.10365898297E-01  0.10221281734E+01  0.10218956322E+01 0.  0.
     999903    2    3    3    0    0  0.10934430160E-01  0.77206131512E-01 -0.10432251467E+00  0.13155977504E+00  0.18559063444E-01 0.  0.
         14    1    1    2    0    0  0.17331231614E-01 -0.82156075573E-02 -0.10365898297E-01  0.21801826628E-01  0.00000000000E+00 0. -1.
     999901    1    3    3    0    0 -0.28265661775E-01 -0.68990523955E-01  0.11468841297E+00  0.89056839833E+00  0.88000000000E+00 0.  1.
        -11    1    4    4    0    0  0.12038023299E-01  0.24485023482E-01 -0.39188391392E-01  0.47753759232E-01  0.51100000000E-03 0. -1.
         11    1    4    4    0    0 -0.11035931392E-02  0.52721108030E-01 -0.65134123281E-01  0.83806015813E-01  0.51100000000E-03 0.  1.
</event>
<event>
 8    1  0.1094829E+005  0.1043930E+01  0.7957747E-01            NaN
         13   -1    0    0    0    0  0.00000000000E+00  0.00000000000E+00  0.74505805969E-08  0.10566000000E+00  0.10566000000E+00 0. -1.
     999900   -1    0    0    0    0 -0.00000000000E+00 -0.00000000000E+00 -0.74505805969E-08  0.93827000000E+00  0.93827000000E+00 0. -1.
     999902    2    1    2    0    0  0.81420026955E-02  0.15526584078E-01 -0.15196063268E-01  0.10207289793E+01  0.10204652674E+01 0.  0.
     999903    2    3    3    0    0  0.67890817740E-01  0.11152246271E+00 -0.19040535338E-01  0.13348610978E+00  0.20238001252E-01 0.  0.
         14    1    1    2    0    0 -0.81420026955E-02 -0.15526584078E-01  0.15196063268E-01  0.23201020665E-01  0.00000000000E+00 0. -1.
     999901    1    3    3    0    0 -0.59748815045E-01 -0.95995878635E-01  0.38444720699E-02  0.88724286956E+00  0.88000000000E+00 0.  1.
        -11    1    4    4    0    0  0.37938100575E-01  0.80220415623E-01 -0.14574403920E-01  0.89929355210E-01  0.51100000000E-03 0.  1.
         11    1    4    4    0    0  0.29952717165E-01  0.31302047091E-01 -0.44661314176E-02  0.43556754568E-01  0.51100000000E-03 0. -1.
</event>
<event>
 8    1  0.1094829E+005  0.1043930E+01  0.7957747E-01            NaN
         13   -1    0    0    0    0  0.00000000000E+00  0.00000000000E+00  0.74505805969E-08  0.10566000000E+00  0.10566000000E+00 0.  1.
     999900   -1    0    0    0    0 -0.00000000000E+00 -0.00000000000E+00 -0.74505805969E-08  0.93827000000E+00  0.93827000000E+00 0.  1.
     999902    2    1    2    0    0 -0.12267943641E-01 -0.19017160235E-01 -0.11638793738E-01  0.10184816927E+01  0.10181637108E+01 0.  0.
     999903    2    3    3    0    0  0.58040516389E-01 -0.50163719585E-01  0.10056093993E+00  0.12803115059E+00  0.19858816081E-01 0.  0.
         14    1    1    2    0    0  0.12267943641E-01  0.19017160235E-01  0.11638793738E-01  0.25448307297E-01  0.00000000000E+00 0. -1.
     999901    1    3    3    0    0 -0.70308460030E-01  0.31146559350E-01 -0.11219973367E+00  0.89045054211E+00  0.88000000000E+00 0.  1.
        -11    1    4    4    0    0  0.18273802371E-01 -0.54595026097E-02  0.19521544035E-01  0.27296333534E-01  0.51100000000E-03 0.  1.
         11    1    4    4    0    0  0.39766714018E-01 -0.44704216975E-01  0.81039395898E-01  0.10073481706E+00  0.51100000000E-03 0. -1.
</event>
<event>
 8    1  0.1094829E+005  0.1043930E+01  0.7957747E-01            NaN
         13   -1    0    0    0    0  0.00000000000E+00  0.00000000000E+00  0.74505805969E-08  0.10566000000E+00  0.10566000000E+00 0.  1.
     999900   -1    0    0    0    0 -0.00000000000E+00 -0.00000000000E+00 -0.74505805969E-08  0.93827000000E+00  0.93827000000E+00 0.  1.
     999902    2    1    2    0    0  0.11926865777E-01 -0.88050467053E-02 -0.20108501801E-01  0.10189473897E+01  0.10186410811E+01 0.  0.
     999903    2    3    3    0    0  0.12179481193E+00 -0.38257766545E-01 -0.23854252895E-01  0.13161855605E+00  0.21372552570E-01 0.  0.
         14    1    1    2    0    0 -0.11926865777E-01  0.88050467053E-02  0.20108501801E-01  0.24982610341E-01  0.00000000000E+00 0.  1.
     999901    1    3    3    0    0 -0.10986794615E+00  0.29452719840E-01  0.37457510937E-02  0.88732883361E+00  0.88000000000E+00 0. -1.
        -11    1    4    4    0    0  0.10633043623E-01  0.22488254862E-02  0.21332850200E-03  0.10882346383E-01  0.51100000000E-03 0. -1.
         11    1    4    4    0    0  0.11116176830E+00 -0.40506592032E-01 -0.24067581397E-01  0.12073620967E+00  0.51100000000E-03 0.  1.
</event>
<event>
 8    1  0.1094829E+005  0.1043930E+01  0.7957747E-01            NaN
         13   -1    0    0    0    0  0.00000000000E+00  0.00000000000E+00  0.74505805969E-08  0.10566000000E+00  0.10566000000E+00 0.  1.
     999900   -1    0    0    0    0 -0.00000000000E+00 -0.00000000000E+00 -0.74505805969E-08  0.93827000000E+00  0.93827000000E+00 0. -1.
     999902    2    1    2    0    0 -0.51057029481E-02  0.16652929680E-01  0.16184184759E-01  0.10201536229E+01  0.10198765113E+01 0.  0.
     999903    2    3    3    0    0 -0.12909481060E+00 -0.86822583685E-02  0.35501334000E-02  0.13101089547E+00  0.20258320508E-01 0.  0.
         14    1    1    2    0    0  0.51057029481E-02 -0.16652929680E-01 -0.16184184759E-01  0.23776377055E-01  0.00000000000E+00 0. -1.
     999901    1    3    3    0    0  0.12398910765E+00  0.25335188049E-01  0.12634051359E-01  0.88914272748E+00  0.88000000000E+00 0. -1.
        -11    1    4    4    0    0 -0.12672572421E+00 -0.11437088584E-01  0.40594718035E-02  0.12730654580E+00  0.51100000000E-03 0. -1.
         11    1    4    4    0    0 -0.23690863917E-02  0.27548302150E-02 -0.50933840356E-03  0.37043496668E-02  0.51100000000E-03 0.  1.
</event>
<event>
 8    1  0.1094829E+005  0.1043930E+01  0.7957747E-01            NaN
         13   -1    0    0    0    0  0.00000000000E+00  0.00000000000E+00  0.74505805969E-08  0.10566000000E+00  0.10566000000E+00 0.  1.
     999900   -1    0    0    0    0 -0.00000000000E+00 -0.00000000000E+00 -0.74505805969E-08  0.93827000000E+00  0.93827000000E+00 0.  1.
     999902    2    1    2    0    0 -0.15384873141E-01  0.56600458395E-02 -0.18118181756E-01  0.10194964380E+01  0.10192036049E+01 0.  0.
     999903    2    3    3    0    0  0.12213956598E+00 -0.27693065091E-01 -0.19549862525E-01  0.12818984035E+00  0.19116971802E-01 0.  0.
         14    1    1    2    0    0  0.15384873141E-01 -0.56600458395E-02  0.18118181756E-01  0.24433561971E-01  0.00000000000E+00 0.  1.
     999901    1    3    3    0    0 -0.13752443912E+00  0.33353110931E-01  0.14316807690E-02  0.89130659768E+00  0.88000000000E+00 0.  1.
        -11    1    4    4    0    0  0.65408113651E-01 -0.21555551025E-01 -0.17637965188E-01  0.71093052040E-01  0.51100000000E-03 0.  1.
         11    1    4    4    0    0  0.56731452330E-01 -0.61375140665E-02 -0.19118973365E-02  0.57096788305E-01  0.51100000000E-03 0. -1.
</event>
<event>
 8    1  0.1470708E+005  0.1043930E+01  0.7957747E-01            NaN
         13   -1    0    0    0    0  0.00000000000E+00  0.00000000000E+00  0.74505805969E-08  0.10566000000E+00  0.10566000000E+00 0.  1.
     999900   -1    0    0    0    0 -0.00000000000E+00 -0.00000000000E+00 -0.74505805969E-08  0.93827000000E+00  0.93827000000E+00 0. -1.
     999902    2    1    2    0    0 -0.67563257686E-02  0.24103782966E-03  0.29864257589E-01  0.10133100732E+01  0.10128473352E+01 0.  0.
     999903    2    3    3    0    0  0.10175759340E+00  0.41552552141E-02  0.71679732547E-01  0.12565072090E+00  0.16680696747E-01 0.  0.
         14    1    1    2    0    0  0.67563257686E-02 -0.24103782966E-03 -0.29864257589E-01  0.30619926821E-01  0.00000000000E+00 0. -1.
     999901    1    3    3    0    0 -0.10851391917E+00 -0.39142173845E-02 -0.41815474957E-01  0.88765935228E+00  0.88000000000E+00 0. -1.
        -11    1    4    4    0    0  0.52995641307E-01  0.14421765976E-02  0.47361103996E-01  0.71091160938E-01  0.51100000000E-03 0.  1.
         11    1    4    4    0    0  0.48761952090E-01  0.27130786166E-02  0.24318628551E-01  0.54559559958E-01  0.51100000000E-03 0. -1.
</event>
<event>
 8    1  0.1094829E+005  0.1043930E+01  0.7957747E-01            NaN
         13   -1    0    0    0    0  0.00000000000E+00  0.00000000000E+00  0.74505805969E-08  0.10566000000E+00  0.10566000000E+00 0.  1.
     999900   -1    0    0    0    0 -0.00000000000E+00 -0.00000000000E+00 -0.74505805969E-08  0.93827000000E+00  0.93827000000E+00 0. -1.
     999902    2    1    2    0    0 -0.57452912581E-02 -0.18361213508E-01  0.13322593481E-01  0.10205284182E+01  0.10202600739E+01 0.  0.
     999903    2    3    3    0    0  0.96828488942E-01  0.81908322536E-01 -0.75857914896E-02  0.12866939303E+00  0.20335655818E-01 0.  0.
         14    1    1    2    0    0  0.57452912581E-02  0.18361213508E-01 -0.13322593481E-01  0.23401581788E-01  0.00000000000E+00 0. -1.
     999901    1    3    3    0    0 -0.10257378020E+00 -0.10026953604E+00  0.20908384970E-01  0.89185902519E+00  0.88000000000E+00 0. -1.
        -11    1    4    4    0    0  0.54732523341E-01  0.37904828890E-01 -0.11837434190E-01  0.67622563791E-01  0.51100000000E-03 0. -1.
         11    1    4    4    0    0  0.42095965602E-01  0.44003493646E-01  0.42516427009E-02  0.61046829235E-01  0.51100000000E-03 0.  1.
</event>
<event>
 8    1  0.1094829E+005  0.1043930E+01  0.7957747E-01            NaN
         13   -1    0    0    0    0  0.00000000000E+00  0.00000000000E+00  0.74505805969E-08  0.10566000000E+00  0.10566000000E+00 0.  1.
     999900   -1    0    0    0    0 -0.00000000000E+00 -0.00000000000E+00 -0.74505805969E-08  0.93827000000E+00  0.93827000000E+00 0. -1.
     999902    2    1    2    0    0  0.18860186082E-02  0.15234288405E-01  0.15032684215E-01  0.10224446049E+01  0.10222188356E+01 0.  0.
     999903    2    3    3    0    0 -0.12865580969E+00  0.68634314370E-02 -0.21106235799E-01  0.13204174002E+00  0.19751553372E-01 0.  0.
         14    1    1    2    0    0 -0.18860186082E-02 -0.15234288405E-01 -0.15032684215E-01  0.21485395135E-01  0.00000000000E+00 0. -1.
     999901    1    3    3    0    0  0.13054182830E+00  0.83708569676E-02  0.36138920015E-01  0.89040286484E+00  0.88000000000E+00 0.  1.
        -11    1    4    4    0    0 -0.23655451258E-01  0.75250988638E-02  0.51961902239E-03  0.24834222599E-01  0.51100000000E-03 0. -1.
         11    1    4    4    0    0 -0.10500035843E+00 -0.66166742682E-03 -0.21625854822E-01  0.10720751742E+00  0.51100000000E-03 0.  1.
</event>
<event>
 8    1  0.1094829E+005  0.1043930E+01  0.7957747E-01            NaN
         13   -1    0    0    0    0  0.00000000000E+00  0.00000000000E+00  0.74505805969E-08  0.10566000000E+00  0.10566000000E+00 0.  1.
     999900   -1    0    0    0    0 -0.00000000000E+00 -0.00000000000E+00 -0.74505805969E-08  0.93827000000E+00  0.93827000000E+00 0.  1.
     999902    2    1    2    0    0  0.26620396159E-02  0.87148307919E-02 -0.22219376184E-01  0.10199146839E+01  0.10196319076E+01 0.  0.
     999903    2    3    3    0    0 -0.13319431895E-01  0.11915731417E+00 -0.52406778837E-01  0.13235385281E+00  0.19879615121E-01 0.  0.
         14    1    1    2    0    0 -0.26620396159E-02 -0.87148307919E-02  0.22219376184E-01  0.24015316127E-01  0.00000000000E+00 0.  1.
     999901    1    3    3    0    0  0.15981471511E-01 -0.11044248338E+00  0.30187402653E-01  0.88756083107E+00  0.88000000000E+00 0. -1.
        -11    1    4    4    0    0 -0.11920507626E-01  0.73425937394E-01 -0.22601316915E-01  0.77746687592E-01  0.51100000000E-03 0.  1.
         11    1    4    4    0    0 -0.13989242691E-02  0.45731376779E-01 -0.29805461923E-01  0.54607165213E-01  0.51100000000E-03 0. -1.
</event>
<event>
 8    1  0.1094829E+005  0.1043930E+01  0.7957747E-01            NaN
         13   -1    0    0    0    0  0.00000000000E+00  0.00000000000E+00  0.74505805969E-08  0.10566000000E+00  0.10566000000E+00 0. -1.
     999900   -1    0    0    0    0 -0.00000000000E+00 -0.00000000000E+00 -0.74505805969E-08  0.93827000000E+00  0.93827000000E+00 0.  1.
     999902    2    1    2    0    0  0.24993975912E-02 -0.22050216689E-01  0.15051135216E-01  0.10171159045E+01  0.10167623948E+01 0.  0.
     999903    2    3    3    0    0  0.13294890595E-01 -0.12005570871E+00 -0.42885328880E-01  0.12971619020E+00  0.19925141315E-01 0.  0.
         14    1    1    2    0    0 -0.24993975912E-02  0.22050216689E-01 -0.15051135216E-01  0.26814095465E-01  0.00000000000E+00 0.  1.
     999901    1    3    3    0    0 -0.10795493003E-01  0.98005492020E-01  0.57936464095E-01  0.88739971434E+00  0.88000000000E+00 0.  1.
        -11    1    4    4    0    0  0.13921791034E-01 -0.44936338792E-01 -0.12486662080E-01  0.48675133904E-01  0.51100000000E-03 0.  1.
         11    1    4    4    0    0 -0.62690043904E-03 -0.75119369917E-01 -0.30398666800E-01  0.81041056293E-01  0.51100000000E-03 0. -1.
</event>
<event>
 8    1  0.1094829E+005  0.1043930E+01  0.7957747E-01            NaN
         13   -1    0    0    0    0  0.00000000000E+00  0.00000000000E+00  0.74505805969E-08  0.10566000000E+00  0.10566000000E+00 0. -1.
     999900   -1    0    0    0    0 -0.00000000000E+00 -0.00000000000E+00 -0.74505805969E-08  0.93827000000E+00  0.93827000000E+00 0. -1.
     999902    2    1    2    0    0 -0.90644321569E-02 -0.13336746807E-02  0.21780893109E-01  0.10203005708E+01  0.10200269138E+01 0.  0.
     999903    2    3    3    0    0  0.10656997222E+00 -0.18967623539E-01 -0.65953870270E-01  0.12823574116E+00  0.19430969726E-01 0.  0.
         14    1    1    2    0    0  0.90644321569E-02  0.13336746807E-02 -0.21780893109E-01  0.23629429174E-01  0.00000000000E+00 0.  1.
     999901    1    3    3    0    0 -0.11563440438E+00  0.17633948859E-01  0.87734763379E-01  0.89206482967E+00  0.88000000000E+00 0.  1.
        -11    1    4    4    0    0  0.74847837231E-01 -0.21371392342E-01 -0.51155635560E-01  0.93145559848E-01  0.51100000000E-03 0. -1.
         11    1    4    4    0    0  0.31722134989E-01  0.24037688023E-02 -0.14798234710E-01  0.35090181309E-01  0.51100000000E-03 0.  1.
</event>
<event>
 8    1  0.1094829E+005  0.1043930E+01  0.7957747E-01            NaN
         13   -1    0    0    0    0  0.00000000000E+00  0.00000000000E+00  0.74505805969E-08  0.10566000000E+00  0.10566000000E+00 0. -1.
     999900   -1    0    0    0    0 -0.00000000000E+00 -0.00000000000E+00 -0.74505805969E-08  0.93827000000E+00  0.93827000000E+00 0. -1.
     999902    2    1    2    0    0  0.14623707739E-01  0.14300403739E-01 -0.11445853977E-01  0.10204915285E+01  0.10202223276E+01 0.  0.
     999903    2    3    3    0    0  0.91516359071E-01 -0.60841532700E-01 -0.69466921022E-01  0.13205175297E+00  0.23131715618E-01 0.  0.
         14    1    1    2    0    0 -0.14623707739E-01 -0.14300403739E-01  0.11445853977E-01  0.23438471546E-01  0.00000000000E+00 0. -1.
     999901    1    3    3    0    0 -0.76892651332E-01  0.75141936438E-01  0.58021067045E-01  0.88843977548E+00  0.88000000000E+00 0.  1.
        -11    1    4    4    0    0  0.31295223928E-01 -0.34418689787E-01 -0.27672364334E-01  0.54130011233E-01  0.51100000000E-03 0.  1.
         11    1    4    4    0    0  0.60221135144E-01 -0.26422842913E-01 -0.41794556689E-01  0.77921741737E-01  0.51100000000E-03 0. -1.
</event>
<event>
 7    1  0.1376714E+005  0.1043930E+01  0.7957747E-01            NaN
         13   -1    0    0    0    0  0.00000000000E+00  0.00000000000E+00  0.74505805969E-08  0.10566000000E+00  0.10566000000E+00 0. -1.
     999900   -1    0    0    0    0 -0.00000000000E+00 -0.00000000000E+00 -0.74505805969E-08  0.93827000000E+00  0.93827000000E+00 0. -1.
     999903    2    1    2    0    0  0.89715077106E-01 -0.12771380862E-01  0.40695311377E-01  0.10127517337E+00  0.19714186381E-01 0.  0.
         14    1    1    2    0    0 -0.35191335962E-01  0.47643414359E-01  0.17593683815E-02  0.59257239521E-01  0.00000000000E+00 0. -1.
     999901    1    1    2    0    0 -0.54523741144E-01 -0.34872033497E-01 -0.42454679759E-01  0.88339758710E+00  0.88000000000E+00 0. -1.
        -11    1    3    3    0    0  0.58432558023E-01  0.30958170766E-03  0.21218299629E-01  0.62168617791E-01  0.51100000000E-03 0. -1.
         11    1    3    3    0    0  0.31282519083E-01 -0.13080962570E-01  0.19477011748E-01  0.39106555583E-01  0.51100000000E-03 0.  1.
</event>
<event>
 8    1  0.1094829E+005  0.1043930E+01  0.7957747E-01            NaN
         13   -1    0    0    0    0  0.00000000000E+00  0.00000000000E+00  0.74505805969E-08  0.10566000000E+00  0.10566000000E+00 0.  1.
     999900   -1    0    0    0    0 -0.00000000000E+00 -0.00000000000E+00 -0.74505805969E-08  0.93827000000E+00  0.93827000000E+00 0. -1.
     999902    2    1    2    0    0 -0.22190573330E-02 -0.21004654545E-01 -0.91825237929E-02  0.10208987501E+01  0.10206389271E+01 0.  0.
     999903    2    3    3    0    0 -0.48396204462E-01 -0.83541728298E-01  0.88090692617E-01  0.13213258675E+00  0.19432894348E-01 0.  0.
         14    1    1    2    0    0  0.22190573330E-02  0.21004654545E-01  0.91825237929E-02  0.23031249883E-01  0.00000000000E+00 0. -1.
     999901    1    3    3    0    0  0.46177147129E-01  0.62537073753E-01 -0.97273216410E-01  0.88876616336E+00  0.88000000000E+00 0. -1.
        -11    1    4    4    0    0 -0.37581380700E-01 -0.76622963770E-01  0.79803851663E-01  0.11684329084E+00  0.51100000000E-03 0.  1.
         11    1    4    4    0    0 -0.10814823763E-01 -0.69187645282E-02  0.82868409540E-02  0.15289295916E-01  0.51100000000E-03 0. -1.
</event>
<event>
 8    1  0.1094829E+005  0.1043930E+01  0.7957747E-01            NaN
         13   -1    0    0    0    0  0.00000000000E+00  0.00000000000E+00  0.74505805969E-08  0.10566000000E+00  0.10566000000E+00 0. -1.
     999900   -1    0    0    0    0 -0.00000000000E+00 -0.00000000000E+00 -0.74505805969E-08  0.93827000000E+00  0.93827000000E+00 0.  1.
     999902    2    1    2    0    0  0.22919001170E-01 -0.12192159590E-02 -0.56681425484E-02  0.10202890410E+01  0.10200151137E+01 0.  0.
     999903    2    3    3    0    0 -0.11736952572E+00 -0.44336840964E-01  0.14445480071E-01  0.12790764374E+00  0.20256663056E-01 0.  0.
         14    1    1    2    0    0 -0.22919001170E-01  0.12192159590E-02  0.56681425484E-02  0.23640958994E-01  0.00000000000E+00 0. -1.
     999901    1    3    3    0    0  0.14028852690E+00  0.43117625005E-01 -0.20113622619E-01  0.89238139726E+00  0.88000000000E+00 0.  1.
        -11    1    4    4    0    0 -0.45067926505E-01 -0.19161501406E-01 -0.40570008711E-02  0.49142664892E-01  0.51100000000E-03 0. -1.
         11    1    4    4    0    0 -0.72301599219E-01 -0.25175339558E-01  0.18502480942E-01  0.78764978852E-01  0.51100000000E-03 0.  1.
</event>
<event>
 8    1  0.1094829E+005  0.1043930E+01  0.7957747E-01            NaN
         13   -1    0    0    0    0  0.00000000000E+00  0.00000000000E+00  0.74505805969E-08  0.10566000000E+00  0.10566000000E+00 0.  1.
     999900   -1    0    0    0    0 -0.00000000000E+00 -0.00000000000E+00 -0.74505805969E-08  0.93827000000E+00  0.93827000000E+00 0. -1.
     999902    2    1    2    0    0 -0.18625392773E-01 -0.10544531934E-01  0.10943113021E-01  0.10198916113E+01  0.10196082849E+01 0.  0.
     999903    2    3    3    0    0  0.44480220499E-01 -0.86515919710E-01  0.85673171143E-01  0.13121925784E+00  0.20374174700E-01 0.  0.
         14    1    1    2    0    0  0.18625392773E-01  0.10544531934E-01 -0.10943113021E-01  0.24038388720E-01  0.00000000000E+00 0. -1.
     999901    1    3    3    0    0 -0.63105613272E-01  0.75971387776E-01 -0.74730058122E-01  0.88867235344E+00  0.88000000000E+00 0. -1.
        -11    1    4    4    0    0  0.30117880489E-01 -0.47796207740E-01  0.60846744179E-01  0.83031027921E-01  0.51100000000E-03 0.  1.
         11    1    4    4    0    0  0.14362340011E-01 -0.38719711971E-01  0.24826426964E-01  0.48188229916E-01  0.51100000000E-03 0. -1.
</event>
<event>
 8    1  0.1094829E+005  0.1043930E+01  0.7957747E-01            NaN
         13   -1    0    0    0    0  0.00000000000E+00  0.00000000000E+00  0.74505805969E-08  0.10566000000E+00  0.10566000000E+00 0.  1.
     999900   -1    0    0    0    0 -0.00000000000E+00 -0.00000000000E+00 -0.74505805969E-08  0.93827000000E+00  0.93827000000E+00 0.  1.
     999902    2    1    2    0    0  0.18341508623E-01  0.96812037416E-02 -0.24427866351E-01  0.10118853858E+01  0.10113778605E+01 0.  0.
     999903    2    3    3    0    0  0.40791349343E-01 -0.94308011071E-01  0.60988368152E-01  0.12137222742E+00  0.21300267718E-01 0.  0.
         14    1    1    2    0    0 -0.18341508623E-01 -0.96812037416E-02  0.24427866351E-01  0.32044614195E-01  0.00000000000E+00 0.  1.
     999901    1    3    3    0    0 -0.22449840720E-01  0.10398921481E+00 -0.85416234503E-01  0.89051315839E+00  0.88000000000E+00 0.  1.
        -11    1    4    4    0    0  0.30933806624E-01 -0.68344524073E-01  0.54828369171E-01  0.92920856377E-01  0.51100000000E-03 0. -1.
         11    1    4    4    0    0  0.98575427188E-02 -0.25963486998E-01  0.61599989814E-02  0.28451371039E-01  0.51100000000E-03 0.  1.
</event>
<event>
 8    1  0.1094829E+005  0.1043930E+01  0.7957747E-01            NaN
         13   -1    0    0    0    0  0.00000000000E+00  0.00000000000E+00  0.74505805969E-08  0.10566000000E+00  0.10566000000E+00 0.  1.
     999900   -1    0    0    0    0 -0.00000000000E+00 -0.00000000000E+00 -0.74505805969E-08  0.93827000000E+00  0.93827000000E+00 0.  1.
     999902    2    1    2    0    0 -0.79752440143E-02 -0.21223477601E-01  0.30681154283E-02  0.10210508861E+01  0.10207945230E+01 0.  0.
     999903    2    3    3    0    0 -0.60453672229E-01 -0.65277717904E-01  0.97452864054E-01  0.13335541906E+00  0.19255652113E-01 0.  0.
         14    1    1    2    0    0  0.79752440143E-02  0.21223477601E-01 -0.30681154283E-02  0.22879113856E-01  0.00000000000E+00 0. -1.
     999901    1    3    3    0    0  0.52478428215E-01  0.44054240303E-01 -0.94384748626E-01  0.88769546709E+00  0.88000000000E+00 0.  1.
        -11    1    4    4    0    0 -0.26652789869E-01 -0.41534152816E-01  0.58978537122E-01  0.76903745162E-01  0.51100000000E-03 0.  1.
         11    1    4    4    0    0 -0.33800882360E-01 -0.23743565088E-01  0.38474326932E-01  0.56451673893E-01  0.51100000000E-03 0. -1.
</event>
<event>
 8    1  0.1094829E+005  0.1043930E+01  0.7957747E-01            NaN
         13   -1    0    0    0    0  0.00000000000E+00  0.00000000000E+00  0.74505805969E-08  0.10566000000E+00  0.10566000000E+00 0.  1.
     999900   -1    0    0    0    0 -0.00000000000E+00 -0.00000000000E+00 -0.74505805969E-08  0.93827000000E+00  0.93827000000E+00 0.  1.
     999902    2    1    2    0    0 -0.15355596319E-01 -0.15617752331E-01 -0.10017056344E-01  0.10198457740E+01  0.10195613531E+01 0.  0.
     999903    2    3    3    0    0 -0.37587594809E-01  0.48916318155E-01  0.11137863672E+00  0.12889357417E+00  0.20067866885E-01 0.  0.
         14    1    1    2    0    0  0.15355596319E-01  0.15617752331E-01  0.10017056344E-01  0.24084226040E-01  0.00000000000E+00 0.  1.
     999901    1    3    3    0    0  0.22231998490E-01 -0.64534070486E-01 -0.12139569306E+00  0.89095219979E+00  0.88000000000E+00 0.  1.
        -11    1    4    4    0    0 -0.26357272270E-01  0.17873571920E-01  0.53810809548E-01  0.62530270429E-01  0.51100000000E-03 0.  1.
         11    1    4    4    0    0 -0.11230322539E-01  0.31042746235E-01  0.57567827168E-01  0.66363303745E-01  0.51100000000E-03 0. -1.
</event>
<event>
 8    1  0.1094829E+005  0.1043930E+01  0.7957747E-01            NaN
         13   -1    0    0    0    0  0.00000000000E+00  0.00000000000E+00  0.74505805969E-08  0.10566000000E+00  0.10566000000E+00 0. -1.
     999900   -1    0    0    0    0 -0.00000000000E+00 -0.00000000000E+00 -0.74505805969E-08  0.93827000000E+00  0.93827000000E+00 0. -1.
     999902    2    1    2    0    0 -0.22627871719E-01 -0.56624941733E-02 -0.94325154081E-02  0.10187693807E+01  0.10184586365E+01 0.  0.
     999903    2    3    3    0    0  0.12393913269E+00 -0.17410899253E-01  0.19564872042E-02  0.12649721300E+00  0.18266609663E-01 0.  0.
         14    1    1    2    0    0  0.22627871719E-01  0.56624941733E-02  0.94325154081E-02  0.25160619343E-01  0.00000000000E+00 0.  1.
     999901    1    3    3    0    0 -0.14656700441E+00  0.11748405080E-01 -0.11389002612E-01  0.89227216766E+00  0.88000000000E+00 0. -1.
        -11    1    4    4    0    0  0.11411354947E+00 -0.14451998141E-01  0.66150307683E-02  0.11521624094E+00  0.51100000000E-03 0.  1.
         11    1    4    4    0    0  0.98255832202E-02 -0.29589011116E-02 -0.46585435641E-02  0.11280972057E-01  0.51100000000E-03 0. -1.
</event>
<event>
 8    1  0.1094829E+005  0.1043930E+01  0.7957747E-01            NaN
         13   -1    0    0    0    0  0.00000000000E+00  0.00000000000E+00  0.74505805969E-08  0.10566000000E+00  0.10566000000E+00 0. -1.
     999900   -1    0    0    0    0 -0.00000000000E+00 -0.00000000000E+00 -0.74505805969E-08  0.93827000000E+00  0.93827000000E+00 0. -1.
     999902    2    1    2    0    0  0.50539670026E-02 -0.11274960990E-01  0.20127199105E-01  0.10203128141E+01  0.10200394439E+01 0.  0.
     999903    2    3    3    0    0  0.77857542927E-01  0.24378260999E-01  0.10279229744E+00  0.13272899752E+00  0.19865391229E-01 0.  0.
         14    1    1    2    0    0 -0.50539670026E-02  0.11274960990E-01 -0.20127199105E-01  0.23617185937E-01  0.00000000000E+00 0.  1.
     999901    1    3    3    0    0 -0.72803575925E-01 -0.35653221989E-01 -0.82665098339E-01  0.88758381654E+00  0.88000000000E+00 0. -1.
        -11    1    4    4    0    0  0.29323685429E-01  0.12085293390E-01  0.25799230995E-01  0.40887581053E-01  0.51100000000E-03 0. -1.
         11    1    4    4    0    0  0.48533857499E-01  0.12292967609E-01  0.76993066449E-01  0.91841416466E-01  0.51100000000E-03 0.  1.
</event>
<event>
 8    1  0.1094829E+005  0.1043930E+01  0.7957747E-01            NaN
         13   -1    0    0    0    0  0.00000000000E+00  0.00000000000E+00  0.74505805969E-08  0.10566000000E+00  0.10566000000E+00 0.  1.
     999900   -1    0    0    0    0 -0.00000000000E+00 -0.00000000000E+00 -0.74505805969E-08  0.93827000000E+00  0.93827000000E+00 0.  1.
     999902    2    1    2    0    0 -0.17810889369E-01  0.56099751485E-02  0.19738036618E-01  0.10167585133E+01  0.10163953879E+01 0.  0.
     999903    2    3    3    0    0  0.84195013258E-01 -0.27291411802E-01 -0.84640308673E-01  0.12413174670E+00  0.20275287224E-01 0.  0.
         14    1    1    2    0    0  0.17810889369E-01 -0.56099751485E-02 -0.19738036618E-01  0.27171486724E-01  0.00000000000E+00 0. -1.
     999901    1    3    3    0    0 -0.10200590263E+00  0.32901386951E-01  0.10437834529E+00  0.89262676657E+00  0.88000000000E+00 0. -1.
        -11    1    4    4    0    0  0.15487601500E-01 -0.13791643102E-01 -0.17958063222E-01  0.27437718115E-01  0.51100000000E-03 0. -1.
         11    1    4    4    0    0  0.68707411759E-01 -0.13499768700E-01 -0.66682245451E-01  0.96694028589E-01  0.51100000000E-03 0.  1.
</event>
<event>
 8    1  0.1094829E+005  0.1043930E+01  0.7957747E-01            NaN
         13   -1    0    0    0    0  0.00000000000E+00  0.00000000000E+00  0.74505805969E-08  0.10566000000E+00  0.10566000000E+00 0. -1.
     999900   -1    0    0    0    0 -0.00000000000E+00 -0.00000000000E+00 -0.74505805969E-08  0.93827000000E+00  0.93827000000E+00 0.  1.
     999902    2    1    2    0    0  0.30767609127E-02 -0.93654399306E-02  0.26363512242E-01  0.10157837267E+01  0.10153937004E+01 0.  0.
     999903    2    3    3    0    0 -0.24470311989E-01 -0.10543075796E+00  0.67854764980E-01  0.12915589576E+00  0.19040361981E-01 0.  0.
         14    1    1    2    0    0 -0.30767609127E-02  0.93654399306E-02 -0.26363512242E-01  0.28146273297E-01  0.00000000000E+00 0.  1.
     999901    1    3    3    0    0  0.27547072902E-01  0.96065318034E-01 -0.41491252738E-01  0.88662783095E+00  0.88000000000E+00 0. -1.
        -11    1    4    4    0    0 -0.44784946536E-02 -0.27460403887E-01  0.27456975507E-01  0.39093187655E-01  0.51100000000E-03 0. -1.
         11    1    4    4    0    0 -0.19991817335E-01 -0.77970354077E-01  0.40397789473E-01  0.90062708102E-01  0.51100000000E-03 0.  1.
</event>
<event>
 8    1  0.1094829E+005  0.1043930E+01  0.7957747E-01            NaN
         13   -1    0    0    0    0  0.00000000000E+00  0.00000000000E+00  0.74505805969E-08  0.10566000000E+00  0.10566000000E+00 0.  1.
     999900   -1    0    0    0    0 -0.00000000000E+00 -0.00000000000E+00 -0.74505805969E-08  0.93827000000E+00  0.93827000000E+00 0. -1.
     999902    2    1    2    0    0  0.28923888438E-01  0.21448309642E-02 -0.38208428364E-02  0.10146761035E+01  0.10142543096E+01 0.  0.
     999903    2    3    3    0    0  0.39497266170E-01 -0.99318707672E-01  0.63693988132E-01  0.12621400614E+00  0.21185171542E-01 0.  0.
         14    1    1    2    0    0 -0.28923888438E-01 -0.21448309642E-02  0.38208428364E-02  0.29253896531E-01  0.00000000000E+00 0.  1.
     999901    1    3    3    0    0 -0.10573377732E-01  0.10146353864E+00 -0.67514830969E-01  0.88846209733E+00  0.88000000000E+00 0. -1.
        -11    1    4    4    0    0  0.21203057909E-01 -0.76270326218E-01  0.50947401440E-01  0.94141548535E-01  0.51100000000E-03 0. -1.
         11    1    4    4    0    0  0.18294208261E-01 -0.23048381454E-01  0.12746586692E-01  0.32072457605E-01  0.51100000000E-03 0.  1.
</event>
<event>
 8    1  0.1094829E+005  0.1043930E+01  0.7957747E-01            NaN
         13   -1    0    0    0    0  0.00000000000E+00  0.00000000000E+00  0.74505805969E-08  0.10566000000E+00  0.10566000000E+00 0.  1.
     999900   -1    0    0    0    0 -0.00000000000E+00 -0.00000000000E+00 -0.74505805969E-08  0.93827000000E+00  0.93827000000E+00 0.  1.
     999902    2    1    2    0    0 -0.12723344084E-01 -0.19538235099E-01  0.54307073761E-03  0.10206078851E+01  0.10203413812E+01 0.  0.
     999903    2    3    3    0    0  0.44201058809E-01  0.63181283321E-01  0.10161514662E+00  0.12914926530E+00  0.20206101623E-01 0.  0.
         14    1    1    2    0    0  0.12723344084E-01  0.19538235099E-01 -0.54307073761E-03  0.23322114854E-01  0.00000000000E+00 0. -1.
     999901    1    3    3    0    0 -0.56924402893E-01 -0.82719518420E-01 -0.10107207588E+00  0.89145861984E+00  0.88000000000E+00 0.  1.
        -11    1    4    4    0    0  0.19596559634E-01  0.37496131276E-01  0.41303975283E-01  0.59129218711E-01  0.51100000000E-03 0. -1.
         11    1    4    4    0    0  0.24604499175E-01  0.25685152046E-01  0.60311171338E-01  0.70020046590E-01  0.51100000000E-03 0.  1.
</event>
<event>
 8    1  0.1094829E+005  0.1043930E+01  0.7957747E-01            NaN
         13   -1    0    0    0    0  0.00000000000E+00  0.00000000000E+00  0.74505805969E-08  0.10566000000E+00  0.10566000000E+00 0.  1.
     999900   -1    0    0    0    0 -0.00000000000E+00 -0.00000000000E+00 -0.74505805969E-08  0.93827000000E+00  0.93827000000E+00 0. -1.
     999902    2    1    2    0    0  0.27490276722E-03 -0.22492376410E-01 -0.44144288392E-02  0.10210068730E+01  0.10207495114E+01 0.  0.
     999903    2    3    3    0    0  0.73969110255E-01  0.42032910738E-01 -0.97143603238E-01  0.13072992248E+00  0.20377392472E-01 0.  0.
         14    1    1    2    0    0 -0.27490276722E-03  0.22492376410E-01  0.44144288392E-02  0.22923126970E-01  0.00000000000E+00 0. -1.
     999901    1    3    3    0    0 -0.73694207488E-01 -0.64525287149E-01  0.92729174399E-01  0.89027695055E+00  0.88000000000E+00 0.  1.
        -11    1    4    4    0    0  0.34981064835E-01  0.23392379012E-01 -0.33455297190E-01  0.53762406233E-01  0.51100000000E-03 0. -1.
         11    1    4    4    0    0  0.38988045420E-01  0.18640531726E-01 -0.63688306048E-01  0.76967516245E-01  0.51100000000E-03 0.  1.
</event>
<event>
 8    1  0.1094829E+005  0.1043930E+01  0.7957747E-01            NaN
         13   -1    0    0    0    0  0.00000000000E+00  0.00000000000E+00  0.74505805969E-08  0.10566000000E+00  0.10566000000E+00 0.  1.
     999900   -1    0    0    0    0 -0.00000000000E+00 -0.00000000000E+00 -0.74505805969E-08  0.93827000000E+00  0.93827000000E+00 0. -1.
     999902    2    1    2    0    0  0.20530507330E-01 -0.19327397068E-01  0.31457143518E-02  0.10155584381E+01  0.10151620538E+01 0.  0.
     999903    2    3    3    0    0 -0.18380592898E-01  0.12051483355E+00  0.59447418108E-02  0.12366284005E+00  0.19886848697E-01 0.  0.
         14    1    1    2    0    0 -0.20530507330E-01  0.19327397068E-01 -0.31457143518E-02  0.28371561949E-01  0.00000000000E+00 0.  1.
     999901    1    3    3    0    0  0.38911100228E-01 -0.13984223062E+00 -0.27990274590E-02  0.89189559801E+00  0.88000000000E+00 0. -1.
        -11    1    4    4    0    0 -0.14769772916E-01  0.52069437657E-01 -0.45694478017E-02  0.54318629439E-01  0.51100000000E-03 0. -1.
         11    1    4    4    0    0 -0.36108199822E-02  0.68445395898E-01  0.10514189613E-01  0.69344210607E-01  0.51100000000E-03 0.  1.
</event>
<event>
 8    1  0.1094829E+005  0.1043930E+01  0.7957747E-01            NaN
         13   -1    0    0    0    0  0.00000000000E+00  0.00000000000E+00  0.74505805969E-08  0.10566000000E+00  0.10566000000E+00 0.  1.
     999900   -1    0    0    0    0 -0.00000000000E+00 -0.00000000000E+00 -0.74505805969E-08  0.93827000000E+00  0.93827000000E+00 0.  1.
     999902    2    1    2    0    0  0.12981403164E-01 -0.19729238183E-01 -0.12744713883E-02  0.10202787010E+01  0.10200045312E+01 0.  0.
     999903    2    3    3    0    0 -0.52705292448E-01  0.11138856773E+00 -0.26915982234E-01  0.12777429872E+00  0.20409322388E-01 0.  0.
         14    1    1    2    0    0 -0.12981403164E-01  0.19729238183E-01  0.12744713883E-02  0.23651299007E-01  0.00000000000E+00 0. -1.
     999901    1    3    3    0    0  0.65686695613E-01 -0.13111780591E+00  0.25641510845E-01  0.89250440228E+00  0.88000000000E+00 0.  1.
        -11    1    4    4    0    0 -0.33378847209E-01  0.50945319375E-01 -0.72575466564E-02  0.61339270551E-01  0.51100000000E-03 0. -1.
         11    1    4    4    0    0 -0.19326445239E-01  0.60443248352E-01 -0.19658435577E-01  0.66435028165E-01  0.51100000000E-03 0.  1.
</event>
<event>
 8    1  0.1094829E+005  0.1043930E+01  0.7957747E-01            NaN
         13   -1    0    0    0    0  0.00000000000E+00  0.00000000000E+00  0.74505805969E-08  0.10566000000E+00  0.10566000000E+00 0.  1.
     999900   -1    0    0    0    0 -0.00000000000E+00 -0.00000000000E+00 -0.74505805969E-08  0.93827000000E+00  0.93827000000E+00 0.  1.
     999902    2    1    2    0    0 -0.53775346702E-02 -0.69882270071E-02  0.21446322630E-01  0.10207416851E+01  0.10204782652E+01 0.  0.
     999903    2    3    3    0    0 -0.80670187316E-01  0.55184793191E-01  0.87787390264E-01  0.13285903220E+00  0.19795353644E-01 0.  0.
         14    1    1    2    0    0  0.53775346702E-02  0.69882270071E-02 -0.21446322630E-01  0.23188314949E-01  0.00000000000E+00 0. -1.
     999901    1    3    3    0    0  0.75292652646E-01 -0.62173020198E-01 -0.66341067635E-01  0.88788265285E+00  0.88000000000E+00 0.  1.
        -11    1    4    4    0    0 -0.43956117059E-01  0.33353592385E-01  0.36722838999E-01  0.66282956912E-01  0.51100000000E-03 0.  1.
         11    1    4    4    0    0 -0.36714070257E-01  0.21831200806E-01  0.51064551265E-01  0.66576075286E-01  0.51100000000E-03 0. -1.
</event>
<event>
 8    1  0.1094829E+005  0.1043930E+01  0.7957747E-01            NaN
         13   -1    0    0    0    0  0.00000000000E+00  0.00000000000E+00  0.74505805969E-08  0.10566000000E+00  0.10566000000E+00 0.  1.
     999900   -1    0    0    0    0 -0.00000000000E+00 -0.00000000000E+00 -0.74505805969E-08  0.93827000000E+00  0.93827000000E+00 0.  1.
     999902    2    1    2    0    0  0.15602996872E-01  0.95791997804E-02  0.15264424279E-01  0.10200926925E+01  0.10198141419E+01 0.  0.
     999903    2    3    3    0    0  0.31417652207E-01 -0.12397267118E+00  0.96294254384E-02  0.12985791518E+00  0.20348469985E-01 0.  0.
         14    1    1    2    0    0 -0.15602996872E-01 -0.95791997804E-02 -0.15264424279E-01  0.23837307490E-01  0.00000000000E+00 0. -1.
     999901    1    3    3    0    0 -0.15814655335E-01  0.13355187096E+00  0.56349988407E-02  0.89023477733E+00  0.88000000000E+00 0. -1.
        -11    1    4    4    0    0  0.19554242912E-01 -0.58223253301E-01  0.13665109714E-01  0.62923064017E-01  0.51100000000E-03 0.  1.
         11    1    4    4    0    0  0.11863409295E-01 -0.65749417877E-01 -0.40356842760E-02  0.66934851160E-01  0.51100000000E-03 0. -1.
</event>
<event>
 8    1  0.1094829E+005  0.1043930E+01  0.7957747E-01            NaN
         13   -1    0    0    0    0  0.00000000000E+00  0.00000000000E+00  0.74505805969E-08  0.10566000000E+00  0.10566000000E+00 0.  1.
     999900   -1    0    0    0    0 -0.00000000000E+00 -0.00000000000E+00 -0.74505805969E-08  0.93827000000E+00  0.93827000000E+00 0.  1.
     999902    2    1    2    0    0 -0.19688394868E-02  0.21642766124E-01  0.78526227762E-02  0.10208226562E+01  0.10205610937E+01 0.  0.
     999903    2    3    3    0    0 -0.61655815590E-01 -0.27806419514E-01 -0.10888858650E+00  0.12973552967E+00  0.19998670580E-01 0.  0.
         14    1    1    2    0    0  0.19688394868E-02 -0.21642766124E-01 -0.78526227762E-02  0.23107343831E-01  0.00000000000E+00 0. -1.
     999901    1    3    3    0    0  0.59686976103E-01  0.49449185638E-01  0.11674120928E+00  0.89108712650E+00  0.88000000000E+00 0. -1.
        -11    1    4    4    0    0 -0.42702381043E-01 -0.16943655800E-01 -0.89133903648E-01  0.10027808693E+00  0.51100000000E-03 0. -1.
         11    1    4    4    0    0 -0.18953434547E-01 -0.10862763714E-01 -0.19754682854E-01  0.29457442732E-01  0.51100000000E-03 0.  1.
</event>
<event>
 8    1  0.1094829E+005  0.1043930E+01  0.7957747E-01            NaN
         13   -1    0    0    0    0  0.00000000000E+00  0.00000000000E+00  0.74505805969E-08  0.10566000000E+00  0.10566000000E+00 0.  1.
     999900   -1    0    0    0    0 -0.00000000000E+00 -0.00000000000E+00 -0.74505805969E-08  0.93827000000E+00  0.93827000000E+00 0.  1.
     999902    2    1    2    0    0 -0.13184396729E-01 -0.13124286789E-01  0.14645567706E-01  0.10202536854E+01  0.10199789285E+01 0.  0.
     999903    2    3    3    0    0 -0.24214548501E-01  0.86631451880E-01  0.93188212354E-01  0.13107326573E+00  0.20119772717E-01 0.  0.
         14    1    1    2    0    0  0.13184396729E-01  0.13124286789E-01 -0.14645567706E-01  0.23676314626E-01  0.00000000000E+00 0. -1.
     999901    1    3    3    0    0  0.11030151772E-01 -0.99755738669E-01 -0.78542644648E-01  0.88918041964E+00  0.88000000000E+00 0.  1.
        -11    1    4    4    0    0 -0.13831599650E-01  0.39792121634E-01  0.29937349166E-01  0.51683963558E-01  0.51100000000E-03 0. -1.
         11    1    4    4    0    0 -0.10382948851E-01  0.46839330247E-01  0.63250863188E-01  0.79389302175E-01  0.51100000000E-03 0.  1.
</event>
<event>
 8    1  0.1094829E+005  0.1043930E+01  0.7957747E-01            NaN
         13   -1    0    0    0    0  0.00000000000E+00  0.00000000000E+00  0.74505805969E-08  0.10566000000E+00  0.10566000000E+00 0. -1.
     999900   -1    0    0    0    0 -0.00000000000E+00 -0.00000000000E+00 -0.74505805969E-08  0.93827000000E+00  0.93827000000E+00 0.  1.
     999902    2    1    2    0    0  0.25719643217E-03  0.20685548968E-01  0.13332451142E-01  0.10193187761E+01  0.10190216166E+01 0.  0.
     999903    2    3    3    0    0 -0.34124357815E-01 -0.83655689972E-01  0.90249009244E-01  0.12915848590E+00  0.19346435074E-01 0.  0.
         14    1    1    2    0    0 -0.25719643217E-03 -0.20685548968E-01 -0.13332451142E-01  0.24611223854E-01  0.00000000000E+00 0.  1.
     999901    1    3    3    0    0  0.34381554247E-01  0.10434123894E+00 -0.76916558102E-01  0.89016029024E+00  0.88000000000E+00 0.  1.
        -11    1    4    4    0    0 -0.27152883389E-01 -0.57301524994E-01  0.51037424461E-01  0.81399162524E-01  0.51100000000E-03 0.  1.
         11    1    4    4    0    0 -0.69714744254E-02 -0.26354164978E-01  0.39211584784E-01  0.47759323379E-01  0.51100000000E-03 0. -1.
</event>
<event>
 8    1  0.1094829E+005  0.1043930E+01  0.7957747E-01            NaN
         13   -1    0    0    0    0  0.00000000000E+00  0.00000000000E+00  0.74505805969E-08  0.10566000000E+00  0.10566000000E+00 0.  1.
     999900   -1    0    0    0    0 -0.00000000000E+00 -0.00000000000E+00 -0.74505805969E-08  0.93827000000E+00  0.93827000000E+00 0.  1.
     999902    2    1    2    0    0 -0.13091050578E-01  0.15636728624E-01  0.12569501905E-01  0.10199743062E+01  0.10196929489E+01 0.  0.
     999903    2    3    3    0    0 -0.10439891726E+00 -0.39659602819E-01  0.67916282677E-01  0.13179747869E+00  0.16909639735E-01 0.  0.
         14    1    1    2    0    0  0.13091050578E-01 -0.15636728624E-01 -0.12569501905E-01  0.23955693800E-01  0.00000000000E+00 0.  1.
     999901    1    3    3    0    0  0.91307866677E-01  0.55296331443E-01 -0.55346780772E-01  0.88817682751E+00  0.88000000000E+00 0.  1.
        -11    1    4    4    0    0 -0.53118606906E-01 -0.28214737450E-01  0.40676812121E-01  0.72612133795E-01  0.51100000000E-03 0. -1.
         11    1    4    4    0    0 -0.51280310350E-01 -0.11444865369E-01  0.27239470555E-01  0.59185344892E-01  0.51100000000E-03 0.  1.
</event>
<event>
 8    1  0.1094829E+005  0.1043930E+01  0.7957747E-01            NaN
         13   -1    0    0    0    0  0.00000000000E+00  0.00000000000E+00  0.74505805969E-08  0.10566000000E+00  0.10566000000E+00 0.  1.
     999900   -1    0    0    0    0 -0.00000000000E+00 -0.00000000000E+00 -0.74505805969E-08  0.93827000000E+00  0.93827000000E+00 0.  1.
     999902    2    1    2    0    0 -0.10263763213E-01 -0.21106973590E-01 -0.87853305047E-02  0.10188694493E+01  0.10185612026E+01 0.  0.
     999903    2    3    3    0    0  0.11628340461E+00  0.10730331237E-01  0.47553955624E-01  0.12746498733E+00  0.18680848566E-01 0.  0.
         14    1    1    2    0    0  0.10263763213E-01  0.21106973590E-01  0.87853305047E-02  0.25060550702E-01  0.00000000000E+00 0.  1.
     999901    1    3    3    0    0 -0.12654716782E+00 -0.31837304827E-01 -0.56339286128E-01  0.89140446197E+00  0.88000000000E+00 0.  1.
        -11    1    4    4    0    0  0.10764952650E+00  0.80824954822E-02  0.38357493022E-01  0.11456572646E+00  0.51100000000E-03 0. -1.
         11    1    4    4    0    0  0.86338781089E-02  0.26478357546E-02  0.91964626017E-02  0.12899260861E-01  0.51100000000E-03 0.  1.
</event>
<event>
 8    1  0.1094829E+005  0.1043930E+01  0.7957747E-01            NaN
         13   -1    0    0    0    0  0.00000000000E+00  0.00000000000E+00  0.74505805969E-08  0.10566000000E+00  0.10566000000E+00 0.  1.
     999900   -1    0    0    0    0 -0.00000000000E+00 -0.00000000000E+00 -0.74505805969E-08  0.93827000000E+00  0.93827000000E+00 0.  1.
     999902    2    1    2    0    0  0.11615202430E-01  0.41278631497E-02 -0.17147389296E-01  0.10228116397E+01  0.10225935973E+01 0.  0.
     999903    2    3    3    0    0  0.11998392492E-01 -0.70336621426E-01  0.10776811830E+00  0.13087610934E+00  0.20576368466E-01 0.  0.
         14    1    1    2    0    0 -0.11615202430E-01 -0.41278631497E-02  0.17147389296E-01  0.21118360290E-01  0.00000000000E+00 0.  1.
     999901    1    3    3    0    0 -0.38319006186E-03  0.74464484575E-01 -0.12491550759E+00  0.89193553037E+00  0.88000000000E+00 0.  1.
        -11    1    4    4    0    0 -0.29388002676E-02 -0.18573945758E-01  0.17175937730E-01  0.25473554246E-01  0.51100000000E-03 0. -1.
         11    1    4    4    0    0  0.14937192760E-01 -0.51762675668E-01  0.90592180566E-01  0.10540255509E+00  0.51100000000E-03 0.  1.
</event>
<event>
 8    1  0.1094829E+005  0.1043930E+01  0.7957747E-01            NaN
         13   -1    0    0    0    0  0.00000000000E+00  0.00000000000E+00  0.74505805969E-08  0.10566000000E+00  0.10566000000E+00 0. -1.
     999900   -1    0    0    0    0 -0.00000000000E+00 -0.00000000000E+00 -0.74505805969E-08  0.93827000000E+00  0.93827000000E+00 0.  1.
     999902    2    1    2    0    0 -0.18222405505E-01  0.13724941755E-01 -0.16332688256E-02  0.10210586718E+01  0.10208024851E+01 0.  0.
     999903    2    3    3    0    0 -0.10311736191E+00  0.59212828828E-01 -0.58650703667E-01  0.13396944887E+00  0.19197884382E-01 0.  0.
         14    1    1    2    0    0  0.18222405505E-01 -0.13724941755E-01  0.16332688256E-02  0.22871328244E-01  0.00000000000E+00 0.  1.
     999901    1    3    3    0    0  0.84894956400E-01 -0.45487887073E-01  0.57017434841E-01  0.88708922289E+00  0.88000000000E+00 0. -1.
        -11    1    4    4    0    0 -0.33709366953E-01  0.16429890959E-01 -0.28239631843E-01  0.46946785459E-01  0.51100000000E-03 0.  1.
         11    1    4    4    0    0 -0.69407994952E-01  0.42782937869E-01 -0.30411071824E-01  0.87022663407E-01  0.51100000000E-03 0. -1.
</event>
<event>
 8    1  0.1094829E+005  0.1043930E+01  0.7957747E-01            NaN
         13   -1    0    0    0    0  0.00000000000E+00  0.00000000000E+00  0.74505805969E-08  0.10566000000E+00  0.10566000000E+00 0. -1.
     999900   -1    0    0    0    0 -0.00000000000E+00 -0.00000000000E+00 -0.74505805969E-08  0.93827000000E+00  0.93827000000E+00 0.  1.
     999902    2    1    2    0    0  0.16120874649E-01 -0.81760596723E-02  0.15470471474E-01  0.10201378576E+01  0.10198603740E+01 0.  0.
     999903    2    3    3    0    0 -0.67417915417E-01  0.10818568871E+00  0.53890630584E-02  0.12849868132E+00  0.15282360353E-01 0.  0.
         14    1    1    2    0    0 -0.16120874649E-01  0.81760596723E-02 -0.15470471474E-01  0.23792142375E-01  0.00000000000E+00 0.  1.
     999901    1    3    3    0    0  0.83538790066E-01 -0.11636174838E+00  0.10081408415E-01  0.89163917631E+00  0.88000000000E+00 0. -1.
        -11    1    4    4    0    0 -0.23634386379E-01  0.31726997002E-01  0.79321308564E-02  0.40353021934E-01  0.51100000000E-03 0. -1.
         11    1    4    4    0    0 -0.43783529038E-01  0.76458691710E-01 -0.25430677980E-02  0.88145659382E-01  0.51100000000E-03 0.  1.
</event>
<event>
 8    1  0.1094829E+005  0.1043930E+01  0.7957747E-01            NaN
         13   -1    0    0    0    0  0.00000000000E+00  0.00000000000E+00  0.74505805969E-08  0.10566000000E+00  0.10566000000E+00 0.  1.
     999900   -1    0    0    0    0 -0.00000000000E+00 -0.00000000000E+00 -0.74505805969E-08  0.93827000000E+00  0.93827000000E+00 0. -1.
     999902    2    1    2    0    0  0.14735640573E-01  0.16367653093E-01 -0.81801618691E-02  0.10204362941E+01  0.10201658081E+01 0.  0.
     999903    2    3    3    0    0 -0.12160865966E+00  0.38643284372E-01  0.12460275083E-01  0.12941889827E+00  0.17664179628E-01 0.  0.
         14    1    1    2    0    0 -0.14735640573E-01 -0.16367653093E-01  0.81801618691E-02  0.23493705946E-01  0.00000000000E+00 0. -1.
     999901    1    3    3    0    0  0.13634430023E+00 -0.22275631279E-01 -0.20640436952E-01  0.89101739579E+00  0.88000000000E+00 0. -1.
        -11    1    4    4    0    0 -0.46160154910E-01  0.15150619263E-01 -0.38224464140E-02  0.48735750563E-01  0.51100000000E-03 0. -1.
         11    1    4    4    0    0 -0.75448504752E-01  0.23492665109E-01  0.16282721497E-01  0.80683147705E-01  0.51100000000E-03 0.  1.
</event>
<event>
 8    1  0.1094829E+005  0.1043930E+01  0.7957747E-01            NaN
         13   -1    0    0    0    0  0.00000000000E+00  0.00000000000E+00  0.74505805969E-08  0.10566000000E+00  0.10566000000E+00 0. -1.
     999900   -1    0    0    0    0 -0.00000000000E+00 -0.00000000000E+00 -0.74505805969E-08  0.93827000000E+00  0.93827000000E+00 0. -1.
     999902    2    1    2    0    0  0.87154952148E-03  0.14776870738E-02 -0.23569801170E-01  0.10202978464E+01  0.10200241255E+01 0.  0.
     999903    2    3    3    0    0 -0.81905040643E-01 -0.40572892339E-02  0.96566230764E-01  0.12826911029E+00  0.20075618331E-01 0.  0.
         14    1    1    2    0    0 -0.87154952148E-03 -0.14776870738E-02  0.23569801170E-01  0.23632153622E-01  0.00000000000E+00 0. -1.
     999901    1    3    3    0    0  0.82776590165E-01  0.55349763077E-02 -0.12013603193E+00  0.89202873609E+00  0.88000000000E+00 0. -1.
        -11    1    4    4    0    0 -0.50924435340E-01  0.19120766607E-02  0.72331562433E-01  0.88482033186E-01  0.51100000000E-03 0.  1.
         11    1    4    4    0    0 -0.30980605303E-01 -0.59693658945E-02  0.24234668331E-01  0.39787077101E-01  0.51100000000E-03 0. -1.
</event>
<event>
 8    1  0.1094829E+005  0.1043930E+01  0.7957747E-01            NaN
         13   -1    0    0    0    0  0.00000000000E+00  0.00000000000E+00  0.74505805969E-08  0.10566000000E+00  0.10566000000E+00 0. -1.
     999900   -1    0    0    0    0 -0.00000000000E+00 -0.00000000000E+00 -0.74505805969E-08  0.93827000000E+00  0.93827000000E+00 0. -1.
     999902    2    1    2    0    0  0.14889218123E-01 -0.24771033146E-02 -0.18619667042E-01  0.10199609187E+01  0.10196792431E+01 0.  0.
     999903    2    3    3    0    0  0.92036023847E-01  0.25111594630E-01  0.86952600145E-01  0.12987200771E+00  0.14309501871E-01 0.  0.
         14    1    1    2    0    0 -0.14889218123E-01  0.24771033146E-02  0.18619667042E-01  0.23969081290E-01  0.00000000000E+00 0. -1.
     999901    1    3    3    0    0 -0.77146805725E-01 -0.27588697944E-01 -0.10557226719E+00  0.89008891100E+00  0.88000000000E+00 0. -1.
        -11    1    4    4    0    0  0.52567440798E-01  0.19707686508E-01  0.44377811997E-01  0.71563818080E-01  0.51100000000E-03 0. -1.
         11    1    4    4    0    0  0.39468583049E-01  0.54039081221E-02  0.42574788148E-01  0.58308189628E-01  0.51100000000E-03 0.  1.
</event>
<event>
 8    1  0.1094829E+005  0.1043930E+01  0.7957747E-01            NaN
         13   -1    0    0    0    0  0.00000000000E+00  0.00000000000E+00  0.74505805969E-08  0.10566000000E+00  0.10566000000E+00 0. -1.
     999900   -1    0    0    0    0 -0.00000000000E+00 -0.00000000000E+00 -0.74505805969E-08  0.93827000000E+00  0.93827000000E+00 0. -1.
     999902    2    1    2    0    0  0.20685141897E-01  0.69487844074E-02 -0.77952915105E-02  0.10207583089E+01  0.10204952709E+01 0.  0.
     999903    2    3    3    0    0 -0.29336843218E-01 -0.51369918841E-01 -0.11397720693E+00  0.13105168908E+00  0.26157648542E-01 0.  0.
         14    1    1    2    0    0 -0.20685141897E-01 -0.69487844074E-02  0.77952915105E-02  0.23171691129E-01  0.00000000000E+00 0. -1.
     999901    1    3    3    0    0  0.50021985115E-01  0.58318703248E-01  0.10618191542E+00  0.88970661979E+00  0.88000000000E+00 0.  1.
        -11    1    4    4    0    0 -0.35255557466E-03 -0.31670464533E-02 -0.28786242542E-01  0.28966590399E-01  0.51100000000E-03 0.  1.
         11    1    4    4    0    0 -0.28984287643E-01 -0.48202872388E-01 -0.85190964393E-01  0.10208509868E+00  0.51100000000E-03 0. -1.
</event>
<event>
 8    1  0.1094829E+005  0.1043930E+01  0.7957747E-01            NaN
         13   -1    0    0    0    0  0.00000000000E+00  0.00000000000E+00  0.74505805969E-08  0.10566000000E+00  0.10566000000E+00 0.  1.
     999900   -1    0    0    0    0 -0.00000000000E+00 -0.00000000000E+00 -0.74505805969E-08  0.93827000000E+00  0.93827000000E+00 0. -1.
     999902    2    1    2    0    0 -0.10413099959E-01 -0.18334642221E-01  0.11426551867E-01  0.10199475513E+01  0.10196655577E+01 0.  0.
     999903    2    3    3    0    0 -0.12911193614E+00  0.13403550408E-01  0.12534509818E-02  0.13135303270E+00  0.20062423645E-01 0.  0.
         14    1    1    2    0    0  0.10413099959E-01  0.18334642221E-01 -0.11426551867E-01  0.23982448659E-01  0.00000000000E+00 0. -1.
     999901    1    3    3    0    0  0.11869883618E+00 -0.31738192629E-01  0.10173100885E-01  0.88859451864E+00  0.88000000000E+00 0.  1.
        -11    1    4    4    0    0 -0.65084069947E-01  0.70372665577E-03 -0.73818513466E-02  0.65507131233E-01  0.51100000000E-03 0.  1.
         11    1    4    4    0    0 -0.64027866191E-01  0.12699823752E-01  0.86353023284E-02  0.65845901464E-01  0.51100000000E-03 0. -1.
</event>
<event>
 8    1  0.1094829E+005  0.1043930E+01  0.7957747E-01            NaN
         13   -1    0    0    0    0  0.00000000000E+00  0.00000000000E+00  0.74505805969E-08  0.10566000000E+00  0.10566000000E+00 0.  1.
     999900   -1    0    0    0    0 -0.00000000000E+00 -0.00000000000E+00 -0.74505805969E-08  0.93827000000E+00  0.93827000000E+00 0. -1.
     999902    2    1    2    0    0 -0.10846893229E-02 -0.24638104555E-01 -0.56113871162E-02  0.10186377005E+01  0.10183236541E+01 0.  0.
     999903    2    3    3    0    0 -0.41624200096E-01  0.11667433956E+00 -0.43459002853E-02  0.12644138791E+00  0.24961213573E-01 0.  0.
         14    1    1    2    0    0  0.10846893229E-02  0.24638104555E-01  0.56113871162E-02  0.25292299468E-01  0.00000000000E+00 0.  1.
     999901    1    3    3    0    0  0.40539510773E-01 -0.14131244411E+00 -0.12654868309E-02  0.89219631262E+00  0.88000000000E+00 0.  1.
        -11    1    4    4    0    0 -0.97896608496E-02  0.63950504410E-01 -0.44434230859E-02  0.64849900567E-01  0.51100000000E-03 0.  1.
         11    1    4    4    0    0 -0.31834539246E-01  0.52723835148E-01  0.97522800580E-04  0.61591487345E-01  0.51100000000E-03 0. -1.
</event>
<event>
 8    1  0.1094829E+005  0.1043930E+01  0.7957747E-01            NaN
         13   -1    0    0    0    0  0.00000000000E+00  0.00000000000E+00  0.74505805969E-08  0.10566000000E+00  0.10566000000E+00 0.  1.
     999900   -1    0    0    0    0 -0.00000000000E+00 -0.00000000000E+00 -0.74505805969E-08  0.93827000000E+00  0.93827000000E+00 0.  1.
     999902    2    1    2    0    0 -0.21738960451E-01  0.62540860351E-02 -0.69323942029E-02  0.10202708774E+01  0.10199965241E+01 0.  0.
     999903    2    3    3    0    0  0.67198220829E-03 -0.11528280950E+00  0.55449197482E-01  0.12944826299E+00  0.19790441201E-01 0.  0.
         14    1    1    2    0    0  0.21738960451E-01 -0.62540860351E-02  0.69323942029E-02  0.23659122617E-01  0.00000000000E+00 0.  1.
     999901    1    3    3    0    0 -0.22410942660E-01  0.12153689554E+00 -0.62381591685E-01  0.89082261439E+00  0.88000000000E+00 0.  1.
        -11    1    4    4    0    0  0.80244457707E-02 -0.52754088381E-01  0.32233137564E-01  0.62342777040E-01  0.51100000000E-03 0. -1.
         11    1    4    4    0    0 -0.73524635624E-02 -0.62528721123E-01  0.23216059919E-01  0.67105485952E-01  0.51100000000E-03 0.  1.
</event>
<event>
 8    1  0.1094829E+005  0.1043930E+01  0.7957747E-01            NaN
         13   -1    0    0    0    0  0.00000000000E+00  0.00000000000E+00  0.74505805969E-08  0.10566000000E+00  0.10566000000E+00 0.  1.
     999900   -1    0    0    0    0 -0.00000000000E+00 -0.00000000000E+00 -0.74505805969E-08  0.93827000000E+00  0.93827000000E+00 0. -1.
     999902    2    1    2    0    0 -0.21823748883E-01 -0.87816879886E-02 -0.33533363940E-02  0.10201678679E+01  0.10198910921E+01 0.  0.
     999903    2    3    3    0    0 -0.10831016557E+00  0.46651151431E-02 -0.74382942670E-01  0.13297796611E+00  0.19936450144E-01 0.  0.
         14    1    1    2    0    0  0.21823748883E-01  0.87816879886E-02  0.33533363940E-02  0.23762132147E-01  0.00000000000E+00 0.  1.
     999901    1    3    3    0    0  0.86486416692E-01 -0.13446803132E-01  0.71029606275E-01  0.88718990174E+00  0.88000000000E+00 0.  1.
        -11    1    4    4    0    0 -0.10091069390E+00  0.49489441153E-02 -0.61997414546E-01  0.11853860436E+00  0.51100000000E-03 0. -1.
         11    1    4    4    0    0 -0.73994716742E-02 -0.28382897217E-03 -0.12385528124E-01  0.14439361753E-01  0.51100000000E-03 0.  1.
</event>
<event>
 8    1  0.1094829E+005  0.1043930E+01  0.7957747E-01            NaN
         13   -1    0    0    0    0  0.00000000000E+00  0.00000000000E+00  0.74505805969E-08  0.10566000000E+00  0.10566000000E+00 0.  1.
     999900   -1    0    0    0    0 -0.00000000000E+00 -0.00000000000E+00 -0.74505805969E-08  0.93827000000E+00  0.93827000000E+00 0.  1.
     999902    2    1    2    0    0 -0.16229720318E-01 -0.21881467003E-01  0.68647560802E-02  0.10158350308E+01  0.10154464449E+01 0.  0.
     999903    2    3    3    0    0 -0.12425760385E+00  0.17070176474E-01  0.18372226655E-01  0.12829929852E+00  0.19794651994E-01 0.  0.
         14    1    1    2    0    0  0.16229720318E-01  0.21881467003E-01 -0.68647560802E-02  0.28094969226E-01  0.00000000000E+00 0. -1.
     999901    1    3    3    0    0  0.10802788354E+00 -0.38951643477E-01 -0.11507470575E-01  0.88753573226E+00  0.88000000000E+00 0.  1.
        -11    1    4    4    0    0 -0.98871117162E-01  0.53836307366E-02  0.14853563758E-01  0.10012677347E+00  0.51100000000E-03 0. -1.
         11    1    4    4    0    0 -0.25386486692E-01  0.11686545738E-01  0.35186628967E-02  0.28172525045E-01  0.51100000000E-03 0.  1.
</event>
<event>
 8    1  0.1094829E+005  0.1043930E+01  0.7957747E-01            NaN
         13   -1    0    0    0    0  0.00000000000E+00  0.00000000000E+00  0.74505805969E-08  0.10566000000E+00  0.10566000000E+00 0.  1.
     999900   -1    0    0    0    0 -0.00000000000E+00 -0.00000000000E+00 -0.74505805969E-08  0.93827000000E+00  0.93827000000E+00 0.  1.
     999902    2    1    2    0    0 -0.11467943586E-01 -0.13434227239E-01  0.13348397175E-01  0.10217901739E+01  0.10215502864E+01 0.  0.
     999903    2    3    3    0    0 -0.30994761269E-01 -0.12872172443E+00 -0.30111879446E-02  0.13390496758E+00  0.19786751175E-01 0.  0.
         14    1    1    2    0    0  0.11467943586E-01  0.13434227239E-01 -0.13348397175E-01  0.22139826077E-01  0.00000000000E+00 0. -1.
     999901    1    3    3    0    0  0.19526817684E-01  0.11528749720E+00  0.16359585119E-01  0.88788520634E+00  0.88000000000E+00 0. -1.
        -11    1    4    4    0    0 -0.25301356194E-01 -0.99988882689E-01 -0.10477872941E-01  0.10367247575E+00  0.51100000000E-03 0.  1.
         11    1    4    4    0    0 -0.56934050751E-02 -0.28732841745E-01  0.74666849964E-02  0.30232491825E-01  0.51100000000E-03 0. -1.
</event>
<event>
 8    1  0.1094829E+005  0.1043930E+01  0.7957747E-01            NaN
         13   -1    0    0    0    0  0.00000000000E+00  0.00000000000E+00  0.74505805969E-08  0.10566000000E+00  0.10566000000E+00 0.  1.
     999900   -1    0    0    0    0 -0.00000000000E+00 -0.00000000000E+00 -0.74505805969E-08  0.93827000000E+00  0.93827000000E+00 0.  1.
     999902    2    1    2    0    0 -0.12259307406E-01  0.16404380874E-01 -0.10512122291E-01  0.10209104638E+01  0.10206509081E+01 0.  0.
     999903    2    3    3    0    0  0.22107539932E-01  0.76551076420E-01  0.10205194845E+00  0.13104003776E+00  0.20201007181E-01 0.  0.
         14    1    1    2    0    0  0.12259307406E-01 -0.16404380874E-01  0.10512122291E-01  0.23019536160E-01  0.00000000000E+00 0. -1.
     999901    1    3    3    0    0 -0.34366847338E-01 -0.60146695545E-01 -0.11256407075E+00  0.88987042608E+00  0.88000000000E+00 0.  1.
        -11    1    4    4    0    0  0.19332686016E-01  0.55138529089E-01  0.86659534146E-01  0.10451864005E+00  0.51100000000E-03 0.  1.
         11    1    4    4    0    0  0.27748539157E-02  0.21412547331E-01  0.15392414309E-01  0.26521397714E-01  0.51100000000E-03 0. -1.
</event>
<event>
 8    1  0.1094829E+005  0.1043930E+01  0.7957747E-01            NaN
         13   -1    0    0    0    0  0.00000000000E+00  0.00000000000E+00  0.74505805969E-08  0.10566000000E+00  0.10566000000E+00 0.  1.
     999900   -1    0    0    0    0 -0.00000000000E+00 -0.00000000000E+00 -0.74505805969E-08  0.93827000000E+00  0.93827000000E+00 0. -1.
     999902    2    1    2    0    0  0.16375660982E-01 -0.12375104285E-01 -0.11794024101E-01  0.10202571361E+01  0.10199824603E+01 0.  0.
     999903    2    3    3    0    0  0.82416831625E-01 -0.65536558647E-01  0.76564910507E-01  0.13177816747E+00  0.20389341498E-01 0.  0.
         14    1    1    2    0    0 -0.16375660982E-01  0.12375104285E-01  0.11794024101E-01  0.23672863856E-01  0.00000000000E+00 0.  1.
     999901    1    3    3    0    0 -0.66041170644E-01  0.53161454362E-01 -0.88358934608E-01  0.88847896867E+00  0.88000000000E+00 0. -1.
        -11    1    4    4    0    0  0.72382231525E-01 -0.48336436253E-01  0.58369999108E-01  0.10479941043E+00  0.51100000000E-03 0.  1.
         11    1    4    4    0    0  0.10034600100E-01 -0.17200122393E-01  0.18194911399E-01  0.26978757039E-01  0.51100000000E-03 0. -1.
</event>
<event>
 8    1  0.1094829E+005  0.1043930E+01  0.7957747E-01            NaN
         13   -1    0    0    0    0  0.00000000000E+00  0.00000000000E+00  0.74505805969E-08  0.10566000000E+00  0.10566000000E+00 0.  1.
     999900   -1    0    0    0    0 -0.00000000000E+00 -0.00000000000E+00 -0.74505805969E-08  0.93827000000E+00  0.93827000000E+00 0.  1.
     999902    2    1    2    0    0  0.64773039326E-02 -0.20807379994E-01  0.45000308177E-02  0.10216779707E+01  0.10214356187E+01 0.  0.
     999903    2    3    3    0    0  0.55343192944E-01 -0.11906051338E+00  0.21781928555E-01  0.13469419563E+00  0.20731596066E-01 0.  0.
         14    1    1    2    0    0 -0.64773039326E-02  0.20807379994E-01 -0.45000308177E-02  0.22252029251E-01  0.00000000000E+00 0. -1.
     999901    1    3    3    0    0 -0.48865889011E-01  0.98253133381E-01 -0.17281897737E-01  0.88698377512E+00  0.88000000000E+00 0.  1.
        -11    1    4    4    0    0  0.20169074982E-02 -0.12030271791E-01 -0.30022960760E-02  0.12572599491E-01  0.51100000000E-03 0. -1.
         11    1    4    4    0    0  0.53326285446E-01 -0.10703024158E+00  0.24784224631E-01  0.12212159614E+00  0.51100000000E-03 0.  1.
</event>
<event>
 8    1  0.1094829E+005  0.1043930E+01  0.7957747E-01            NaN
         13   -1    0    0    0    0  0.00000000000E+00  0.00000000000E+00  0.74505805969E-08  0.10566000000E+00  0.10566000000E+00 0.  1.
     999900   -1    0    0    0    0 -0.00000000000E+00 -0.00000000000E+00 -0.74505805969E-08  0.93827000000E+00  0.93827000000E+00 0. -1.
     999902    2    1    2    0    0 -0.19238015491E-01  0.81681265629E-02 -0.10908215703E-01  0.10203544045E+01  0.10200820076E+01 0.  0.
     999903    2    3    3    0    0 -0.54843390051E-01 -0.11473562687E+00 -0.23131574679E-01  0.13101617540E+00  0.21403433439E-01 0.  0.
         14    1    1    2    0    0  0.19238015491E-01 -0.81681265629E-02  0.10908215703E-01  0.23575595462E-01  0.00000000000E+00 0.  1.
     999901    1    3    3    0    0  0.35605374560E-01  0.12290375343E+00  0.12223358975E-01  0.88933822914E+00  0.88000000000E+00 0. -1.
        -11    1    4    4    0    0 -0.10066688075E-01 -0.25323490244E-01  0.36350071618E-02  0.27497122849E-01  0.51100000000E-03 0. -1.
         11    1    4    4    0    0 -0.44776701976E-01 -0.89412136627E-01 -0.26766581841E-01  0.10351905255E+00  0.51100000000E-03 0.  1.
</event>
<event>
 8    1  0.1094829E+005  0.1043930E+01  0.7957747E-01            NaN
         13   -1    0    0    0    0  0.00000000000E+00  0.00000000000E+00  0.74505805969E-08  0.10566000000E+00  0.10566000000E+00 0. -1.
     999900   -1    0    0    0    0 -0.00000000000E+00 -0.00000000000E+00 -0.74505805969E-08  0.93827000000E+00  0.93827000000E+00 0. -1.
     999902    2    1    2    0    0  0.30712802315E-02 -0.15161641424E-01 -0.18446927150E-01  0.10198551738E+01  0.10195709776E+01 0.  0.
     999903    2    3    3    0    0 -0.44639410217E-01  0.55681544958E-01 -0.10829983525E+00  0.13116590749E+00  0.19558363436E-01 0.  0.
         14    1    1    2    0    0 -0.30712802315E-02  0.15161641424E-01  0.18446927150E-01  0.24074826151E-01  0.00000000000E+00 0. -1.
     999901    1    3    3    0    0  0.47710690448E-01 -0.70843186382E-01  0.89852908099E-01  0.88868926635E+00  0.88000000000E+00 0.  1.
        -11    1    4    4    0    0 -0.30888527708E-01  0.48283116770E-01 -0.75116398027E-01  0.94488596574E-01  0.51100000000E-03 0. -1.
         11    1    4    4    0    0 -0.13750882509E-01  0.73984281877E-02 -0.33183437222E-01  0.36677310920E-01  0.51100000000E-03 0.  1.
</event>
<event>
 8    1  0.1094829E+005  0.1043930E+01  0.7957747E-01            NaN
         13   -1    0    0    0    0  0.00000000000E+00  0.00000000000E+00  0.74505805969E-08  0.10566000000E+00  0.10566000000E+00 0.  1.
     999900   -1    0    0    0    0 -0.00000000000E+00 -0.00000000000E+00 -0.74505805969E-08  0.93827000000E+00  0.93827000000E+00 0.  1.
     999902    2    1    2    0    0  0.12124124821E-01 -0.18242351036E-01  0.99771911158E-02  0.10198608887E+01  0.10195768290E+01 0.  0.
     999903    2    3    3    0    0  0.62148807111E-01 -0.11572533050E+00  0.59778334601E-03  0.13301627247E+00  0.20931914676E-01 0.  0.
         14    1    1    2    0    0 -0.12124124821E-01  0.18242351036E-01 -0.99771911158E-02  0.24069111254E-01  0.00000000000E+00 0. -1.
     999901    1    3    3    0    0 -0.50024682290E-01  0.97482979467E-01  0.93794077698E-02  0.88684461627E+00  0.88000000000E+00 0. -1.
        -11    1    4    4    0    0  0.40870894906E-01 -0.73662061076E-01 -0.95895591509E-02  0.84786496909E-01  0.51100000000E-03 0. -1.
         11    1    4    4    0    0  0.21277912205E-01 -0.42063269427E-01  0.10187342497E-01  0.48229775563E-01  0.51100000000E-03 0.  1.
</event>
<event>
 7    1  0.1094829E+005  0.1043930E+01  0.7957747E-01            NaN
         13   -1    0    0    0    0  0.00000000000E+00  0.00000000000E+00  0.74505805969E-08  0.10566000000E+00  0.10566000000E+00 0.  1.
     999900   -1    0    0    0    0 -0.00000000000E+00 -0.00000000000E+00 -0.74505805969E-08  0.93827000000E+00  0.93827000000E+00 0.  1.
     999902    2    1    2    0    0  0.11900508485E-02 -0.85691510335E-02 -0.21604921835E-01  0.10206572860E+01  0.10203919228E+01 0.  0.
         14    1    1    2    0    0 -0.11900508485E-02  0.85691510335E-02  0.21604921835E-01  0.23272714022E-01  0.00000000000E+00 0.  1.
     999901    1    3    3    0    0  0.42042685989E-01  0.59203785771E-01 -0.11774371452E+00  0.89080652108E+00  0.88000000000E+00 0.  1.
        -11    1    3    3    0    0 -0.34814102540E-01 -0.38226730385E-01  0.37379985136E-01  0.63803048997E-01  0.51100000000E-03 0. -1.
         11    1    3    3    0    0 -0.60385326011E-02 -0.29546206419E-01  0.58758807548E-01  0.66047715897E-01  0.51100000000E-03 0.  1.
</event>
<event>
 8    1  0.1094829E+005  0.1043930E+01  0.7957747E-01            NaN
         13   -1    0    0    0    0  0.00000000000E+00  0.00000000000E+00  0.74505805969E-08  0.10566000000E+00  0.10566000000E+00 0.  1.
     999900   -1    0    0    0    0 -0.00000000000E+00 -0.00000000000E+00 -0.74505805969E-08  0.93827000000E+00  0.93827000000E+00 0.  1.
     999902    2    1    2    0    0  0.52694878872E-02 -0.24704640303E-01 -0.14363891509E-01  0.10148712985E+01  0.10144551958E+01 0.  0.
     999903    2    3    3    0    0 -0.17088938024E-02 -0.12398263399E+00  0.26052979775E-01  0.12833966264E+00  0.20437646723E-01 0.  0.
         14    1    1    2    0    0 -0.52694878872E-02  0.24704640303E-01  0.14363891509E-01  0.29058701526E-01  0.00000000000E+00 0.  1.
     999901    1    3    3    0    0  0.69783816897E-02  0.99277993686E-01 -0.40416871284E-01  0.88653163583E+00  0.88000000000E+00 0. -1.
        -11    1    4    4    0    0 -0.94487363195E-02 -0.99898239146E-01  0.21708844138E-01  0.10266680007E+00  0.51100000000E-03 0. -1.
         11    1    4    4    0    0  0.77398425170E-02 -0.24084394843E-01  0.43441356373E-02  0.25672862571E-01  0.51100000000E-03 0.  1.
</event>
<event>
 8    1  0.1094829E+005  0.1043930E+01  0.7957747E-01            NaN
         13   -1    0    0    0    0  0.00000000000E+00  0.00000000000E+00  0.74505805969E-08  0.10566000000E+00  0.10566000000E+00 0. -1.
     999900   -1    0    0    0    0 -0.00000000000E+00 -0.00000000000E+00 -0.74505805969E-08  0.93827000000E+00  0.93827000000E+00 0.  1.
     999902    2    1    2    0    0 -0.29687898330E-03  0.20317241884E-01  0.13694086296E-01  0.10194268073E+01  0.10191322823E+01 0.  0.
     999903    2    3    3    0    0  0.12287207625E+00  0.71761898549E-02  0.38218498355E-01  0.13041346340E+00  0.19949260535E-01 0.  0.
         14    1    1    2    0    0  0.29687898330E-03 -0.20317241884E-01 -0.13694086296E-01  0.24503192738E-01  0.00000000000E+00 0.  1.
     999901    1    3    3    0    0 -0.12316895523E+00  0.13141052029E-01 -0.24524412059E-01  0.88901334386E+00  0.88000000000E+00 0. -1.
        -11    1    4    4    0    0  0.13888398722E-01  0.43905121434E-02  0.10384605379E-01  0.17895959484E-01  0.51100000000E-03 0. -1.
         11    1    4    4    0    0  0.10898367753E+00  0.27856777115E-02  0.27833892976E-01  0.11251750391E+00  0.51100000000E-03 0.  1.
</event>
<event>
 8    1  0.1094829E+005  0.1043930E+01  0.7957747E-01            NaN
         13   -1    0    0    0    0  0.00000000000E+00  0.00000000000E+00  0.74505805969E-08  0.10566000000E+00  0.10566000000E+00 0. -1.
     999900   -1    0    0    0    0 -0.00000000000E+00 -0.00000000000E+00 -0.74505805969E-08  0.93827000000E+00  0.93827000000E+00 0. -1.
     999902    2    1    2    0    0 -0.13259858595E-01  0.20591112631E-01 -0.35362997458E-02  0.10191848351E+01  0.10188843923E+01 0.  0.
     999903    2    3    3    0    0 -0.50312181156E-02  0.12253568312E+00  0.44297762355E-01  0.13197093561E+00  0.20340336841E-01 0.  0.
         14    1    1    2    0    0  0.13259858595E-01 -0.20591112631E-01  0.35362997458E-02  0.24745164886E-01  0.00000000000E+00 0.  1.
     999901    1    3    3    0    0 -0.82286404789E-02 -0.10194457049E+00 -0.47834062101E-01  0.88721389950E+00  0.88000000000E+00 0. -1.
        -11    1    4    4    0    0  0.10792186330E-02  0.55081080012E-02 -0.19834734826E-02  0.59748853267E-02  0.51100000000E-03 0. -1.
         11    1    4    4    0    0 -0.61104367486E-02  0.11702757512E+00  0.46281235838E-01  0.12599605028E+00  0.51100000000E-03 0.  1.
</event>
<event>
 8    1  0.1094829E+005  0.1043930E+01  0.7957747E-01            NaN
         13   -1    0    0    0    0  0.00000000000E+00  0.00000000000E+00  0.74505805969E-08  0.10566000000E+00  0.10566000000E+00 0.  1.
     999900   -1    0    0    0    0 -0.00000000000E+00 -0.00000000000E+00 -0.74505805969E-08  0.93827000000E+00  0.93827000000E+00 0.  1.
     999902    2    1    2    0    0  0.11114215314E-01 -0.18289146944E-01  0.10502123960E-01  0.10200906777E+01  0.10198120795E+01 0.  0.
     999903    2    3    3    0    0  0.10841310245E+00  0.69267751863E-01  0.49914634415E-02  0.13039204824E+00  0.20633693450E-01 0.  0.
         14    1    1    2    0    0 -0.11114215314E-01  0.18289146944E-01 -0.10502123960E-01  0.23839322257E-01  0.00000000000E+00 0. -1.
     999901    1    3    3    0    0 -0.97298887134E-01 -0.87556898807E-01  0.55106605187E-02  0.88969862951E+00  0.88000000000E+00 0.  1.
        -11    1    4    4    0    0  0.56582242360E-01  0.26084775286E-01  0.82360590914E-02  0.62849498348E-01  0.51100000000E-03 0.  1.
         11    1    4    4    0    0  0.51830860088E-01  0.43182976577E-01 -0.32445956498E-02  0.67542549889E-01  0.51100000000E-03 0. -1.
</event>
<event>
 8    1  0.1094829E+005  0.1043930E+01  0.7957747E-01            NaN
         13   -1    0    0    0    0  0.00000000000E+00  0.00000000000E+00  0.74505805969E-08  0.10566000000E+00  0.10566000000E+00 0.  1.
     999900   -1    0    0    0    0 -0.00000000000E+00 -0.00000000000E+00 -0.74505805969E-08  0.93827000000E+00  0.93827000000E+00 0. -1.
     999902    2    1    2    0    0  0.10913858706E-01 -0.18691219017E-01  0.95778511544E-02  0.10202612609E+01  0.10199866819E+01 0.  0.
     999903    2    3    3    0    0 -0.10070458199E+00  0.76954760530E-01 -0.52454367577E-02  0.12794598049E+00  0.16709617377E-01 0.  0.
         14    1    1    2    0    0 -0.10913858706E-01  0.18691219017E-01 -0.95778511544E-02  0.23668739150E-01  0.00000000000E+00 0. -1.
     999901    1    3    3    0    0  0.11161844070E+00 -0.95645979547E-01  0.14823287912E-01  0.89231528036E+00  0.88000000000E+00 0.  1.
        -11    1    4    4    0    0 -0.80719048548E-01  0.62950020648E-01  0.23204083042E-02  0.10239099235E+00  0.51100000000E-03 0.  1.
         11    1    4    4    0    0 -0.19985533446E-01  0.14004739882E-01 -0.75658450618E-02  0.25554988139E-01  0.51100000000E-03 0. -1.
</event>
<event>
 8    1  0.1094829E+005  0.1043930E+01  0.7957747E-01            NaN
         13   -1    0    0    0    0  0.00000000000E+00  0.00000000000E+00  0.74505805969E-08  0.10566000000E+00  0.10566000000E+00 0. -1.
     999900   -1    0    0    0    0 -0.00000000000E+00 -0.00000000000E+00 -0.74505805969E-08  0.93827000000E+00  0.93827000000E+00 0. -1.
     999902    2    1    2    0    0 -0.19719411772E-03  0.23748698845E-01  0.17561763093E-01  0.10143926490E+01  0.10139625196E+01 0.  0.
     999903    2    3    3    0    0  0.41884543954E-01 -0.55578385754E-02  0.11756990132E+00  0.12724476191E+00  0.24152497745E-01 0.  0.
         14    1    1    2    0    0  0.19719411772E-03 -0.23748698845E-01 -0.17561763093E-01  0.29537351020E-01  0.00000000000E+00 0. -1.
     999901    1    3    3    0    0 -0.42081738071E-01  0.29306537421E-01 -0.10000813822E+00  0.88714788707E+00  0.88000000000E+00 0. -1.
        -11    1    4    4    0    0  0.23830369608E-01 -0.81914231793E-02  0.94632435591E-01  0.97931327553E-01  0.51100000000E-03 0.  1.
         11    1    4    4    0    0  0.18054174346E-01  0.26335846039E-02  0.22937465725E-01  0.29313434361E-01  0.51100000000E-03 0. -1.
</event>
<event>
 8    1  0.1094829E+005  0.1043930E+01  0.7957747E-01            NaN
         13   -1    0    0    0    0  0.00000000000E+00  0.00000000000E+00  0.74505805969E-08  0.10566000000E+00  0.10566000000E+00 0. -1.
     999900   -1    0    0    0    0 -0.00000000000E+00 -0.00000000000E+00 -0.74505805969E-08  0.93827000000E+00  0.93827000000E+00 0. -1.
     999902    2    1    2    0    0  0.14521785240E-01 -0.79696975689E-02  0.16402622969E-01  0.10206181068E+01  0.10203518391E+01 0.  0.
     999903    2    3    3    0    0  0.82371031512E-01 -0.50996528707E-01 -0.85807468882E-01  0.13106668538E+00  0.20734549128E-01 0.  0.
         14    1    1    2    0    0 -0.14521785240E-01  0.79696975689E-02 -0.16402622969E-01  0.23311893234E-01  0.00000000000E+00 0.  1.
     999901    1    3    3    0    0 -0.67849246273E-01  0.43026831138E-01  0.10221009185E+00  0.88955142139E+00  0.88000000000E+00 0.  1.
        -11    1    4    4    0    0  0.64715595641E-02 -0.12122384638E-01 -0.13312882751E-01  0.19139677653E-01  0.51100000000E-03 0.  1.
         11    1    4    4    0    0  0.75899471948E-01 -0.38874144069E-01 -0.72494586131E-01  0.11192700773E+00  0.51100000000E-03 0. -1.
</event>
<event>
 8    1  0.1094829E+005  0.1043930E+01  0.7957747E-01            NaN
         13   -1    0    0    0    0  0.00000000000E+00  0.00000000000E+00  0.74505805969E-08  0.10566000000E+00  0.10566000000E+00 0.  1.
     999900   -1    0    0    0    0 -0.00000000000E+00 -0.00000000000E+00 -0.74505805969E-08  0.93827000000E+00  0.93827000000E+00 0.  1.
     999902    2    1    2    0    0 -0.11266961263E-01  0.29370780944E-02 -0.20530316690E-01  0.10203277809E+01  0.10200547611E+01 0.  0.
     999903    2    3    3    0    0  0.12510629004E+00  0.21515141345E-01  0.17819883174E-01  0.12880462026E+00  0.12593524089E-01 0.  0.
         14    1    1    2    0    0  0.11266961263E-01 -0.29370780944E-02  0.20530316690E-01  0.23602219117E-01  0.00000000000E+00 0.  1.
     999901    1    3    3    0    0 -0.13637325130E+00 -0.18578063250E-01 -0.38350199864E-01  0.89152316063E+00  0.88000000000E+00 0.  1.
        -11    1    4    4    0    0  0.10753945572E+00  0.13984119703E-01  0.15140482455E-01  0.10949787884E+00  0.51100000000E-03 0.  1.
         11    1    4    4    0    0  0.17566834314E-01  0.75310216411E-02  0.26794007184E-02  0.19306741413E-01  0.51100000000E-03 0. -1.
</event>
<event>
 8    1  0.1094829E+005  0.1043930E+01  0.7957747E-01            NaN
         13   -1    0    0    0    0  0.00000000000E+00  0.00000000000E+00  0.74505805969E-08  0.10566000000E+00  0.10566000000E+00 0. -1.
     999900   -1    0    0    0    0 -0.00000000000E+00 -0.00000000000E+00 -0.74505805969E-08  0.93827000000E+00  0.93827000000E+00 0.  1.
     999902    2    1    2    0    0 -0.21801559669E-01 -0.10333786384E-01 -0.48436432157E-04  0.10198033034E+01  0.10195178665E+01 0.  0.
     999903    2    3    3    0    0 -0.48826758530E-01 -0.69204034067E-01  0.99002010280E-01  0.13188041344E+00  0.20440027649E-01 0.  0.
         14    1    1    2    0    0  0.21801559669E-01  0.10333786384E-01  0.48436432157E-04  0.24126696647E-01  0.00000000000E+00 0. -1.
     999901    1    3    3    0    0  0.27025198861E-01  0.58870247682E-01 -0.99050446712E-01  0.88792288991E+00  0.88000000000E+00 0.  1.
        -11    1    4    4    0    0 -0.44986724746E-01 -0.64691217701E-01  0.81359858076E-01  0.11326273296E+00  0.51100000000E-03 0.  1.
         11    1    4    4    0    0 -0.38400337837E-02 -0.45128163655E-02  0.17642152203E-01  0.18617680478E-01  0.51100000000E-03 0. -1.
</event>
<event>
 8    1  0.1094829E+005  0.1043930E+01  0.7957747E-01            NaN
         13   -1    0    0    0    0  0.00000000000E+00  0.00000000000E+00  0.74505805969E-08  0.10566000000E+00  0.10566000000E+00 0.  1.
     999900   -1    0    0    0    0 -0.00000000000E+00 -0.00000000000E+00 -0.74505805969E-08  0.93827000000E+00  0.93827000000E+00 0. -1.
     999902    2    1    2    0    0  0.88902585977E-02  0.86727271059E-04  0.23046828662E-01  0.10192277626E+01  0.10189283741E+01 0.  0.
     999903    2    3    3    0    0  0.11847192270E+00  0.34043058963E-01  0.41739044857E-01  0.13158449391E+00  0.19437202440E-01 0.  0.
         14    1    1    2    0    0 -0.88902585977E-02 -0.86727271059E-04 -0.23046828662E-01  0.24702237367E-01  0.00000000000E+00 0. -1.
     999901    1    3    3    0    0 -0.10958166410E+00 -0.33956331692E-01 -0.18692216195E-01  0.88764326873E+00  0.88000000000E+00 0. -1.
        -11    1    4    4    0    0  0.38446716040E-01  0.45147838450E-02  0.63387005151E-02  0.39229752646E-01  0.51100000000E-03 0.  1.
         11    1    4    4    0    0  0.80025206662E-01  0.29528275118E-01  0.35400344342E-01  0.92354741260E-01  0.51100000000E-03 0. -1.
</event>
<event>
 8    1  0.1094829E+005  0.1043930E+01  0.7957747E-01            NaN
         13   -1    0    0    0    0  0.00000000000E+00  0.00000000000E+00  0.74505805969E-08  0.10566000000E+00  0.10566000000E+00 0. -1.
     999900   -1    0    0    0    0 -0.00000000000E+00 -0.00000000000E+00 -0.74505805969E-08  0.93827000000E+00  0.93827000000E+00 0. -1.
     999902    2    1    2    0    0  0.11789015937E-01 -0.17965675636E-01  0.40131661152E-02  0.10220701761E+01  0.10218363827E+01 0.  0.
     999903    2    3    3    0    0 -0.10932628436E+00  0.18057257530E-01  0.66846334871E-01  0.13082690138E+00  0.19207931608E-01 0.  0.
         14    1    1    2    0    0 -0.11789015937E-01  0.17965675636E-01 -0.40131661152E-02  0.21859823881E-01  0.00000000000E+00 0. -1.
     999901    1    3    3    0    0  0.12111530030E+00 -0.36022933167E-01 -0.62833168755E-01  0.89124327474E+00  0.88000000000E+00 0.  1.
        -11    1    4    4    0    0 -0.31756486787E-01 -0.16798030296E-02  0.25320843015E-01  0.40653442699E-01  0.51100000000E-03 0.  1.
         11    1    4    4    0    0 -0.77569797572E-01  0.19737060560E-01  0.41525491856E-01  0.90173458677E-01  0.51100000000E-03 0. -1.
</event>
<event>
 8    1  0.1094829E+005  0.1043930E+01  0.7957747E-01            NaN
         13   -1    0    0    0    0  0.00000000000E+00  0.00000000000E+00  0.74505805969E-08  0.10566000000E+00  0.10566000000E+00 0. -1.
     999900   -1    0    0    0    0 -0.00000000000E+00 -0.00000000000E+00 -0.74505805969E-08  0.93827000000E+00  0.93827000000E+00 0.  1.
     999902    2    1    2    0    0  0.90464113710E-02  0.22465810259E-01  0.21894468140E-02  0.10196124371E+01  0.10193224112E+01 0.  0.
     999903    2    3    3    0    0  0.10693973996E+00 -0.69563282413E-01  0.95141376048E-02  0.12938431531E+00  0.19355205777E-01 0.  0.
         14    1    1    2    0    0 -0.90464113710E-02 -0.22465810259E-01 -0.21894468140E-02  0.24317562926E-01  0.00000000000E+00 0. -1.
     999901    1    3    3    0    0 -0.97893328594E-01  0.92029092672E-01 -0.73246907908E-02  0.89022812176E+00  0.88000000000E+00 0.  1.
        -11    1    4    4    0    0  0.36340918494E-01 -0.19433567989E-01  0.11450107333E-01  0.42774899190E-01  0.51100000000E-03 0. -1.
         11    1    4    4    0    0  0.70598821470E-01 -0.50129714424E-01 -0.19359697279E-02  0.86609416122E-01  0.51100000000E-03 0.  1.
</event>
<event>
 8    1  0.1094829E+005  0.1043930E+01  0.7957747E-01            NaN
         13   -1    0    0    0    0  0.00000000000E+00  0.00000000000E+00  0.74505805969E-08  0.10566000000E+00  0.10566000000E+00 0. -1.
     999900   -1    0    0    0    0 -0.00000000000E+00 -0.00000000000E+00 -0.74505805969E-08  0.93827000000E+00  0.93827000000E+00 0.  1.
     999902    2    1    2    0    0 -0.15108130534E-01 -0.64634580894E-02  0.19017859492E-01  0.10187961408E+01  0.10184860655E+01 0.  0.
     999903    2    3    3    0    0 -0.26499140410E-01 -0.19393135359E-01 -0.12161326982E+00  0.12746340484E+00  0.19463659346E-01 0.  0.
         14    1    1    2    0    0  0.15108130534E-01  0.64634580894E-02 -0.19017859492E-01  0.25133859202E-01  0.00000000000E+00 0. -1.
     999901    1    3    3    0    0  0.11391009876E-01  0.12929677270E-01  0.14063112931E+00  0.89133273596E+00  0.88000000000E+00 0. -1.
        -11    1    4    4    0    0 -0.23159216325E-01 -0.12442635193E-01 -0.61920180729E-01  0.67272121818E-01  0.51100000000E-03 0. -1.
         11    1    4    4    0    0 -0.33399240853E-02 -0.69505001665E-02 -0.59693089092E-01  0.60191283022E-01  0.51100000000E-03 0.  1.
</event>
<event>
 8    1  0.1094829E+005  0.1043930E+01  0.7957747E-01            NaN
         13   -1    0    0    0    0  0.00000000000E+00  0.00000000000E+00  0.74505805969E-08  0.10566000000E+00  0.10566000000E+00 0.  1.
     999900   -1    0    0    0    0 -0.00000000000E+00 -0.00000000000E+00 -0.74505805969E-08  0.93827000000E+00  0.93827000000E+00 0.  1.
     999902    2    1    2    0    0 -0.14415778798E-02  0.71234434838E-02  0.22992178315E-01  0.10198164798E+01  0.10195313583E+01 0.  0.
     999903    2    3    3    0    0  0.55556413689E-01  0.81648073380E-02  0.11859833612E+00  0.13280442073E+00  0.20451641860E-01 0.  0.
         14    1    1    2    0    0  0.14415778798E-02 -0.71234434838E-02 -0.22992178315E-01  0.24113520222E-01  0.00000000000E+00 0. -1.
     999901    1    3    3    0    0 -0.56997991569E-01 -0.10413638543E-02 -0.95606157805E-01  0.88701205905E+00  0.88000000000E+00 0.  1.
        -11    1    4    4    0    0  0.37040570884E-01  0.14401752544E-01  0.71348460065E-01  0.81671771392E-01  0.51100000000E-03 0. -1.
         11    1    4    4    0    0  0.18515842805E-01 -0.62369452063E-02  0.47249876056E-01  0.51132649340E-01  0.51100000000E-03 0.  1.
</event>
<event>
 8    1  0.1094829E+005  0.1043930E+01  0.7957747E-01            NaN
         13   -1    0    0    0    0  0.00000000000E+00  0.00000000000E+00  0.74505805969E-08  0.10566000000E+00  0.10566000000E+00 0. -1.
     999900   -1    0    0    0    0 -0.00000000000E+00 -0.00000000000E+00 -0.74505805969E-08  0.93827000000E+00  0.93827000000E+00 0.  1.
     999902    2    1    2    0    0  0.14018560870E-01  0.12719872142E-01 -0.13502683204E-01  0.10206783839E+01  0.10204135072E+01 0.  0.
     999903    2    3    3    0    0  0.45624744018E-01 -0.14080852779E-01  0.11895331044E+00  0.12980138910E+00  0.20460275271E-01 0.  0.
         14    1    1    2    0    0 -0.14018560870E-01 -0.12719872142E-01  0.13502683204E-01  0.23251616070E-01  0.00000000000E+00 0. -1.
     999901    1    3    3    0    0 -0.31606183147E-01  0.26800724921E-01 -0.13245599365E+00  0.89087699483E+00  0.88000000000E+00 0.  1.
        -11    1    4    4    0    0  0.11961368134E-01 -0.13757958071E-01  0.44272471510E-01  0.47881819019E-01  0.51100000000E-03 0.  1.
         11    1    4    4    0    0  0.33663375884E-01 -0.32289470739E-03  0.74680838934E-01  0.81919570078E-01  0.51100000000E-03 0. -1.
</event>
<event>
 8    1  0.1094829E+005  0.1043930E+01  0.7957747E-01            NaN
         13   -1    0    0    0    0  0.00000000000E+00  0.00000000000E+00  0.74505805969E-08  0.10566000000E+00  0.10566000000E+00 0. -1.
     999900   -1    0    0    0    0 -0.00000000000E+00 -0.00000000000E+00 -0.74505805969E-08  0.93827000000E+00  0.93827000000E+00 0. -1.
     999902    2    1    2    0    0 -0.13069222909E-01 -0.75031014581E-02 -0.36015948906E-02  0.10284357235E+01  0.10283189995E+01 0.  0.
     999903    2    3    3    0    0 -0.14603594409E-01 -0.35721980467E-01  0.13073311505E+00  0.13779299280E+00  0.20160273740E-01 0.  0.
         14    1    1    2    0    0  0.13069222909E-01  0.75031014581E-02  0.36015948906E-02  0.15494276514E-01  0.00000000000E+00 0. -1.
     999901    1    3    3    0    0  0.15343714997E-02  0.28218879009E-01 -0.13433470994E+00  0.89064273069E+00  0.88000000000E+00 0. -1.
        -11    1    4    4    0    0 -0.30766380724E-02 -0.30187850619E-01  0.99951324150E-01  0.10445716992E+00  0.51100000000E-03 0. -1.
         11    1    4    4    0    0 -0.11526956336E-01 -0.55341298479E-02  0.30781790896E-01  0.33335822883E-01  0.51100000000E-03 0.  1.
</event>
<event>
 8    1  0.1094829E+005  0.1043930E+01  0.7957747E-01            NaN
         13   -1    0    0    0    0  0.00000000000E+00  0.00000000000E+00  0.74505805969E-08  0.10566000000E+00  0.10566000000E+00 0.  1.
     999900   -1    0    0    0    0 -0.00000000000E+00 -0.00000000000E+00 -0.74505805969E-08  0.93827000000E+00  0.93827000000E+00 0.  1.
     999902    2    1    2    0    0  0.62769495949E-02  0.75005891352E-02  0.21628003684E-01  0.10201933305E+01  0.10199171546E+01 0.  0.
     999903    2    3    3    0    0  0.54282120930E-01  0.77457859210E-02  0.11992561744E+00  0.13341997874E+00  0.20302491407E-01 0.  0.
         14    1    1    2    0    0 -0.62769495949E-02 -0.75005891352E-02 -0.21628003684E-01  0.23736669458E-01  0.00000000000E+00 0.  1.
     999901    1    3    3    0    0 -0.48005171335E-01 -0.24519678587E-03 -0.98297613753E-01  0.88677335180E+00  0.88000000000E+00 0.  1.
        -11    1    4    4    0    0  0.52379318639E-01  0.61742783088E-02  0.97491904718E-01  0.11084515028E+00  0.51100000000E-03 0.  1.
         11    1    4    4    0    0  0.19028022907E-02  0.15715076122E-02  0.22433712719E-01  0.22574828462E-01  0.51100000000E-03 0. -1.
</event>
<event>
 8    1  0.1094829E+005  0.1043930E+01  0.7957747E-01            NaN
         13   -1    0    0    0    0  0.00000000000E+00  0.00000000000E+00  0.74505805969E-08  0.10566000000E+00  0.10566000000E+00 0. -1.
     999900   -1    0    0    0    0 -0.00000000000E+00 -0.00000000000E+00 -0.74505805969E-08  0.93827000000E+00  0.93827000000E+00 0. -1.
     999902    2    1    2    0    0  0.21141990536E-01 -0.27682176642E-02  0.91780935063E-02  0.10207161207E+01  0.10204521129E+01 0.  0.
     999903    2    3    3    0    0  0.95101709494E-01  0.22499767308E-01  0.89246262465E-01  0.13363133173E+00  0.18489531617E-01 0.  0.
         14    1    1    2    0    0 -0.21141990536E-01  0.27682176642E-02 -0.91780935063E-02  0.23213879324E-01  0.00000000000E+00 0. -1.
     999901    1    3    3    0    0 -0.73959718958E-01 -0.25267984972E-01 -0.80068168958E-01  0.88708478894E+00  0.88000000000E+00 0. -1.
        -11    1    4    4    0    0  0.19516949912E-01 -0.20162425474E-02  0.13276222783E-01  0.23695902183E-01  0.51100000000E-03 0. -1.
         11    1    4    4    0    0  0.75584759582E-01  0.24516009855E-01  0.75970039682E-01  0.10993542955E+00  0.51100000000E-03 0.  1.
</event>
<event>
 8    1  0.1094829E+005  0.1043930E+01  0.7957747E-01            NaN
         13   -1    0    0    0    0  0.00000000000E+00  0.00000000000E+00  0.74505805969E-08  0.10566000000E+00  0.10566000000E+00 0.  1.
     999900   -1    0    0    0    0 -0.00000000000E+00 -0.00000000000E+00 -0.74505805969E-08  0.93827000000E+00  0.93827000000E+00 0.  1.
     999902    2    1    2    0    0 -0.10951818868E-01 -0.17570959727E-01  0.10848557719E-01  0.10205553948E+01  0.10202876760E+01 0.  0.
     999903    2    3    3    0    0  0.59826537892E-01 -0.90152766651E-01  0.73885662890E-01  0.13249494018E+00  0.19725162154E-01 0.  0.
         14    1    1    2    0    0  0.10951818868E-01  0.17570959727E-01 -0.10848557719E-01  0.23374605170E-01  0.00000000000E+00 0. -1.
     999901    1    3    3    0    0 -0.70778356761E-01  0.72581806924E-01 -0.63037105171E-01  0.88806045465E+00  0.88000000000E+00 0.  1.
        -11    1    4    4    0    0  0.20310843071E-01 -0.17089268919E-01  0.13389837974E-01  0.29734194800E-01  0.51100000000E-03 0.  1.
         11    1    4    4    0    0  0.39515694821E-01 -0.73063497732E-01  0.60495824916E-01  0.10276074538E+00  0.51100000000E-03 0. -1.
</event>
<event>
 8    1  0.1094829E+005  0.1043930E+01  0.7957747E-01            NaN
         13   -1    0    0    0    0  0.00000000000E+00  0.00000000000E+00  0.74505805969E-08  0.10566000000E+00  0.10566000000E+00 0. -1.
     999900   -1    0    0    0    0 -0.00000000000E+00 -0.00000000000E+00 -0.74505805969E-08  0.93827000000E+00  0.93827000000E+00 0. -1.
     999902    2    1    2    0    0  0.10275932399E-01 -0.10442975021E-01  0.19157125988E-01  0.10198126620E+01  0.10195274492E+01 0.  0.
     999903    2    3    3    0    0  0.12473380727E+00 -0.23908421917E-01 -0.25914589534E-01  0.13115446964E+00  0.19994840421E-01 0.  0.
         14    1    1    2    0    0 -0.10275932399E-01  0.10442975021E-01 -0.19157125988E-01  0.24117337956E-01  0.00000000000E+00 0.  1.
     999901    1    3    3    0    0 -0.11445787487E+00  0.13465446895E-01  0.45071715522E-01  0.88865819240E+00  0.88000000000E+00 0. -1.
        -11    1    4    4    0    0  0.47512875349E-01 -0.14473623537E-01 -0.17914621246E-02  0.49703415977E-01  0.51100000000E-03 0. -1.
         11    1    4    4    0    0  0.77220931917E-01 -0.94347983796E-02 -0.24123127409E-01  0.81451053668E-01  0.51100000000E-03 0.  1.
</event>
<event>
 8    1  0.1094829E+005  0.1043930E+01  0.7957747E-01            NaN
         13   -1    0    0    0    0  0.00000000000E+00  0.00000000000E+00  0.74505805969E-08  0.10566000000E+00  0.10566000000E+00 0. -1.
     999900   -1    0    0    0    0 -0.00000000000E+00 -0.00000000000E+00 -0.74505805969E-08  0.93827000000E+00  0.93827000000E+00 0. -1.
     999902    2    1    2    0    0 -0.72818458925E-02 -0.87318637196E-02  0.21642389089E-01  0.10194828380E+01  0.10191896748E+01 0.  0.
     999903    2    3    3    0    0 -0.67915460911E-01  0.92754246068E-01  0.60251859340E-01  0.13073846704E+00  0.15697140351E-01 0.  0.
         14    1    1    2    0    0  0.72818458925E-02  0.87318637196E-02 -0.21642389089E-01  0.24447161984E-01  0.00000000000E+00 0. -1.
     999901    1    3    3    0    0  0.60633615019E-01 -0.10148610979E+00 -0.38609470251E-01  0.88874437098E+00  0.88000000000E+00 0. -1.
        -11    1    4    4    0    0 -0.39306439947E-01  0.64947840238E-01  0.43201176310E-01  0.87348846177E-01  0.51100000000E-03 0.  1.
         11    1    4    4    0    0 -0.28609020964E-01  0.27806405831E-01  0.17050683029E-01  0.43389620862E-01  0.51100000000E-03 0. -1.
</event>
<event>
 8    1  0.1094829E+005  0.1043930E+01  0.7957747E-01            NaN
         13   -1    0    0    0    0  0.00000000000E+00  0.00000000000E+00  0.74505805969E-08  0.10566000000E+00  0.10566000000E+00 0. -1.
     999900   -1    0    0    0    0 -0.00000000000E+00 -0.00000000000E+00 -0.74505805969E-08  0.93827000000E+00  0.93827000000E+00 0. -1.
     999902    2    1    2    0    0 -0.20644012577E-01  0.10358254853E-01 -0.44487527853E-02  0.10204085183E+01  0.10201373849E+01 0.  0.
     999903    2    3    3    0    0  0.96729713228E-01  0.71394991488E-01 -0.44251505993E-01  0.12963001954E+00  0.19795553879E-01 0.  0.
         14    1    1    2    0    0  0.20644012577E-01 -0.10358254853E-01  0.44487527853E-02  0.23521481676E-01  0.00000000000E+00 0.  1.
     999901    1    3    3    0    0 -0.11737372580E+00 -0.61036736635E-01  0.39802753208E-01  0.89077849878E+00  0.88000000000E+00 0.  1.
        -11    1    4    4    0    0  0.70267826267E-01  0.54771265763E-01 -0.23591725187E-01  0.92164470269E-01  0.51100000000E-03 0. -1.
         11    1    4    4    0    0  0.26461886960E-01  0.16623725725E-01 -0.20659780806E-01  0.37465549274E-01  0.51100000000E-03 0.  1.
</event>
<event>
 8    1  0.1094829E+005  0.1043930E+01  0.7957747E-01            NaN
         13   -1    0    0    0    0  0.00000000000E+00  0.00000000000E+00  0.74505805969E-08  0.10566000000E+00  0.10566000000E+00 0.  1.
     999900   -1    0    0    0    0 -0.00000000000E+00 -0.00000000000E+00 -0.74505805969E-08  0.93827000000E+00  0.93827000000E+00 0. -1.
     999902    2    1    2    0    0  0.10879939222E-01 -0.10714193410E-01 -0.17944984147E-01  0.10203675410E+01  0.10200954511E+01 0.  0.
     999903    2    3    3    0    0  0.97474403086E-01  0.78619299999E-01  0.29805724601E-01  0.13033428073E+00  0.20405634613E-01 0.  0.
         14    1    1    2    0    0 -0.10879939222E-01  0.10714193410E-01  0.17944984147E-01  0.23562458996E-01  0.00000000000E+00 0.  1.
     999901    1    3    3    0    0 -0.86594463864E-01 -0.89333493409E-01 -0.47750708747E-01  0.89003326028E+00  0.88000000000E+00 0. -1.
        -11    1    4    4    0    0  0.72719884572E-01  0.46636136622E-01  0.18725410450E-01  0.88396905877E-01  0.51100000000E-03 0.  1.
         11    1    4    4    0    0  0.24754518514E-01  0.31983163377E-01  0.11080314151E-01  0.41937374849E-01  0.51100000000E-03 0. -1.
</event>
<event>
 8    1  0.1094829E+005  0.1043930E+01  0.7957747E-01            NaN
         13   -1    0    0    0    0  0.00000000000E+00  0.00000000000E+00  0.74505805969E-08  0.10566000000E+00  0.10566000000E+00 0. -1.
     999900   -1    0    0    0    0 -0.00000000000E+00 -0.00000000000E+00 -0.74505805969E-08  0.93827000000E+00  0.93827000000E+00 0.  1.
     999902    2    1    2    0    0 -0.16387917276E-01  0.15427925413E-01 -0.23489275034E-01  0.10113980041E+01  0.10108746668E+01 0.  0.
     999903    2    3    3    0    0 -0.12005860954E+00 -0.24431782948E-01 -0.57865489365E-02  0.12423973452E+00  0.19774876521E-01 0.  0.
         14    1    1    2    0    0  0.16387917276E-01 -0.15427925413E-01  0.23489275034E-01  0.32531995893E-01  0.00000000000E+00 0.  1.
     999901    1    3    3    0    0  0.10367069227E+00  0.39859708361E-01 -0.17702726097E-01  0.88715826959E+00  0.88000000000E+00 0. -1.
        -11    1    4    4    0    0 -0.83137859821E-01 -0.74932366319E-02 -0.34022437554E-02  0.83545728283E-01  0.51100000000E-03 0. -1.
         11    1    4    4    0    0 -0.36920749722E-01 -0.16938546316E-01 -0.23843051810E-02  0.40694006236E-01  0.51100000000E-03 0.  1.
</event>
<event>
 8    1  0.1094829E+005  0.1043930E+01  0.7957747E-01            NaN
         13   -1    0    0    0    0  0.00000000000E+00  0.00000000000E+00  0.74505805969E-08  0.10566000000E+00  0.10566000000E+00 0. -1.
     999900   -1    0    0    0    0 -0.00000000000E+00 -0.00000000000E+00 -0.74505805969E-08  0.93827000000E+00  0.93827000000E+00 0. -1.
     999902    2    1    2    0    0  0.19023685605E-01 -0.12325670601E-01  0.16979944250E-01  0.10156079013E+01  0.10152129175E+01 0.  0.
     999903    2    3    3    0    0 -0.35369660242E-01 -0.12113005039E+00 -0.28379300198E-03  0.12707255264E+00  0.14961655157E-01 0.  0.
         14    1    1    2    0    0 -0.19023685605E-01  0.12325670601E-01 -0.16979944250E-01  0.28322098730E-01  0.00000000000E+00 0.  1.
     999901    1    3    3    0    0  0.54393345847E-01  0.10880437979E+00  0.17263737252E-01  0.88853534863E+00  0.88000000000E+00 0.  1.
        -11    1    4    4    0    0 -0.32727955495E-01 -0.95732873991E-01  0.36089785097E-02  0.10123827379E+00  0.51100000000E-03 0.  1.
         11    1    4    4    0    0 -0.26417047470E-02 -0.25397176395E-01 -0.38927715117E-02  0.25834278853E-01  0.51100000000E-03 0. -1.
</event>
<event>
 8    1  0.1094829E+005  0.1043930E+01  0.7957747E-01            NaN
         13   -1    0    0    0    0  0.00000000000E+00  0.00000000000E+00  0.74505805969E-08  0.10566000000E+00  0.10566000000E+00 0.  1.
     999900   -1    0    0    0    0 -0.00000000000E+00 -0.00000000000E+00 -0.74505805969E-08  0.93827000000E+00  0.93827000000E+00 0.  1.
     999902    2    1    2    0    0  0.23543157867E-01 -0.29227745717E-02 -0.12843208161E-02  0.10201713727E+01  0.10198946795E+01 0.  0.
     999903    2    3    3    0    0 -0.11298620343E+00 -0.44308308679E-01  0.35488859137E-01  0.12792404388E+00  0.19390551736E-01 0.  0.
         14    1    1    2    0    0 -0.23543157867E-01  0.29227745717E-02  0.12843208161E-02  0.23758627349E-01  0.00000000000E+00 0.  1.
     999901    1    3    3    0    0  0.13652936130E+00  0.41385534107E-01 -0.36773179953E-01  0.89224732877E+00  0.88000000000E+00 0.  1.
        -11    1    4    4    0    0 -0.79833033408E-01 -0.40389081298E-01  0.27379154561E-01  0.93565326572E-01  0.51100000000E-03 0.  1.
         11    1    4    4    0    0 -0.33153170024E-01 -0.39192273811E-02  0.81097045760E-02  0.34358717311E-01  0.51100000000E-03 0. -1.
</event>
<event>
 8    1  0.1094829E+005  0.1043930E+01  0.7957747E-01            NaN
         13   -1    0    0    0    0  0.00000000000E+00  0.00000000000E+00  0.74505805969E-08  0.10566000000E+00  0.10566000000E+00 0.  1.
     999900   -1    0    0    0    0 -0.00000000000E+00 -0.00000000000E+00 -0.74505805969E-08  0.93827000000E+00  0.93827000000E+00 0. -1.
     999902    2    1    2    0    0  0.57360893374E-03  0.72860263353E-02  0.21828207496E-01  0.10209107505E+01  0.10206512012E+01 0.  0.
     999903    2    3    3    0    0  0.85431454149E-01 -0.27391373440E-01 -0.91385394147E-01  0.12893502458E+00  0.14970958695E-01 0.  0.
         14    1    1    2    0    0 -0.57360893374E-03 -0.72860263353E-02 -0.21828207496E-01  0.23019249542E-01  0.00000000000E+00 0. -1.
     999901    1    3    3    0    0 -0.84857845216E-01  0.34677399775E-01  0.11321360164E+00  0.89197572587E+00  0.88000000000E+00 0.  1.
        -11    1    4    4    0    0  0.36417799901E-01 -0.61913138300E-02 -0.44793688095E-01  0.58063104729E-01  0.51100000000E-03 0.  1.
         11    1    4    4    0    0  0.49013654249E-01 -0.21200059610E-01 -0.46591706052E-01  0.70871919856E-01  0.51100000000E-03 0. -1.
</event>
<event>
 8    1  0.1094829E+005  0.1043930E+01  0.7957747E-01            NaN
         13   -1    0    0    0    0  0.00000000000E+00  0.00000000000E+00  0.74505805969E-08  0.10566000000E+00  0.10566000000E+00 0. -1.
     999900   -1    0    0    0    0 -0.00000000000E+00 -0.00000000000E+00 -0.74505805969E-08  0.93827000000E+00  0.93827000000E+00 0.  1.
     999902    2    1    2    0    0  0.20392786404E-01 -0.98969679621E-02  0.48856383163E-02  0.10207419605E+01  0.10204785470E+01 0.  0.
     999903    2    3    3    0    0  0.52447479455E-03 -0.53079163135E-01  0.11925714027E+00  0.13206862785E+00  0.20054533727E-01 0.  0.
         14    1    1    2    0    0 -0.20392786404E-01  0.98969679621E-02 -0.48856383163E-02  0.23188039459E-01  0.00000000000E+00 0.  1.
     999901    1    3    3    0    0  0.19868311610E-01  0.43182195173E-01 -0.11437150195E+00  0.88867333270E+00  0.88000000000E+00 0.  1.
        -11    1    4    4    0    0 -0.91305447591E-02 -0.26514863372E-01  0.67484235798E-01  0.73080695327E-01  0.51100000000E-03 0.  1.
         11    1    4    4    0    0  0.96550195537E-02 -0.26564299764E-01  0.51772904470E-01  0.58987932518E-01  0.51100000000E-03 0. -1.
</event>
<event>
 8    1  0.1094829E+005  0.1043930E+01  0.7957747E-01            NaN
         13   -1    0    0    0    0  0.00000000000E+00  0.00000000000E+00  0.74505805969E-08  0.10566000000E+00  0.10566000000E+00 0. -1.
     999900   -1    0    0    0    0 -0.00000000000E+00 -0.00000000000E+00 -0.74505805969E-08  0.93827000000E+00  0.93827000000E+00 0. -1.
     999902    2    1    2    0    0 -0.35757806487E-02  0.19156414372E-01 -0.94065636107E-02  0.10222911956E+01  0.10220621560E+01 0.  0.
     999903    2    3    3    0    0 -0.47144958777E-01 -0.11977245373E+00 -0.42283864969E-02  0.13031231845E+00  0.19882989638E-01 0.  0.
         14    1    1    2    0    0  0.35757806487E-02 -0.19156414372E-01  0.94065636107E-02  0.21638804445E-01  0.00000000000E+00 0. -1.
     999901    1    3    3    0    0  0.43569178128E-01  0.13892886811E+00 -0.51781771138E-02  0.89197887710E+00  0.88000000000E+00 0. -1.
        -11    1    4    4    0    0 -0.95128712423E-02 -0.50662433624E-01 -0.15991134677E-02  0.51575141152E-01  0.51100000000E-03 0. -1.
         11    1    4    4    0    0 -0.37632087534E-01 -0.69110020111E-01 -0.26292730292E-02  0.78737177303E-01  0.51100000000E-03 0.  1.
</event>
<event>
 8    1  0.1094829E+005  0.1043930E+01  0.7957747E-01            NaN
         13   -1    0    0    0    0  0.00000000000E+00  0.00000000000E+00  0.74505805969E-08  0.10566000000E+00  0.10566000000E+00 0. -1.
     999900   -1    0    0    0    0 -0.00000000000E+00 -0.00000000000E+00 -0.74505805969E-08  0.93827000000E+00  0.93827000000E+00 0. -1.
     999902    2    1    2    0    0  0.10429530769E-01  0.17596921139E-01  0.11056556896E-01  0.10206775981E+01  0.10204127033E+01 0.  0.
     999903    2    3    3    0    0  0.45396145266E-01  0.11044825027E+00  0.57084421242E-01  0.13390671573E+00  0.20316283537E-01 0.  0.
         14    1    1    2    0    0 -0.10429530769E-01 -0.17596921139E-01 -0.11056556896E-01  0.23252401941E-01  0.00000000000E+00 0.  1.
     999901    1    3    3    0    0 -0.34966614496E-01 -0.92851329129E-01 -0.46027864346E-01  0.88677088233E+00  0.88000000000E+00 0. -1.
        -11    1    4    4    0    0  0.33224486688E-01  0.91140769902E-01  0.53542017110E-01  0.11080394926E+00  0.51100000000E-03 0.  1.
         11    1    4    4    0    0  0.12171658577E-01  0.19307480365E-01  0.35424041322E-02  0.23102766471E-01  0.51100000000E-03 0. -1.
</event>
<event>
 8    1  0.1094829E+005  0.1043930E+01  0.7957747E-01            NaN
         13   -1    0    0    0    0  0.00000000000E+00  0.00000000000E+00  0.74505805969E-08  0.10566000000E+00  0.10566000000E+00 0.  1.
     999900   -1    0    0    0    0 -0.00000000000E+00 -0.00000000000E+00 -0.74505805969E-08  0.93827000000E+00  0.93827000000E+00 0.  1.
     999902    2    1    2    0    0  0.11104425683E-01 -0.19139443864E-01  0.25502092526E-02  0.10216560208E+01  0.10214131851E+01 0.  0.
     999903    2    3    3    0    0  0.41154195170E-01 -0.29576964757E-01 -0.12075951230E+00  0.13248943468E+00  0.20053076184E-01 0.  0.
         14    1    1    2    0    0 -0.11104425683E-01  0.19139443864E-01 -0.25502092526E-02  0.22273979177E-01  0.00000000000E+00 0. -1.
     999901    1    3    3    0    0 -0.30049769488E-01  0.10437520894E-01  0.12330972156E+00  0.88916658615E+00  0.88000000000E+00 0. -1.
        -11    1    4    4    0    0  0.28253762531E-01 -0.28203666965E-01 -0.75523178336E-01  0.85426772820E-01  0.51100000000E-03 0.  1.
         11    1    4    4    0    0  0.12900432639E-01 -0.13732977926E-02 -0.45236333969E-01  0.47062661857E-01  0.51100000000E-03 0. -1.
</event>
<event>
 8    1  0.1094829E+005  0.1043930E+01  0.7957747E-01            NaN
         13   -1    0    0    0    0  0.00000000000E+00  0.00000000000E+00  0.74505805969E-08  0.10566000000E+00  0.10566000000E+00 0. -1.
     999900   -1    0    0    0    0 -0.00000000000E+00 -0.00000000000E+00 -0.74505805969E-08  0.93827000000E+00  0.93827000000E+00 0. -1.
     999902    2    1    2    0    0  0.80305033356E-02 -0.11904685930E-01 -0.18046396746E-01  0.10208674120E+01  0.10206068733E+01 0.  0.
     999903    2    3    3    0    0 -0.94114318700E-02  0.77668314784E-01  0.99793024818E-01  0.12833524290E+00  0.19757140391E-01 0.  0.
         14    1    1    2    0    0 -0.80305033356E-02  0.11904685930E-01  0.18046396746E-01  0.23062588025E-01  0.00000000000E+00 0. -1.
     999901    1    3    3    0    0  0.17441935206E-01 -0.89573000714E-01 -0.11783942156E+00  0.89253216908E+00  0.88000000000E+00 0. -1.
        -11    1    4    4    0    0 -0.32966482060E-02  0.24280907886E-01  0.17759214274E-01  0.30266833164E-01  0.51100000000E-03 0. -1.
         11    1    4    4    0    0 -0.61147836640E-02  0.53387406898E-01  0.82033810544E-01  0.98068409735E-01  0.51100000000E-03 0.  1.
</event>
<event>
 8    1  0.1094829E+005  0.1043930E+01  0.7957747E-01            NaN
         13   -1    0    0    0    0  0.00000000000E+00  0.00000000000E+00  0.74505805969E-08  0.10566000000E+00  0.10566000000E+00 0. -1.
     999900   -1    0    0    0    0 -0.00000000000E+00 -0.00000000000E+00 -0.74505805969E-08  0.93827000000E+00  0.93827000000E+00 0. -1.
     999902    2    1    2    0    0  0.17675687824E-01 -0.80060362979E-02  0.13189731949E-01  0.10204673576E+01  0.10201975948E+01 0.  0.
     999903    2    3    3    0    0  0.54102528706E-01  0.11690076167E+00  0.11953787555E-01  0.13089996252E+00  0.19975871926E-01 0.  0.
         14    1    1    2    0    0 -0.17675687824E-01  0.80060362979E-02 -0.13189731949E-01  0.23462642352E-01  0.00000000000E+00 0. -1.
     999901    1    3    3    0    0 -0.36426840881E-01 -0.12490679797E+00  0.12359443938E-02  0.88956739513E+00  0.88000000000E+00 0. -1.
        -11    1    4    4    0    0  0.25145551723E-01  0.51636402014E-01 -0.45497577384E-02  0.57615780832E-01  0.51100000000E-03 0.  1.
         11    1    4    4    0    0  0.28956976982E-01  0.65264359657E-01  0.16503545294E-01  0.73284181688E-01  0.51100000000E-03 0. -1.
</event>
<event>
 8    1  0.1094829E+005  0.1043930E+01  0.7957747E-01            NaN
         13   -1    0    0    0    0  0.00000000000E+00  0.00000000000E+00  0.74505805969E-08  0.10566000000E+00  0.10566000000E+00 0. -1.
     999900   -1    0    0    0    0 -0.00000000000E+00 -0.00000000000E+00 -0.74505805969E-08  0.93827000000E+00  0.93827000000E+00 0. -1.
     999902    2    1    2    0    0  0.12957408723E-01 -0.10944435973E-01 -0.16545902773E-01  0.10202352323E+01  0.10199600419E+01 0.  0.
     999903    2    3    3    0    0  0.12958811474E+00  0.15611429022E-02  0.95990048135E-02  0.13206707967E+00  0.23538393933E-01 0.  0.
         14    1    1    2    0    0 -0.12957408723E-01  0.10944435973E-01  0.16545902773E-01  0.23694767738E-01  0.00000000000E+00 0. -1.
     999901    1    3    3    0    0 -0.11663070602E+00 -0.12505578876E-01 -0.26144907587E-01  0.88816815259E+00  0.88000000000E+00 0. -1.
        -11    1    4    4    0    0  0.12839368526E-01 -0.32660863478E-02  0.74283362188E-02  0.15197302529E-01  0.51100000000E-03 0. -1.
         11    1    4    4    0    0  0.11674874622E+00  0.48272292499E-02  0.21706685947E-02  0.11686977714E+00  0.51100000000E-03 0.  1.
</event>
<event>
 8    1  0.1094829E+005  0.1043930E+01  0.7957747E-01            NaN
         13   -1    0    0    0    0  0.00000000000E+00  0.00000000000E+00  0.74505805969E-08  0.10566000000E+00  0.10566000000E+00 0.  1.
     999900   -1    0    0    0    0 -0.00000000000E+00 -0.00000000000E+00 -0.74505805969E-08  0.93827000000E+00  0.93827000000E+00 0.  1.
     999902    2    1    2    0    0 -0.15027330201E-02 -0.19721662099E-01 -0.12607222705E-01  0.10204748465E+01  0.10202052578E+01 0.  0.
     999903    2    3    3    0    0  0.55249662131E-02  0.12088896408E+00  0.36649530634E-01  0.12792402747E+00  0.19408807811E-01 0.  0.
         14    1    1    2    0    0  0.15027330201E-02  0.19721662099E-01  0.12607222705E-01  0.23455153523E-01  0.00000000000E+00 0.  1.
     999901    1    3    3    0    0 -0.70276992332E-02 -0.14061062618E+00 -0.49256753339E-01  0.89255081900E+00  0.88000000000E+00 0.  1.
        -11    1    4    4    0    0 -0.61209393650E-02  0.73505873335E-01  0.22542882887E-01  0.77129903432E-01  0.51100000000E-03 0. -1.
         11    1    4    4    0    0  0.11645905578E-01  0.47383090749E-01  0.14106647747E-01  0.50794124043E-01  0.51100000000E-03 0.  1.
</event>
<event>
 8    1  0.1094829E+005  0.1043930E+01  0.7957747E-01            NaN
         13   -1    0    0    0    0  0.00000000000E+00  0.00000000000E+00  0.74505805969E-08  0.10566000000E+00  0.10566000000E+00 0. -1.
     999900   -1    0    0    0    0 -0.00000000000E+00 -0.00000000000E+00 -0.74505805969E-08  0.93827000000E+00  0.93827000000E+00 0. -1.
     999902    2    1    2    0    0 -0.61776617778E-02 -0.48109922059E-02  0.22837005691E-01  0.10197879624E+01  0.10195021580E+01 0.  0.
     999903    2    3    3    0    0  0.35974366983E-01  0.40414264524E-01  0.11874103252E+00  0.13242124015E+00  0.22549593822E-01 0.  0.
         14    1    1    2    0    0  0.61776617778E-02  0.48109922059E-02 -0.22837005691E-01  0.24142037610E-01  0.00000000000E+00 0.  1.
     999901    1    3    3    0    0 -0.42152028760E-01 -0.45225256730E-01 -0.95904026833E-01  0.88736672224E+00  0.88000000000E+00 0. -1.
        -11    1    4    4    0    0  0.20330902859E-01  0.75208449036E-02  0.36162558334E-01  0.42165157007E-01  0.51100000000E-03 0. -1.
         11    1    4    4    0    0  0.15643464124E-01  0.32893419621E-01  0.82578474189E-01  0.90256083144E-01  0.51100000000E-03 0.  1.
</event>
<event>
 8    1  0.1094829E+005  0.1043930E+01  0.7957747E-01            NaN
         13   -1    0    0    0    0  0.00000000000E+00  0.00000000000E+00  0.74505805969E-08  0.10566000000E+00  0.10566000000E+00 0.  1.
     999900   -1    0    0    0    0 -0.00000000000E+00 -0.00000000000E+00 -0.74505805969E-08  0.93827000000E+00  0.93827000000E+00 0.  1.
     999902    2    1    2    0    0 -0.78712532448E-02  0.16215007882E-01  0.16607678171E-01  0.10194208572E+01  0.10191261874E+01 0.  0.
     999903    2    3    3    0    0 -0.89905130321E-01  0.90410631370E-01 -0.10298024295E-01  0.13208863958E+00  0.32929389304E-01 0.  0.
         14    1    1    2    0    0  0.78712532448E-02 -0.16215007882E-01 -0.16607678171E-01  0.24509142834E-01  0.00000000000E+00 0. -1.
     999901    1    3    3    0    0  0.82033877077E-01 -0.74195623488E-01  0.26905702466E-01  0.88733221758E+00  0.88000000000E+00 0. -1.
        -11    1    4    4    0    0 -0.71058840744E-01  0.86457973582E-01 -0.12884704537E-01  0.11265263768E+00  0.51100000000E-03 0.  1.
         11    1    4    4    0    0 -0.18846289578E-01  0.39526577881E-02  0.25866802417E-02  0.19436001907E-01  0.51100000000E-03 0. -1.
</event>
<event>
 8    1  0.1094829E+005  0.1043930E+01  0.7957747E-01            NaN
         13   -1    0    0    0    0  0.00000000000E+00  0.00000000000E+00  0.74505805969E-08  0.10566000000E+00  0.10566000000E+00 0. -1.
     999900   -1    0    0    0    0 -0.00000000000E+00 -0.00000000000E+00 -0.74505805969E-08  0.93827000000E+00  0.93827000000E+00 0.  1.
     999902    2    1    2    0    0  0.23035193161E-01 -0.49700402728E-03 -0.84619650180E-04  0.10208892904E+01  0.10206292515E+01 0.  0.
     999903    2    3    3    0    0  0.68163135129E-01  0.10018354823E+00  0.46935129922E-01  0.13275418720E+00  0.27162685278E-01 0.  0.
         14    1    1    2    0    0 -0.23035193161E-01  0.49700402728E-03  0.84619650180E-04  0.23040709569E-01  0.00000000000E+00 0.  1.
     999901    1    3    3    0    0 -0.45127941968E-01 -0.10068055225E+00 -0.47019749572E-01  0.88813510323E+00  0.88000000000E+00 0.  1.
        -11    1    4    4    0    0  0.31877383196E-01  0.55890557736E-01  0.11351988313E-01  0.65337973363E-01  0.51100000000E-03 0. -1.
         11    1    4    4    0    0  0.36285751933E-01  0.44292990490E-01  0.35583141609E-01  0.67416213833E-01  0.51100000000E-03 0.  1.
</event>
<event>
 8    1  0.1094829E+005  0.1043930E+01  0.7957747E-01            NaN
         13   -1    0    0    0    0  0.00000000000E+00  0.00000000000E+00  0.74505805969E-08  0.10566000000E+00  0.10566000000E+00 0. -1.
     999900   -1    0    0    0    0 -0.00000000000E+00 -0.00000000000E+00 -0.74505805969E-08  0.93827000000E+00  0.93827000000E+00 0. -1.
     999902    2    1    2    0    0 -0.69275448829E-02 -0.22359178510E-01 -0.68447739141E-03  0.10205122236E+01  0.10202435034E+01 0.  0.
     999903    2    3    3    0    0  0.96292973954E-01  0.53566612061E-01  0.63651389837E-01  0.12890788031E+00  0.20591828883E-01 0.  0.
         14    1    1    2    0    0  0.69275448829E-02  0.22359178510E-01  0.68447739141E-03  0.23417776390E-01  0.00000000000E+00 0. -1.
     999901    1    3    3    0    0 -0.10322051884E+00 -0.75925790571E-01 -0.64335867228E-01  0.89160434330E+00  0.88000000000E+00 0.  1.
        -11    1    4    4    0    0  0.67868871069E-01  0.44290364511E-01  0.54388791254E-01  0.97602365667E-01  0.51100000000E-03 0.  1.
         11    1    4    4    0    0  0.28424102885E-01  0.92762475498E-02  0.92625985825E-02  0.31305514641E-01  0.51100000000E-03 0. -1.
</event>
<event>
 8    1  0.1094829E+005  0.1043930E+01  0.7957747E-01            NaN
         13   -1    0    0    0    0  0.00000000000E+00  0.00000000000E+00  0.74505805969E-08  0.10566000000E+00  0.10566000000E+00 0.  1.
     999900   -1    0    0    0    0 -0.00000000000E+00 -0.00000000000E+00 -0.74505805969E-08  0.93827000000E+00  0.93827000000E+00 0. -1.
     999902    2    1    2    0    0 -0.97645552570E-02 -0.19127382583E-01 -0.96507095458E-02  0.10203855846E+01  0.10201139160E+01 0.  0.
     999903    2    3    3    0    0 -0.12284038285E+00 -0.30068611447E-01 -0.34907704085E-01  0.13272361677E+00  0.20078087379E-01 0.  0.
         14    1    1    2    0    0  0.97645552570E-02  0.19127382583E-01  0.96507095458E-02  0.23544415444E-01  0.00000000000E+00 0.  1.
     999901    1    3    3    0    0  0.11307582759E+00  0.10941228863E-01  0.25256994539E-01  0.88766196778E+00  0.88000000000E+00 0.  1.
        -11    1    4    4    0    0 -0.95948804463E-01 -0.27617783620E-01 -0.34735109274E-01  0.10571520225E+00  0.51100000000E-03 0. -1.
         11    1    4    4    0    0 -0.26891578383E-01 -0.24508278266E-02 -0.17259481116E-03  0.27008414521E-01  0.51100000000E-03 0.  1.
</event>
<event>
 8    1  0.1094829E+005  0.1043930E+01  0.7957747E-01            NaN
         13   -1    0    0    0    0  0.00000000000E+00  0.00000000000E+00  0.74505805969E-08  0.10566000000E+00  0.10566000000E+00 0.  1.
     999900   -1    0    0    0    0 -0.00000000000E+00 -0.00000000000E+00 -0.74505805969E-08  0.93827000000E+00  0.93827000000E+00 0.  1.
     999902    2    1    2    0    0 -0.19849909649E-01 -0.12949178464E-01 -0.28737609396E-02  0.10200561935E+01  0.10197767791E+01 0.  0.
     999903    2    3    3    0    0  0.16233655371E-01  0.12527306874E+00 -0.13155223842E-01  0.12847718870E+00  0.19402442690E-01 0.  0.
         14    1    1    2    0    0  0.19849909649E-01  0.12949178464E-01  0.28737609396E-02  0.23873806524E-01  0.00000000000E+00 0. -1.
     999901    1    3    3    0    0 -0.36083565021E-01 -0.13822224720E+00  0.10281462903E-01  0.89157900478E+00  0.88000000000E+00 0. -1.
        -11    1    4    4    0    0  0.17627376795E-01  0.77583202499E-01 -0.13852715986E-01  0.80759126939E-01  0.51100000000E-03 0.  1.
         11    1    4    4    0    0 -0.13937214238E-02  0.47689866241E-01  0.69749214341E-03  0.47718061757E-01  0.51100000000E-03 0. -1.
</event>
<event>
 8    1  0.1094829E+005  0.1043930E+01  0.7957747E-01            NaN
         13   -1    0    0    0    0  0.00000000000E+00  0.00000000000E+00  0.74505805969E-08  0.10566000000E+00  0.10566000000E+00 0.  1.
     999900   -1    0    0    0    0 -0.00000000000E+00 -0.00000000000E+00 -0.74505805969E-08  0.93827000000E+00  0.93827000000E+00 0. -1.
     999902    2    1    2    0    0 -0.16972465664E-01 -0.16030921659E-01 -0.37821692300E-02  0.10202792105E+01  0.10200050527E+01 0.  0.
     999903    2    3    3    0    0  0.10742108803E+00 -0.70037381473E-01  0.64761045208E-02  0.12983230805E+00  0.19234430766E-01 0.  0.
         14    1    1    2    0    0  0.16972465664E-01  0.16030921659E-01  0.37821692300E-02  0.23650789502E-01  0.00000000000E+00 0.  1.
     999901    1    3    3    0    0 -0.12439355369E+00  0.54006459813E-01 -0.10258273751E-01  0.89044690245E+00  0.88000000000E+00 0. -1.
        -11    1    4    4    0    0  0.60472119467E-01 -0.28249690160E-01  0.12169712151E-02  0.66758253175E-01  0.51100000000E-03 0.  1.
         11    1    4    4    0    0  0.46948968561E-01 -0.41787691313E-01  0.52591333057E-02  0.63074054874E-01  0.51100000000E-03 0. -1.
</event>
<event>
 8    1  0.1094829E+005  0.1043930E+01  0.7957747E-01            NaN
         13   -1    0    0    0    0  0.00000000000E+00  0.00000000000E+00  0.74505805969E-08  0.10566000000E+00  0.10566000000E+00 0. -1.
     999900   -1    0    0    0    0 -0.00000000000E+00 -0.00000000000E+00 -0.74505805969E-08  0.93827000000E+00  0.93827000000E+00 0. -1.
     999902    2    1    2    0    0 -0.13514418648E-01 -0.19418023337E-01  0.28436616007E-02  0.10201017488E+01  0.10198234124E+01 0.  0.
     999903    2    3    3    0    0 -0.11358381926E+00 -0.23454984698E-01 -0.60007006559E-01  0.13219387723E+00  0.20565992204E-01 0.  0.
         14    1    1    2    0    0  0.13514418648E-01  0.19418023337E-01 -0.28436616007E-02  0.23828251152E-01  0.00000000000E+00 0.  1.
     999901    1    3    3    0    0  0.10006940061E+00  0.40369613617E-02  0.62850668160E-01  0.88790787162E+00  0.88000000000E+00 0.  1.
        -11    1    4    4    0    0 -0.95242648263E-01 -0.20699416265E-01 -0.41332243338E-01  0.10586899141E+00  0.51100000000E-03 0.  1.
         11    1    4    4    0    0 -0.18341170997E-01 -0.27555684332E-02 -0.18674763221E-01  0.26324885817E-01  0.51100000000E-03 0. -1.
</event>
<event>
 7    1  0.1094829E+005  0.1043930E+01  0.7957747E-01            NaN
         13   -1    0    0    0    0  0.00000000000E+00  0.00000000000E+00  0.74505805969E-08  0.10566000000E+00  0.10566000000E+00 0.  1.
     999900   -1    0    0    0    0 -0.00000000000E+00 -0.00000000000E+00 -0.74505805969E-08  0.93827000000E+00  0.93827000000E+00 0.  1.
     999903    2    1    2    0    0 -0.41249893342E-01 -0.70017143205E-01 -0.83574513010E-01  0.11787383245E+00  0.17481050006E-01 0.  0.
         14    1    1    2    0    0 -0.16798095329E-01  0.34508915220E-01  0.13366845258E-01  0.40641281826E-01  0.00000000000E+00 0.  1.
     999901    1    1    2    0    0  0.58047988671E-01  0.35508227985E-01  0.70207667752E-01  0.88541488572E+00  0.88000000000E+00 0. -1.
        -11    1    3    3    0    0 -0.33602092015E-01 -0.66696287280E-01 -0.76713018193E-01  0.10706373619E+00  0.51100000000E-03 0.  1.
         11    1    3    3    0    0 -0.76478013275E-02 -0.33208559248E-02 -0.68614948170E-02  0.10810096269E-01  0.51100000000E-03 0. -1.
</event>
<event>
 8    1  0.1094829E+005  0.1043930E+01  0.7957747E-01            NaN
         13   -1    0    0    0    0  0.00000000000E+00  0.00000000000E+00  0.74505805969E-08  0.10566000000E+00  0.10566000000E+00 0. -1.
     999900   -1    0    0    0    0 -0.00000000000E+00 -0.00000000000E+00 -0.74505805969E-08  0.93827000000E+00  0.93827000000E+00 0.  1.
     999902    2    1    2    0    0  0.21882039580E-01 -0.51537314240E-02  0.83155876263E-02  0.10199605694E+01  0.10196788855E+01 0.  0.
     999903    2    3    3    0    0  0.86293503272E-01 -0.91620082778E-01 -0.35511135399E-01  0.13229731785E+00  0.20018274101E-01 0.  0.
         14    1    1    2    0    0 -0.21882039580E-01  0.51537314240E-02 -0.83155876263E-02  0.23969430559E-01  0.00000000000E+00 0.  1.
     999901    1    3    3    0    0 -0.64411463693E-01  0.86466351354E-01  0.43826723025E-01  0.88766325159E+00  0.88000000000E+00 0. -1.
        -11    1    4    4    0    0  0.31264364949E-01 -0.47624657853E-01 -0.14902289783E-01  0.58888945593E-01  0.51100000000E-03 0.  1.
         11    1    4    4    0    0  0.55029138324E-01 -0.43995424925E-01 -0.20608845616E-01  0.73408372258E-01  0.51100000000E-03 0. -1.
</event>
<event>
 8    1  0.1094829E+005  0.1043930E+01  0.7957747E-01            NaN
         13   -1    0    0    0    0  0.00000000000E+00  0.00000000000E+00  0.74505805969E-08  0.10566000000E+00  0.10566000000E+00 0.  1.
     999900   -1    0    0    0    0 -0.00000000000E+00 -0.00000000000E+00 -0.74505805969E-08  0.93827000000E+00  0.93827000000E+00 0. -1.
     999902    2    1    2    0    0  0.42221500972E-02 -0.64871278222E-03  0.22937020722E-01  0.10205985984E+01  0.10203318797E+01 0.  0.
     999903    2    3    3    0    0 -0.11233205958E+00 -0.40825488792E-01  0.50853955013E-01  0.13156630861E+00  0.20936969090E-01 0.  0.
         14    1    1    2    0    0 -0.42221500972E-02  0.64871278222E-03 -0.22937020722E-01  0.23331401572E-01  0.00000000000E+00 0. -1.
     999901    1    3    3    0    0  0.11655420968E+00  0.40176776010E-01 -0.27916934291E-01  0.88903228982E+00  0.88000000000E+00 0. -1.
        -11    1    4    4    0    0 -0.76883069135E-01 -0.19267938153E-01  0.39439693675E-01  0.88532538191E-01  0.51100000000E-03 0. -1.
         11    1    4    4    0    0 -0.35448990448E-01 -0.21557550639E-01  0.11414261338E-01  0.43033770416E-01  0.51100000000E-03 0.  1.
</event>
<event>
 8    1  0.1094829E+005  0.1043930E+01  0.7957747E-01            NaN
         13   -1    0    0    0    0  0.00000000000E+00  0.00000000000E+00  0.74505805969E-08  0.10566000000E+00  0.10566000000E+00 0.  1.
     999900   -1    0    0    0    0 -0.00000000000E+00 -0.00000000000E+00 -0.74505805969E-08  0.93827000000E+00  0.93827000000E+00 0.  1.
     999902    2    1    2    0    0 -0.19960337824E-01  0.11607655091E-01  0.57836139355E-02  0.10201265773E+01  0.10198488274E+01 0.  0.
     999903    2    3    3    0    0  0.12243675656E+00 -0.29255048014E-01  0.82405141228E-02  0.12774060174E+00  0.20078298411E-01 0.  0.
         14    1    1    2    0    0  0.19960337824E-01 -0.11607655091E-01 -0.57836139355E-02  0.23803422714E-01  0.00000000000E+00 0. -1.
     999901    1    3    3    0    0 -0.14239709439E+00  0.40862703105E-01 -0.24569001873E-02  0.89238597555E+00  0.88000000000E+00 0. -1.
        -11    1    4    4    0    0  0.90190652650E-01 -0.17338394244E-01  0.13922769646E-01  0.92892832748E-01  0.51100000000E-03 0.  1.
         11    1    4    4    0    0  0.32246103915E-01 -0.11916653771E-01 -0.56822555231E-02  0.34847768990E-01  0.51100000000E-03 0. -1.
</event>
<event>
 8    1  0.1094829E+005  0.1043930E+01  0.7957747E-01            NaN
         13   -1    0    0    0    0  0.00000000000E+00  0.00000000000E+00  0.74505805969E-08  0.10566000000E+00  0.10566000000E+00 0. -1.
     999900   -1    0    0    0    0 -0.00000000000E+00 -0.00000000000E+00 -0.74505805969E-08  0.93827000000E+00  0.93827000000E+00 0.  1.
     999902    2    1    2    0    0 -0.22069023142E-01 -0.45920859667E-03 -0.97808897975E-02  0.10197862956E+01  0.10195004514E+01 0.  0.
     999903    2    3    3    0    0 -0.75874652967E-01  0.78297681448E-01  0.70075855139E-01  0.13103729100E+00  0.19304307219E-01 0.  0.
         14    1    1    2    0    0  0.22069023142E-01  0.45920859667E-03  0.97808897975E-02  0.24143704360E-01  0.00000000000E+00 0.  1.
     999901    1    3    3    0    0  0.53805629825E-01 -0.78756890044E-01 -0.79856744937E-01  0.88874900464E+00  0.88000000000E+00 0.  1.
        -11    1    4    4    0    0 -0.71037699355E-01  0.71686731682E-01  0.57898359923E-01  0.11635215267E+00  0.51100000000E-03 0.  1.
         11    1    4    4    0    0 -0.48369536120E-02  0.66109497655E-02  0.12177495217E-01  0.14685138331E-01  0.51100000000E-03 0. -1.
</event>
<event>
 8    1  0.1136714E+005  0.1043930E+01  0.7957747E-01            NaN
         13   -1    0    0    0    0  0.00000000000E+00  0.00000000000E+00  0.74505805969E-08  0.10566000000E+00  0.10566000000E+00 0.  1.
     999900   -1    0    0    0    0 -0.00000000000E+00 -0.00000000000E+00 -0.74505805969E-08  0.93827000000E+00  0.93827000000E+00 0.  1.
     999902    2    1    2    0    0 -0.16479062757E-01  0.39468264296E-02  0.16185299562E-01  0.10204970986E+01  0.10202280271E+01 0.  0.
     999903    2    3    3    0    0  0.71481560644E-01 -0.88212949709E-02 -0.10370316857E+00  0.12793150378E+00  0.20608098643E-01 0.  0.
         14    1    1    2    0    0  0.16479062757E-01 -0.39468264296E-02 -0.16185299562E-01  0.23432901445E-01  0.00000000000E+00 0. -1.
     999901    1    3    3    0    0 -0.87960623400E-01  0.12768121400E-01  0.11988846813E+00  0.89256559478E+00  0.88000000000E+00 0. -1.
        -11    1    4    4    0    0  0.39434036102E-01  0.50514129711E-02 -0.60180642048E-01  0.72128571139E-01  0.51100000000E-03 0. -1.
         11    1    4    4    0    0  0.32047524541E-01 -0.13872707942E-01 -0.43522526523E-01  0.55802932636E-01  0.51100000000E-03 0.  1.
</event>
<event>
 8    1  0.1094829E+005  0.1043930E+01  0.7957747E-01            NaN
         13   -1    0    0    0    0  0.00000000000E+00  0.00000000000E+00  0.74505805969E-08  0.10566000000E+00  0.10566000000E+00 0. -1.
     999900   -1    0    0    0    0 -0.00000000000E+00 -0.00000000000E+00 -0.74505805969E-08  0.93827000000E+00  0.93827000000E+00 0.  1.
     999902    2    1    2    0    0 -0.90169282746E-02  0.10494121167E-02  0.57498758812E-02  0.10331844272E+01  0.10331285464E+01 0.  0.
     999903    2    3    3    0    0  0.83140585521E-01  0.63592334586E-01  0.93541072901E-01  0.14183044662E+00  0.20238608868E-01 0.  0.
         14    1    1    2    0    0  0.90169282746E-02 -0.10494121167E-02 -0.57498758812E-02  0.10745572760E-01  0.00000000000E+00 0.  1.
     999901    1    3    3    0    0 -0.92157513795E-01 -0.62542922469E-01 -0.87791197020E-01  0.89135398062E+00  0.88000000000E+00 0.  1.
        -11    1    4    4    0    0  0.17526113891E-01  0.15915126893E-01  0.33008365637E-01  0.40623506190E-01  0.51100000000E-03 0.  1.
         11    1    4    4    0    0  0.65614471630E-01  0.47677207693E-01  0.60532707264E-01  0.10120694043E+00  0.51100000000E-03 0. -1.
</event>
<event>
 8    1  0.1094829E+005  0.1043930E+01  0.7957747E-01            NaN
         13   -1    0    0    0    0  0.00000000000E+00  0.00000000000E+00  0.74505805969E-08  0.10566000000E+00  0.10566000000E+00 0.  1.
     999900   -1    0    0    0    0 -0.00000000000E+00 -0.00000000000E+00 -0.74505805969E-08  0.93827000000E+00  0.93827000000E+00 0.  1.
     999902    2    1    2    0    0  0.51295766346E-02 -0.11266800416E-01 -0.19389564575E-01  0.10209254665E+01  0.10206662528E+01 0.  0.
     999903    2    3    3    0    0 -0.10661308467E+00 -0.14207982122E-01 -0.74267321490E-01  0.13215854478E+00  0.19545570793E-01 0.  0.
         14    1    1    2    0    0 -0.51295766346E-02  0.11266800416E-01  0.19389564575E-01  0.23004533520E-01  0.00000000000E+00 0.  1.
     999901    1    3    3    0    0  0.11174266131E+00  0.29411817061E-02  0.54877756915E-01  0.88876692170E+00  0.88000000000E+00 0. -1.
        -11    1    4    4    0    0 -0.43795004876E-01 -0.13645652146E-01 -0.24466293720E-01  0.51991027341E-01  0.51100000000E-03 0. -1.
         11    1    4    4    0    0 -0.62818079796E-01 -0.56232997552E-03 -0.49801027770E-01  0.80167517438E-01  0.51100000000E-03 0.  1.
</event>
<event>
 8    1  0.1094829E+005  0.1043930E+01  0.7957747E-01            NaN
         13   -1    0    0    0    0  0.00000000000E+00  0.00000000000E+00  0.74505805969E-08  0.10566000000E+00  0.10566000000E+00 0.  1.
     999900   -1    0    0    0    0 -0.00000000000E+00 -0.00000000000E+00 -0.74505805969E-08  0.93827000000E+00  0.93827000000E+00 0.  1.
     999902    2    1    2    0    0 -0.24107030991E-02  0.14433035837E-01  0.18663873171E-01  0.10202136728E+01  0.10199379756E+01 0.  0.
     999903    2    3    3    0    0  0.30808533965E-01  0.20859366957E-01  0.12584094639E+00  0.13306557895E+00  0.22050522868E-01 0.  0.
         14    1    1    2    0    0  0.24107030991E-02 -0.14433035837E-01 -0.18663873171E-01  0.23716327175E-01  0.00000000000E+00 0. -1.
     999901    1    3    3    0    0 -0.33219237064E-01 -0.64263311201E-02 -0.10717707322E+00  0.88714809388E+00  0.88000000000E+00 0.  1.
        -11    1    4    4    0    0  0.16211815599E-01  0.13334745644E-01  0.35518226311E-01  0.41260682588E-01  0.51100000000E-03 0. -1.
         11    1    4    4    0    0  0.14596718366E-01  0.75246213137E-02  0.90322720077E-01  0.91804896362E-01  0.51100000000E-03 0.  1.
</event>
<event>
 8    1  0.1094829E+005  0.1043930E+01  0.7957747E-01            NaN
         13   -1    0    0    0    0  0.00000000000E+00  0.00000000000E+00  0.74505805969E-08  0.10566000000E+00  0.10566000000E+00 0.  1.
     999900   -1    0    0    0    0 -0.00000000000E+00 -0.00000000000E+00 -0.74505805969E-08  0.93827000000E+00  0.93827000000E+00 0. -1.
     999902    2    1    2    0    0  0.21179256679E-02  0.85047651753E-03  0.23608117417E-01  0.10202118186E+01  0.10199360778E+01 0.  0.
     999903    2    3    3    0    0  0.11613278402E-01 -0.12836871134E+00  0.51459523993E-02  0.13053288117E+00  0.19973931831E-01 0.  0.
         14    1    1    2    0    0 -0.21179256679E-02 -0.85047651753E-03 -0.23608117417E-01  0.23718181368E-01  0.00000000000E+00 0. -1.
     999901    1    3    3    0    0 -0.94953527340E-02  0.12921918786E+00  0.18462165017E-01  0.88967893747E+00  0.88000000000E+00 0.  1.
        -11    1    4    4    0    0  0.12545389068E-01 -0.49676833998E-01 -0.35108039166E-02  0.51359142206E-01  0.51100000000E-03 0.  1.
         11    1    4    4    0    0 -0.93211066655E-03 -0.78691877343E-01  0.86567563158E-02  0.79173738960E-01  0.51100000000E-03 0. -1.
</event>
<event>
 8    1  0.1094829E+005  0.1043930E+01  0.7957747E-01            NaN
         13   -1    0    0    0    0  0.00000000000E+00  0.00000000000E+00  0.74505805969E-08  0.10566000000E+00  0.10566000000E+00 0.  1.
     999900   -1    0    0    0    0 -0.00000000000E+00 -0.00000000000E+00 -0.74505805969E-08  0.93827000000E+00  0.93827000000E+00 0. -1.
     999902    2    1    2    0    0 -0.13789087068E-01 -0.30965201923E-02  0.19355998918E-01  0.10199637309E+01  0.10196821222E+01 0.  0.
     999903    2    3    3    0    0 -0.33596462224E-01  0.90259227394E-01  0.88536282363E-01  0.13210476727E+00  0.18372420552E-01 0.  0.
         14    1    1    2    0    0  0.13789087068E-01  0.30965201923E-02 -0.19355998918E-01  0.23966269080E-01  0.00000000000E+00 0. -1.
     999901    1    3    3    0    0  0.19807375155E-01 -0.93355747586E-01 -0.69180283445E-01  0.88785896365E+00  0.88000000000E+00 0. -1.
        -11    1    4    4    0    0 -0.13404679840E-01  0.61185256935E-01  0.57261228925E-01  0.84867134786E-01  0.51100000000E-03 0.  1.
         11    1    4    4    0    0 -0.20191782383E-01  0.29073970459E-01  0.31275053438E-01  0.47237632483E-01  0.51100000000E-03 0. -1.
</event>
<event>
 8    1  0.1094829E+005  0.1043930E+01  0.7957747E-01            NaN
         13   -1    0    0    0    0  0.00000000000E+00  0.00000000000E+00  0.74505805969E-08  0.10566000000E+00  0.10566000000E+00 0. -1.
     999900   -1    0    0    0    0 -0.00000000000E+00 -0.00000000000E+00 -0.74505805969E-08  0.93827000000E+00  0.93827000000E+00 0.  1.
     999902    2    1    2    0    0  0.94985624202E-02 -0.15176962429E-01  0.12898851698E-01  0.10218632093E+01  0.10216249191E+01 0.  0.
     999903    2    3    3    0    0 -0.50699764765E-01 -0.29270854588E-01 -0.11485878409E+00  0.13049095828E+00  0.20201505707E-01 0.  0.
         14    1    1    2    0    0 -0.94985624202E-02  0.15176962429E-01 -0.12898851698E-01  0.22066790699E-01  0.00000000000E+00 0. -1.
     999901    1    3    3    0    0  0.60198327185E-01  0.14093892159E-01  0.12775763579E+00  0.89137225102E+00  0.88000000000E+00 0. -1.
        -11    1    4    4    0    0 -0.14941242786E-01 -0.19770951685E-01 -0.50438356879E-01  0.56199824129E-01  0.51100000000E-03 0. -1.
         11    1    4    4    0    0 -0.35758521980E-01 -0.94999029031E-02 -0.64420427216E-01  0.74291134148E-01  0.51100000000E-03 0.  1.
</event>
<event>
 8    1  0.1094829E+005  0.1043930E+01  0.7957747E-01            NaN
         13   -1    0    0    0    0  0.00000000000E+00  0.00000000000E+00  0.74505805969E-08  0.10566000000E+00  0.10566000000E+00 0.  1.
     999900   -1    0    0    0    0 -0.00000000000E+00 -0.00000000000E+00 -0.74505805969E-08  0.93827000000E+00  0.93827000000E+00 0.  1.
     999902    2    1    2    0    0  0.15438286701E-01 -0.10503226568E-01  0.15193501834E-01  0.10198571738E+01  0.10195730253E+01 0.  0.
     999903    2    3    3    0    0  0.12652500372E+00 -0.19060111705E-01 -0.25025604123E-01  0.13192077095E+00  0.20123233368E-01 0.  0.
         14    1    1    2    0    0 -0.15438286701E-01  0.10503226568E-01 -0.15193501834E-01  0.24072826228E-01  0.00000000000E+00 0. -1.
     999901    1    3    3    0    0 -0.11108671702E+00  0.85568851366E-02  0.40219105957E-01  0.88793640283E+00  0.88000000000E+00 0. -1.
        -11    1    4    4    0    0  0.41161534111E-01  0.15250939719E-02 -0.25160488033E-02  0.41269715586E-01  0.51100000000E-03 0.  1.
         11    1    4    4    0    0  0.85363469607E-01 -0.20585205677E-01 -0.22509555320E-01  0.90651055359E-01  0.51100000000E-03 0. -1.
</event>
<event>
 8    1  0.1094829E+005  0.1043930E+01  0.7957747E-01            NaN
         13   -1    0    0    0    0  0.00000000000E+00  0.00000000000E+00  0.74505805969E-08  0.10566000000E+00  0.10566000000E+00 0.  1.
     999900   -1    0    0    0    0 -0.00000000000E+00 -0.00000000000E+00 -0.74505805969E-08  0.93827000000E+00  0.93827000000E+00 0.  1.
     999902    2    1    2    0    0  0.17468674672E-01  0.19336876024E-01  0.18605834514E-01  0.10119105302E+01  0.10114038138E+01 0.  0.
     999903    2    3    3    0    0  0.21223953970E-01  0.10305646642E+00  0.67487211821E-01  0.12657869354E+00  0.19913573408E-01 0.  0.
         14    1    1    2    0    0 -0.17468674672E-01 -0.19336876024E-01 -0.18605834514E-01  0.32019469813E-01  0.00000000000E+00 0. -1.
     999901    1    3    3    0    0 -0.37552792979E-02 -0.83719590393E-01 -0.48881377307E-01  0.88533183665E+00  0.88000000000E+00 0. -1.
        -11    1    4    4    0    0  0.18098812113E-01  0.91229854164E-01  0.66416956479E-01  0.11428878562E+00  0.51100000000E-03 0.  1.
         11    1    4    4    0    0  0.31251418562E-02  0.11826612253E-01  0.10702553420E-02  0.12289907913E-01  0.51100000000E-03 0. -1.
</event>
<event>
 8    1  0.1094829E+005  0.1043930E+01  0.7957747E-01            NaN
         13   -1    0    0    0    0  0.00000000000E+00  0.00000000000E+00  0.74505805969E-08  0.10566000000E+00  0.10566000000E+00 0.  1.
     999900   -1    0    0    0    0 -0.00000000000E+00 -0.00000000000E+00 -0.74505805969E-08  0.93827000000E+00  0.93827000000E+00 0.  1.
     999902    2    1    2    0    0 -0.13730266206E-01  0.30842002914E-02 -0.19442592602E-01  0.10199290228E+01  0.10196465881E+01 0.  0.
     999903    2    3    3    0    0 -0.72010097111E-01  0.68240383729E-01  0.81208003714E-01  0.12988834421E+00  0.20833579548E-01 0.  0.
         14    1    1    2    0    0  0.13730266206E-01 -0.30842002914E-02  0.19442592602E-01  0.24000977243E-01  0.00000000000E+00 0.  1.
     999901    1    3    3    0    0  0.58279830905E-01 -0.65156183437E-01 -0.10065059632E+00  0.89004067855E+00  0.88000000000E+00 0.  1.
        -11    1    4    4    0    0 -0.20294854480E-01  0.88710088061E-02  0.23287571717E-01  0.32142620196E-01  0.51100000000E-03 0. -1.
         11    1    4    4    0    0 -0.51715242631E-01  0.59369374923E-01  0.57920431997E-01  0.97745724013E-01  0.51100000000E-03 0.  1.
</event>
<event>
 8    1  0.1094829E+005  0.1043930E+01  0.7957747E-01            NaN
         13   -1    0    0    0    0  0.00000000000E+00  0.00000000000E+00  0.74505805969E-08  0.10566000000E+00  0.10566000000E+00 0.  1.
     999900   -1    0    0    0    0 -0.00000000000E+00 -0.00000000000E+00 -0.74505805969E-08  0.93827000000E+00  0.93827000000E+00 0.  1.
     999902    2    1    2    0    0  0.23520781400E-01  0.24619959226E-02  0.64648699723E-03  0.10202718824E+01  0.10199975527E+01 0.  0.
     999903    2    3    3    0    0  0.93241192109E-02 -0.87121610147E-01 -0.94629992131E-01  0.13049417133E+00  0.19919316918E-01 0.  0.
         14    1    1    2    0    0 -0.23520781400E-01 -0.24619959226E-02 -0.64648699723E-03  0.23658117572E-01  0.00000000000E+00 0.  1.
     999901    1    3    3    0    0  0.14196662189E-01  0.89583606069E-01  0.95276479128E-01  0.88977771110E+00  0.88000000000E+00 0. -1.
        -11    1    4    4    0    0 -0.75966714431E-03 -0.53801190892E-01 -0.67691790475E-01  0.86473029636E-01  0.51100000000E-03 0.  1.
         11    1    4    4    0    0  0.10083786355E-01 -0.33320419254E-01 -0.26938201656E-01  0.44021141693E-01  0.51100000000E-03 0. -1.
</event>
<event>
 8    1  0.1094829E+005  0.1043930E+01  0.7957747E-01            NaN
         13   -1    0    0    0    0  0.00000000000E+00  0.00000000000E+00  0.74505805969E-08  0.10566000000E+00  0.10566000000E+00 0.  1.
     999900   -1    0    0    0    0 -0.00000000000E+00 -0.00000000000E+00 -0.74505805969E-08  0.93827000000E+00  0.93827000000E+00 0. -1.
     999902    2    1    2    0    0 -0.79789949087E-03 -0.12493319269E-01 -0.20455254882E-01  0.10199479834E+01  0.10196660000E+01 0.  0.
     999903    2    3    3    0    0  0.12502367014E+00  0.28036142681E-01 -0.10483680555E-01  0.13001925758E+00  0.19446243610E-01 0.  0.
         14    1    1    2    0    0  0.79789949087E-03  0.12493319269E-01  0.20455254882E-01  0.23982016642E-01  0.00000000000E+00 0.  1.
     999901    1    3    3    0    0 -0.12582156964E+00 -0.40529461950E-01 -0.99715743263E-02  0.88992872578E+00  0.88000000000E+00 0.  1.
        -11    1    4    4    0    0  0.90738170531E-01  0.12090874068E-01 -0.38207803440E-02  0.91621309260E-01  0.51100000000E-03 0. -1.
         11    1    4    4    0    0  0.34285499614E-01  0.15945268613E-01 -0.66629002113E-02  0.38397948319E-01  0.51100000000E-03 0.  1.
</event>
<event>
 8    1  0.1094829E+005  0.1043930E+01  0.7957747E-01            NaN
         13   -1    0    0    0    0  0.00000000000E+00  0.00000000000E+00  0.74505805969E-08  0.10566000000E+00  0.10566000000E+00 0. -1.
     999900   -1    0    0    0    0 -0.00000000000E+00 -0.00000000000E+00 -0.74505805969E-08  0.93827000000E+00  0.93827000000E+00 0. -1.
     999902    2    1    2    0    0  0.13553152431E-01  0.18346973854E-01 -0.72541656170E-02  0.10199942044E+01  0.10197133199E+01 0.  0.
     999903    2    3    3    0    0 -0.66549038889E-01  0.57238815771E-01  0.93460203106E-01  0.12978506020E+00  0.20107105157E-01 0.  0.
         14    1    1    2    0    0 -0.13553152431E-01 -0.18346973854E-01  0.72541656170E-02  0.23935795563E-01  0.00000000000E+00 0.  1.
     999901    1    3    3    0    0  0.80102191320E-01 -0.38891841916E-01 -0.10071436872E+00  0.89020914424E+00  0.88000000000E+00 0. -1.
        -11    1    4    4    0    0 -0.43135591886E-01  0.44513478541E-01  0.54250180143E-01  0.82373977844E-01  0.51100000000E-03 0.  1.
         11    1    4    4    0    0 -0.23413447003E-01  0.12725337229E-01  0.39210022963E-01  0.47411082353E-01  0.51100000000E-03 0. -1.
</event>
<event>
 8    1  0.1094829E+005  0.1043930E+01  0.7957747E-01            NaN
         13   -1    0    0    0    0  0.00000000000E+00  0.00000000000E+00  0.74505805969E-08  0.10566000000E+00  0.10566000000E+00 0.  1.
     999900   -1    0    0    0    0 -0.00000000000E+00 -0.00000000000E+00 -0.74505805969E-08  0.93827000000E+00  0.93827000000E+00 0. -1.
     999902    2    1    2    0    0 -0.19030695601E-01  0.12512342722E-01  0.32907554010E-02  0.10209179343E+01  0.10206585489E+01 0.  0.
     999903    2    3    3    0    0 -0.10943349455E+00  0.16581807297E-01  0.71554074474E-01  0.13364734013E+00  0.22158065942E-01 0.  0.
         14    1    1    2    0    0  0.19030695601E-01 -0.12512342722E-01 -0.32907554010E-02  0.23012065674E-01  0.00000000000E+00 0. -1.
     999901    1    3    3    0    0  0.90402798950E-01 -0.40694645750E-02 -0.68263319073E-01  0.88727059420E+00  0.88000000000E+00 0.  1.
        -11    1    4    4    0    0 -0.72845316996E-01  0.11347108575E-02  0.41564696592E-01  0.83878560435E-01  0.51100000000E-03 0. -1.
         11    1    4    4    0    0 -0.36588177556E-01  0.15447096440E-01  0.29989377882E-01  0.49768779692E-01  0.51100000000E-03 0.  1.
</event>
<event>
 8    1  0.1094829E+005  0.1043930E+01  0.7957747E-01            NaN
         13   -1    0    0    0    0  0.00000000000E+00  0.00000000000E+00  0.74505805969E-08  0.10566000000E+00  0.10566000000E+00 0.  1.
     999900   -1    0    0    0    0 -0.00000000000E+00 -0.00000000000E+00 -0.74505805969E-08  0.93827000000E+00  0.93827000000E+00 0. -1.
     999902    2    1    2    0    0 -0.12770767277E-01  0.19915305258E-01 -0.62948485725E-02  0.10194486398E+01  0.10191546458E+01 0.  0.
     999903    2    3    3    0    0  0.10693411523E+00 -0.55922412024E-01 -0.32600855151E-01  0.12772411715E+00  0.26237629025E-01 0.  0.
         14    1    1    2    0    0  0.12770767277E-01 -0.19915305258E-01  0.62948485725E-02  0.24481360234E-01  0.00000000000E+00 0. -1.
     999901    1    3    3    0    0 -0.11970488251E+00  0.75837717282E-01  0.26306006579E-01  0.89172452262E+00  0.88000000000E+00 0. -1.
        -11    1    4    4    0    0  0.76605099201E-01 -0.45868555774E-01 -0.12986126334E-01  0.90228411438E-01  0.51100000000E-03 0.  1.
         11    1    4    4    0    0  0.30329016032E-01 -0.10053856249E-01 -0.19614728818E-01  0.37495705708E-01  0.51100000000E-03 0. -1.
</event>
<event>
 8    1  0.1094829E+005  0.1043930E+01  0.7957747E-01            NaN
         13   -1    0    0    0    0  0.00000000000E+00  0.00000000000E+00  0.74505805969E-08  0.10566000000E+00  0.10566000000E+00 0. -1.
     999900   -1    0    0    0    0 -0.00000000000E+00 -0.00000000000E+00 -0.74505805969E-08  0.93827000000E+00  0.93827000000E+00 0. -1.
     999902    2    1    2    0    0 -0.16132493422E-02 -0.22840988337E-01 -0.32334644385E-03  0.10210298281E+01  0.10207729875E+01 0.  0.
     999903    2    3    3    0    0 -0.73345033771E-01  0.10206699067E+00  0.21587718831E-01  0.12905026165E+00  0.19768051611E-01 0.  0.
         14    1    1    2    0    0  0.16132493422E-02  0.22840988337E-01  0.32334644385E-03  0.22900171933E-01  0.00000000000E+00 0. -1.
     999901    1    3    3    0    0  0.71731784429E-01 -0.12490797901E+00 -0.21911065275E-01  0.89197956641E+00  0.88000000000E+00 0. -1.
        -11    1    4    4    0    0 -0.48379631619E-01  0.52505152959E-01  0.16796741819E-01  0.73346925631E-01  0.51100000000E-03 0.  1.
         11    1    4    4    0    0 -0.24965402152E-01  0.49561837715E-01  0.47909770119E-02  0.55703336022E-01  0.51100000000E-03 0. -1.
</event>
<event>
 8    1  0.1094829E+005  0.1043930E+01  0.7957747E-01            NaN
         13   -1    0    0    0    0  0.00000000000E+00  0.00000000000E+00  0.74505805969E-08  0.10566000000E+00  0.10566000000E+00 0. -1.
     999900   -1    0    0    0    0 -0.00000000000E+00 -0.00000000000E+00 -0.74505805969E-08  0.93827000000E+00  0.93827000000E+00 0.  1.
     999902    2    1    2    0    0  0.18650136742E-01 -0.13167059958E-01 -0.88734374682E-02  0.10194363894E+01  0.10191420976E+01 0.  0.
     999903    2    3    3    0    0 -0.58483147796E-01  0.10189335009E+00 -0.46435740721E-01  0.12780901869E+00  0.19399326624E-01 0.  0.
         14    1    1    2    0    0 -0.18650136742E-01  0.13167059958E-01  0.88734374682E-02  0.24493610614E-01  0.00000000000E+00 0. -1.
     999901    1    3    3    0    0  0.77133284538E-01 -0.11506041005E+00  0.37562303253E-01  0.89162737069E+00  0.88000000000E+00 0. -1.
        -11    1    4    4    0    0 -0.24753463959E-01  0.35044447057E-01 -0.26084172866E-01  0.50214464476E-01  0.51100000000E-03 0.  1.
         11    1    4    4    0    0 -0.33729683837E-01  0.66848903035E-01 -0.20351567855E-01  0.77594554216E-01  0.51100000000E-03 0. -1.
</event>
<event>
 7    1  0.1094829E+005  0.1043930E+01  0.7957747E-01            NaN
         13   -1    0    0    0    0  0.00000000000E+00  0.00000000000E+00  0.74505805969E-08  0.10566000000E+00  0.10566000000E+00 0. -1.
     999900   -1    0    0    0    0 -0.00000000000E+00 -0.00000000000E+00 -0.74505805969E-08  0.93827000000E+00  0.93827000000E+00 0. -1.
     999903    2    1    2    0    0  0.78314732488E-01  0.45632592471E-01  0.52848797056E-01  0.10680453789E+00  0.19967051417E-01 0.  0.
         14    1    1    2    0    0  0.38007469062E-02 -0.30954760609E-01  0.37271645540E-01  0.48598543627E-01  0.00000000000E+00 0. -1.
     999901    1    1    2    0    0 -0.82115479394E-01 -0.14677831862E-01 -0.90120442596E-01  0.88852691849E+00  0.88000000000E+00 0. -1.
        -11    1    3    3    0    0  0.46587355020E-01  0.15627689969E-01  0.27872038116E-01  0.56495291584E-01  0.51100000000E-03 0.  1.
         11    1    3    3    0    0  0.31727377469E-01  0.30004902502E-01  0.24976758940E-01  0.50309246301E-01  0.51100000000E-03 0. -1.
</event>
<event>
 8    1  0.1094829E+005  0.1043930E+01  0.7957747E-01            NaN
         13   -1    0    0    0    0  0.00000000000E+00  0.00000000000E+00  0.74505805969E-08  0.10566000000E+00  0.10566000000E+00 0.  1.
     999900   -1    0    0    0    0 -0.00000000000E+00 -0.00000000000E+00 -0.74505805969E-08  0.93827000000E+00  0.93827000000E+00 0.  1.
     999902    2    1    2    0    0 -0.47415741470E-02 -0.10779712149E-02 -0.22425515650E-01  0.10209833597E+01  0.10207254639E+01 0.  0.
     999903    2    3    3    0    0  0.23873849952E-01 -0.28536045877E-01  0.12101564448E+00  0.12848789488E+00  0.21910871673E-01 0.  0.
         14    1    1    2    0    0  0.47415741470E-02  0.10779712149E-02  0.22425515650E-01  0.22946640266E-01  0.00000000000E+00 0.  1.
     999901    1    3    3    0    0 -0.28615424099E-01  0.27458074662E-01 -0.14344116013E+00  0.89249546485E+00  0.88000000000E+00 0.  1.
        -11    1    4    4    0    0  0.90118275162E-03 -0.17772898493E-01  0.50304172281E-01  0.53361586568E-01  0.51100000000E-03 0. -1.
         11    1    4    4    0    0  0.22972667200E-01 -0.10763147384E-01  0.70711472197E-01  0.75126308315E-01  0.51100000000E-03 0.  1.
</event>
<event>
 8    1  0.1094829E+005  0.1043930E+01  0.7957747E-01            NaN
         13   -1    0    0    0    0  0.00000000000E+00  0.00000000000E+00  0.74505805969E-08  0.10566000000E+00  0.10566000000E+00 0.  1.
     999900   -1    0    0    0    0 -0.00000000000E+00 -0.00000000000E+00 -0.74505805969E-08  0.93827000000E+00  0.93827000000E+00 0. -1.
     999902    2    1    2    0    0 -0.14614720484E-01  0.17754729800E-01 -0.69206930763E-02  0.10199150780E+01  0.10196323111E+01 0.  0.
     999903    2    3    3    0    0 -0.97263257306E-02  0.91373573924E-01  0.91808194201E-01  0.13132573316E+00  0.19338361970E-01 0.  0.
         14    1    1    2    0    0  0.14614720484E-01 -0.17754729800E-01  0.69206930763E-02  0.24014921981E-01  0.00000000000E+00 0.  1.
     999901    1    3    3    0    0 -0.48883947539E-02 -0.73618844124E-01 -0.98728887277E-01  0.88858934486E+00  0.88000000000E+00 0. -1.
        -11    1    4    4    0    0  0.30708150333E-02  0.42022411728E-01  0.33210923458E-01  0.53652022798E-01  0.51100000000E-03 0. -1.
         11    1    4    4    0    0 -0.12797140764E-01  0.49351162196E-01  0.58597270743E-01  0.77673710362E-01  0.51100000000E-03 0.  1.
</event>
<event>
 8    1  0.1094829E+005  0.1043930E+01  0.7957747E-01            NaN
         13   -1    0    0    0    0  0.00000000000E+00  0.00000000000E+00  0.74505805969E-08  0.10566000000E+00  0.10566000000E+00 0. -1.
     999900   -1    0    0    0    0 -0.00000000000E+00 -0.00000000000E+00 -0.74505805969E-08  0.93827000000E+00  0.93827000000E+00 0.  1.
     999902    2    1    2    0    0 -0.20571018435E-02 -0.22708428249E-01 -0.52993242073E-02  0.10205208732E+01  0.10202523538E+01 0.  0.
     999903    2    3    3    0    0 -0.95072073019E-01 -0.75866832131E-01  0.48336450396E-01  0.13240241425E+00  0.19987785703E-01 0.  0.
         14    1    1    2    0    0  0.20571018435E-02  0.22708428249E-01  0.52993242073E-02  0.23409126822E-01  0.00000000000E+00 0. -1.
     999901    1    3    3    0    0  0.93014971175E-01  0.53158403882E-01 -0.53635774603E-01  0.88811845892E+00  0.88000000000E+00 0.  1.
        -11    1    4    4    0    0 -0.52658791353E-01 -0.52403475036E-01  0.23395855429E-01  0.77889021530E-01  0.51100000000E-03 0. -1.
         11    1    4    4    0    0 -0.42413281666E-01 -0.23463357095E-01  0.24940594967E-01  0.54513392723E-01  0.51100000000E-03 0.  1.
</event>
<event>
 8    1  0.1094829E+005  0.1043930E+01  0.7957747E-01            NaN
         13   -1    0    0    0    0  0.00000000000E+00  0.00000000000E+00  0.74505805969E-08  0.10566000000E+00  0.10566000000E+00 0.  1.
     999900   -1    0    0    0    0 -0.00000000000E+00 -0.00000000000E+00 -0.74505805969E-08  0.93827000000E+00  0.93827000000E+00 0.  1.
     999902    2    1    2    0    0 -0.23679365747E-02 -0.22462935034E-01  0.64830130243E-02  0.10204306376E+01  0.10201600199E+01 0.  0.
     999903    2    3    3    0    0 -0.29531921113E-01  0.22724646242E-01 -0.12264049442E+00  0.12944653018E+00  0.18087824417E-01 0.  0.
         14    1    1    2    0    0  0.23679365747E-02  0.22462935034E-01 -0.64830130243E-02  0.23499362371E-01  0.00000000000E+00 0. -1.
     999901    1    3    3    0    0  0.27163984539E-01 -0.45187581276E-01  0.12912350744E+00  0.89098410745E+00  0.88000000000E+00 0. -1.
        -11    1    4    4    0    0 -0.15823311228E-01  0.22312460528E-01 -0.89135817327E-01  0.93239895562E-01  0.51100000000E-03 0. -1.
         11    1    4    4    0    0 -0.13708609886E-01  0.41218571372E-03 -0.33504677093E-01  0.36206634615E-01  0.51100000000E-03 0.  1.
</event>
<event>
 8    1  0.1094829E+005  0.1043930E+01  0.7957747E-01            NaN
         13   -1    0    0    0    0  0.00000000000E+00  0.00000000000E+00  0.74505805969E-08  0.10566000000E+00  0.10566000000E+00 0.  1.
     999900   -1    0    0    0    0 -0.00000000000E+00 -0.00000000000E+00 -0.74505805969E-08  0.93827000000E+00  0.93827000000E+00 0. -1.
     999902    2    1    2    0    0  0.73052619968E-02 -0.54261630575E-03  0.21760893872E-01  0.10209692120E+01  0.10207109943E+01 0.  0.
     999903    2    3    3    0    0  0.85074995449E-01 -0.89611457268E-01  0.46008049752E-01  0.13272976539E+00  0.15247355662E-01 0.  0.
         14    1    1    2    0    0 -0.73052619968E-02  0.54261630575E-03 -0.21760893872E-01  0.22960788040E-01  0.00000000000E+00 0. -1.
     999901    1    3    3    0    0 -0.77769733452E-01  0.89068840962E-01 -0.24247155879E-01  0.88823944657E+00  0.88000000000E+00 0.  1.
        -11    1    4    4    0    0  0.51141645106E-01 -0.54503505843E-01  0.35673331152E-01  0.82818764116E-01  0.51100000000E-03 0.  1.
         11    1    4    4    0    0  0.33933350344E-01 -0.35107951425E-01  0.10334718600E-01  0.49911001275E-01  0.51100000000E-03 0. -1.
</event>
<event>
 7    1  0.1095438E+005  0.1043930E+01  0.7957747E-01            NaN
         13   -1    0    0    0    0  0.00000000000E+00  0.00000000000E+00  0.74505805969E-08  0.10566000000E+00  0.10566000000E+00 0.  1.
     999900   -1    0    0    0    0 -0.00000000000E+00 -0.00000000000E+00 -0.74505805969E-08  0.93827000000E+00  0.93827000000E+00 0. -1.
     999903    2    1    2    0    0  0.36007495533E-01 -0.17634264942E-01  0.10778528322E+00  0.11714585127E+00  0.22315379325E-01 0.  0.
         14    1    1    2    0    0  0.10923698256E-01  0.20875933706E-01 -0.35447681323E-01  0.42563715802E-01  0.00000000000E+00 0.  1.
     999901    1    1    2    0    0 -0.46931193788E-01 -0.32416687641E-02 -0.72337601902E-01  0.88422043293E+00  0.88000000000E+00 0. -1.
        -11    1    3    3    0    0  0.27743264019E-01 -0.13243402887E-01  0.50685510076E-01  0.59282024857E-01  0.51100000000E-03 0.  1.
         11    1    3    3    0    0  0.82642315138E-02 -0.43908620555E-02  0.57099773148E-01  0.57863826409E-01  0.51100000000E-03 0. -1.
</event>
<event>
 8    1  0.1094829E+005  0.1043930E+01  0.7957747E-01            NaN
         13   -1    0    0    0    0  0.00000000000E+00  0.00000000000E+00  0.74505805969E-08  0.10566000000E+00  0.10566000000E+00 0. -1.
     999900   -1    0    0    0    0 -0.00000000000E+00 -0.00000000000E+00 -0.74505805969E-08  0.93827000000E+00  0.93827000000E+00 0. -1.
     999902    2    1    2    0    0  0.63478987076E-02  0.19670618620E-01  0.11655380165E-01  0.10202007577E+01  0.10199247565E+01 0.  0.
     999903    2    3    3    0    0  0.37821755428E-02  0.12691488060E+00 -0.32137741369E-01  0.13260526863E+00  0.20727543954E-01 0.  0.
         14    1    1    2    0    0 -0.63478987076E-02 -0.19670618620E-01 -0.11655380165E-01  0.23729242333E-01  0.00000000000E+00 0. -1.
     999901    1    3    3    0    0  0.25657231648E-02 -0.10724426198E+00  0.43793121535E-01  0.88759548904E+00  0.88000000000E+00 0.  1.
        -11    1    4    4    0    0  0.89938500786E-02  0.11758238930E+00 -0.30161863721E-01  0.12172307405E+00  0.51100000000E-03 0.  1.
         11    1    4    4    0    0 -0.52116745358E-02  0.93324913061E-02 -0.19758776481E-02  0.10882194582E-01  0.51100000000E-03 0. -1.
</event>
<event>
 8    1  0.1094829E+005  0.1043930E+01  0.7957747E-01            NaN
         13   -1    0    0    0    0  0.00000000000E+00  0.00000000000E+00  0.74505805969E-08  0.10566000000E+00  0.10566000000E+00 0.  1.
     999900   -1    0    0    0    0 -0.00000000000E+00 -0.00000000000E+00 -0.74505805969E-08  0.93827000000E+00  0.93827000000E+00 0. -1.
     999902    2    1    2    0    0 -0.16202753321E-01 -0.13760072830E-01  0.91054544798E-02  0.10208047298E+01  0.10205427567E+01 0.  0.
     999903    2    3    3    0    0  0.29413312925E-01  0.12304394025E+00  0.14974721180E-01  0.12904769352E+00  0.20593948616E-01 0.  0.
         14    1    1    2    0    0  0.16202753321E-01  0.13760072830E-01 -0.91054544798E-02  0.23125270177E-01  0.00000000000E+00 0. -1.
     999901    1    3    3    0    0 -0.45616066247E-01 -0.13680401308E+00 -0.58692667002E-02  0.89175703630E+00  0.88000000000E+00 0. -1.
        -11    1    4    4    0    0  0.20921520967E-01  0.59225849782E-01 -0.56141853124E-03  0.62817096668E-01  0.51100000000E-03 0. -1.
         11    1    4    4    0    0  0.84917919583E-02  0.63818090470E-01  0.15536139711E-01  0.66230596857E-01  0.51100000000E-03 0.  1.
</event>
<event>
 8    1  0.1094829E+005  0.1043930E+01  0.7957747E-01            NaN
         13   -1    0    0    0    0  0.00000000000E+00  0.00000000000E+00  0.74505805969E-08  0.10566000000E+00  0.10566000000E+00 0. -1.
     999900   -1    0    0    0    0 -0.00000000000E+00 -0.00000000000E+00 -0.74505805969E-08  0.93827000000E+00  0.93827000000E+00 0. -1.
     999902    2    1    2    0    0  0.74578624921E-02  0.19453286587E-01  0.28827099842E-01  0.10083624339E+01  0.10077349584E+01 0.  0.
     999903    2    3    3    0    0 -0.49193972423E-01 -0.42044197319E-01  0.10079926129E+00  0.12147384849E+00  0.20190179318E-01 0.  0.
         14    1    1    2    0    0 -0.74578624921E-02 -0.19453286587E-01 -0.28827099842E-01  0.35567566086E-01  0.00000000000E+00 0.  1.
     999901    1    3    3    0    0  0.56651834915E-01  0.61497483906E-01 -0.71972161446E-01  0.88688858542E+00  0.88000000000E+00 0. -1.
        -11    1    4    4    0    0 -0.45468755454E-01 -0.37314577270E-01  0.76871543593E-01  0.96795044991E-01  0.51100000000E-03 0. -1.
         11    1    4    4    0    0 -0.37252169686E-02 -0.47296200483E-02  0.23927717694E-01  0.24678803503E-01  0.51100000000E-03 0.  1.
</event>
<event>
 8    1  0.1094829E+005  0.1043930E+01  0.7957747E-01            NaN
         13   -1    0    0    0    0  0.00000000000E+00  0.00000000000E+00  0.74505805969E-08  0.10566000000E+00  0.10566000000E+00 0. -1.
     999900   -1    0    0    0    0 -0.00000000000E+00 -0.00000000000E+00 -0.74505805969E-08  0.93827000000E+00  0.93827000000E+00 0.  1.
     999902    2    1    2    0    0 -0.12859944574E-01 -0.20222794690E-01  0.23430439799E-02  0.10198503519E+01  0.10195660404E+01 0.  0.
     999903    2    3    3    0    0 -0.12141264100E+00 -0.52920428615E-02  0.48030809845E-01  0.13187851267E+00  0.17774934511E-01 0.  0.
         14    1    1    2    0    0  0.12859944574E-01  0.20222794690E-01 -0.23430439799E-02  0.24079648142E-01  0.00000000000E+00 0.  1.
     999901    1    3    3    0    0  0.10855269642E+00 -0.14930751828E-01 -0.45687765865E-01  0.88797183919E+00  0.88000000000E+00 0.  1.
        -11    1    4    4    0    0 -0.24420373553E-01 -0.75925924309E-02  0.13290980723E-01  0.28825568405E-01  0.51100000000E-03 0. -1.
         11    1    4    4    0    0 -0.96992267444E-01  0.23005495693E-02  0.34739829122E-01  0.10305294426E+00  0.51100000000E-03 0.  1.
</event>
<event>
 8    1  0.1094829E+005  0.1043930E+01  0.7957747E-01            NaN
         13   -1    0    0    0    0  0.00000000000E+00  0.00000000000E+00  0.74505805969E-08  0.10566000000E+00  0.10566000000E+00 0. -1.
     999900   -1    0    0    0    0 -0.00000000000E+00 -0.00000000000E+00 -0.74505805969E-08  0.93827000000E+00  0.93827000000E+00 0.  1.
     999902    2    1    2    0    0  0.11991983033E-01 -0.15762302053E-01  0.11343613997E-01  0.10211059907E+01  0.10208508749E+01 0.  0.
     999903    2    3    3    0    0 -0.39403092147E-01  0.94675060915E-01  0.77797988738E-01  0.13023335735E+00  0.19804784385E-01 0.  0.
         14    1    1    2    0    0 -0.11991983033E-01  0.15762302053E-01 -0.11343613997E-01  0.22824009323E-01  0.00000000000E+00 0.  1.
     999901    1    3    3    0    0  0.51395075180E-01 -0.11043736297E+00 -0.66454374741E-01  0.89087263333E+00  0.88000000000E+00 0. -1.
        -11    1    4    4    0    0 -0.19762831382E-01  0.29582233899E-01  0.34896291032E-01  0.49836636277E-01  0.51100000000E-03 0.  1.
         11    1    4    4    0    0 -0.19640260765E-01  0.65092827016E-01  0.42901697706E-01  0.80396721071E-01  0.51100000000E-03 0. -1.
</event>
<event>
 8    1  0.1094829E+005  0.1043930E+01  0.7957747E-01            NaN
         13   -1    0    0    0    0  0.00000000000E+00  0.00000000000E+00  0.74505805969E-08  0.10566000000E+00  0.10566000000E+00 0. -1.
     999900   -1    0    0    0    0 -0.00000000000E+00 -0.00000000000E+00 -0.74505805969E-08  0.93827000000E+00  0.93827000000E+00 0. -1.
     999902    2    1    2    0    0  0.12185393357E-01  0.10898358707E-01  0.13127311014E-01  0.10229637336E+01  0.10227488528E+01 0.  0.
     999903    2    3    3    0    0 -0.11580821136E+00  0.25676745768E-01  0.55746575306E-01  0.13256092289E+00  0.19846423524E-01 0.  0.
         14    1    1    2    0    0 -0.12185393357E-01 -0.10898358707E-01 -0.13127311014E-01  0.20966266435E-01  0.00000000000E+00 0.  1.
     999901    1    3    3    0    0  0.12799360472E+00 -0.14778387061E-01 -0.42619264292E-01  0.89040281068E+00  0.88000000000E+00 0. -1.
        -11    1    4    4    0    0 -0.56605780098E-01  0.13689711768E-01  0.38230124949E-01  0.69666535176E-01  0.51100000000E-03 0.  1.
         11    1    4    4    0    0 -0.59202431263E-01  0.11987034000E-01  0.17516450357E-01  0.62894387712E-01  0.51100000000E-03 0. -1.
</event>
<event>
 8    1  0.1094829E+005  0.1043930E+01  0.7957747E-01            NaN
         13   -1    0    0    0    0  0.00000000000E+00  0.00000000000E+00  0.74505805969E-08  0.10566000000E+00  0.10566000000E+00 0.  1.
     999900   -1    0    0    0    0 -0.00000000000E+00 -0.00000000000E+00 -0.74505805969E-08  0.93827000000E+00  0.93827000000E+00 0. -1.
     999902    2    1    2    0    0 -0.75208602418E-02  0.17992654898E-01 -0.12574571989E-01  0.10207261462E+01  0.10204623691E+01 0.  0.
     999903    2    3    3    0    0  0.51770404115E-01  0.30198249394E-01 -0.11650841543E+00  0.13254447879E+00  0.20042928498E-01 0.  0.
         14    1    1    2    0    0  0.75208602418E-02 -0.17992654898E-01  0.12574571989E-01  0.23203853769E-01  0.00000000000E+00 0.  1.
     999901    1    3    3    0    0 -0.59291264356E-01 -0.12205594496E-01  0.10393384344E+00  0.88818166744E+00  0.88000000000E+00 0.  1.
        -11    1    4    4    0    0  0.22059592308E-01  0.19764910637E-02 -0.38122370683E-01  0.44092044603E-01  0.51100000000E-03 0.  1.
         11    1    4    4    0    0  0.29710811806E-01  0.28221758330E-01 -0.78386044747E-01  0.88452434187E-01  0.51100000000E-03 0. -1.
</event>
<event>
 8    1  0.1094829E+005  0.1043930E+01  0.7957747E-01            NaN
         13   -1    0    0    0    0  0.00000000000E+00  0.00000000000E+00  0.74505805969E-08  0.10566000000E+00  0.10566000000E+00 0. -1.
     999900   -1    0    0    0    0 -0.00000000000E+00 -0.00000000000E+00 -0.74505805969E-08  0.93827000000E+00  0.93827000000E+00 0.  1.
     999902    2    1    2    0    0  0.43815205214E-02  0.10513708581E-01 -0.20923908117E-01  0.10201067819E+01  0.10198285644E+01 0.  0.
     999903    2    3    3    0    0  0.14671849338E-01 -0.10573915581E+00  0.67501690022E-01  0.12800829756E+00  0.20823396756E-01 0.  0.
         14    1    1    2    0    0 -0.43815205214E-02 -0.10513708581E-01  0.20923908117E-01  0.23823218110E-01  0.00000000000E+00 0. -1.
     999901    1    3    3    0    0 -0.10290328817E-01  0.11625286439E+00 -0.88425598139E-01  0.89209848434E+00  0.88000000000E+00 0. -1.
        -11    1    4    4    0    0  0.64455872029E-02 -0.77609754598E-01  0.38897428130E-01  0.87052229376E-01  0.51100000000E-03 0.  1.
         11    1    4    4    0    0  0.82262621352E-02 -0.28129401214E-01  0.28604261892E-01  0.40956068180E-01  0.51100000000E-03 0. -1.
</event>
<event>
 8    1  0.1094829E+005  0.1043930E+01  0.7957747E-01            NaN
         13   -1    0    0    0    0  0.00000000000E+00  0.00000000000E+00  0.74505805969E-08  0.10566000000E+00  0.10566000000E+00 0. -1.
     999900   -1    0    0    0    0 -0.00000000000E+00 -0.00000000000E+00 -0.74505805969E-08  0.93827000000E+00  0.93827000000E+00 0. -1.
     999902    2    1    2    0    0 -0.12558655704E-03 -0.23754762252E-01 -0.19100121475E-02  0.10200982429E+01  0.10198198235E+01 0.  0.
     999903    2    3    3    0    0  0.14862918365E-01 -0.46272606011E-01 -0.12081833565E+00  0.13168904775E+00  0.19567183243E-01 0.  0.
         14    1    1    2    0    0  0.12558655704E-03  0.23754762252E-01  0.19100121475E-02  0.23831757133E-01  0.00000000000E+00 0.  1.
     999901    1    3    3    0    0 -0.14988504922E-01  0.22517843758E-01  0.11890832350E+00  0.88840919511E+00  0.88000000000E+00 0.  1.
        -11    1    4    4    0    0  0.67296148903E-02 -0.40453501556E-01 -0.83178201248E-01  0.92739677531E-01  0.51100000000E-03 0. -1.
         11    1    4    4    0    0  0.81333034745E-02 -0.58191044548E-02 -0.37640134398E-01  0.38949370221E-01  0.51100000000E-03 0.  1.
</event>
<event>
 8    1  0.1094829E+005  0.1043930E+01  0.7957747E-01            NaN
         13   -1    0    0    0    0  0.00000000000E+00  0.00000000000E+00  0.74505805969E-08  0.10566000000E+00  0.10566000000E+00 0.  1.
     999900   -1    0    0    0    0 -0.00000000000E+00 -0.00000000000E+00 -0.74505805969E-08  0.93827000000E+00  0.93827000000E+00 0.  1.
     999902    2    1    2    0    0  0.79971155877E-02 -0.16489316733E-02  0.20866752156E-01  0.10215225419E+01  0.10212767546E+01 0.  0.
     999903    2    3    3    0    0 -0.18459162799E-01  0.10698754730E+00  0.75025907177E-01  0.13279590602E+00  0.14791549584E-01 0.  0.
         14    1    1    2    0    0 -0.79971155877E-02  0.16489316733E-02 -0.20866752156E-01  0.22407458110E-01  0.00000000000E+00 0. -1.
     999901    1    3    3    0    0  0.26456278386E-01 -0.10863647898E+00 -0.54159155021E-01  0.88872663587E+00  0.88000000000E+00 0.  1.
        -11    1    4    4    0    0 -0.98235244442E-02  0.24905025933E-01  0.14556158457E-01  0.30477939879E-01  0.51100000000E-03 0.  1.
         11    1    4    4    0    0 -0.86356383546E-02  0.82082521370E-01  0.60469748720E-01  0.10231796614E+00  0.51100000000E-03 0. -1.
</event>
<event>
 8    1  0.1094829E+005  0.1043930E+01  0.7957747E-01            NaN
         13   -1    0    0    0    0  0.00000000000E+00  0.00000000000E+00  0.74505805969E-08  0.10566000000E+00  0.10566000000E+00 0.  1.
     999900   -1    0    0    0    0 -0.00000000000E+00 -0.00000000000E+00 -0.74505805969E-08  0.93827000000E+00  0.93827000000E+00 0. -1.
     999902    2    1    2    0    0  0.16456764447E-01  0.14267100029E-01 -0.36995126383E-02  0.10218378830E+01  0.10215990395E+01 0.  0.
     999903    2    3    3    0    0  0.75747020623E-01 -0.97578334078E-01  0.40836685794E-01  0.13166474896E+00  0.20219515290E-01 0.  0.
         14    1    1    2    0    0 -0.16456764447E-01 -0.14267100029E-01  0.36995126383E-02  0.22092116989E-01  0.00000000000E+00 0. -1.
     999901    1    3    3    0    0 -0.59290256176E-01  0.11184543411E+00 -0.44536198432E-01  0.89017313405E+00  0.88000000000E+00 0. -1.
        -11    1    4    4    0    0  0.36289541418E-01 -0.35402147246E-01  0.92587508974E-02  0.51538611110E-01  0.51100000000E-03 0. -1.
         11    1    4    4    0    0  0.39457479205E-01 -0.62176186831E-01  0.31577934897E-01  0.80126137854E-01  0.51100000000E-03 0.  1.
</event>
<event>
 8    1  0.1094829E+005  0.1043930E+01  0.7957747E-01            NaN
         13   -1    0    0    0    0  0.00000000000E+00  0.00000000000E+00  0.74505805969E-08  0.10566000000E+00  0.10566000000E+00 0. -1.
     999900   -1    0    0    0    0 -0.00000000000E+00 -0.00000000000E+00 -0.74505805969E-08  0.93827000000E+00  0.93827000000E+00 0. -1.
     999902    2    1    2    0    0  0.50597328260E-02  0.18846266521E-01  0.13148472455E-01  0.10203999132E+01  0.10201285791E+01 0.  0.
     999903    2    3    3    0    0  0.11734464067E+00 -0.25588058060E-01 -0.46172457831E-01  0.13017450211E+00  0.19722873243E-01 0.  0.
         14    1    1    2    0    0 -0.50597328260E-02 -0.18846266521E-01 -0.13148472455E-01  0.23530086824E-01  0.00000000000E+00 0.  1.
     999901    1    3    3    0    0 -0.11228490785E+00  0.44434324581E-01  0.59320930286E-01  0.89022541106E+00  0.88000000000E+00 0. -1.
        -11    1    4    4    0    0  0.10918435076E+00 -0.23711081856E-01 -0.36889973363E-01  0.11766294706E+00  0.51100000000E-03 0.  1.
         11    1    4    4    0    0  0.81602899072E-02 -0.18769762035E-02 -0.92824844673E-02  0.12511555056E-01  0.51100000000E-03 0. -1.
</event>
<event>
 8    1  0.1094829E+005  0.1043930E+01  0.7957747E-01            NaN
         13   -1    0    0    0    0  0.00000000000E+00  0.00000000000E+00  0.74505805969E-08  0.10566000000E+00  0.10566000000E+00 0. -1.
     999900   -1    0    0    0    0 -0.00000000000E+00 -0.00000000000E+00 -0.74505805969E-08  0.93827000000E+00  0.93827000000E+00 0.  1.
     999902    2    1    2    0    0  0.97570797465E-02 -0.89603597223E-02 -0.18421421349E-01  0.10212399710E+01  0.10209878750E+01 0.  0.
     999903    2    3    3    0    0 -0.11974348935E+00  0.28550481458E-01  0.34758675505E-01  0.12938483517E+00  0.19458592347E-01 0.  0.
         14    1    1    2    0    0 -0.97570797465E-02  0.89603597223E-02  0.18421421349E-01  0.22690029001E-01  0.00000000000E+00 0. -1.
     999901    1    3    3    0    0  0.12950056910E+00 -0.37510841180E-01 -0.53180096854E-01  0.89185513583E+00  0.88000000000E+00 0.  1.
        -11    1    4    4    0    0 -0.49427393455E-01  0.78221081917E-02  0.23232271764E-01  0.55174742162E-01  0.51100000000E-03 0.  1.
         11    1    4    4    0    0 -0.70316095894E-01  0.20728373266E-01  0.11526403741E-01  0.74210093008E-01  0.51100000000E-03 0. -1.
</event>
<event>
 8    1  0.1094829E+005  0.1043930E+01  0.7957747E-01            NaN
         13   -1    0    0    0    0  0.00000000000E+00  0.00000000000E+00  0.74505805969E-08  0.10566000000E+00  0.10566000000E+00 0. -1.
     999900   -1    0    0    0    0 -0.00000000000E+00 -0.00000000000E+00 -0.74505805969E-08  0.93827000000E+00  0.93827000000E+00 0. -1.
     999902    2    1    2    0    0 -0.12737890729E-01  0.72421005699E-03 -0.20504926282E-01  0.10197798376E+01  0.10194938386E+01 0.  0.
     999903    2    3    3    0    0  0.81512050508E-01  0.27943918930E-01 -0.96559866803E-01  0.13106823202E+00  0.20736359015E-01 0.  0.
         14    1    1    2    0    0  0.12737890729E-01 -0.72421005699E-03  0.20504926282E-01  0.24150162365E-01  0.00000000000E+00 0. -1.
     999901    1    3    3    0    0 -0.94249941237E-01 -0.27219708873E-01  0.76054940521E-01  0.88871160561E+00  0.88000000000E+00 0.  1.
        -11    1    4    4    0    0  0.34314101716E-01  0.20344810344E-01 -0.53420453047E-01  0.66673644037E-01  0.51100000000E-03 0. -1.
         11    1    4    4    0    0  0.47197948792E-01  0.75991085858E-02 -0.43139413756E-01  0.64394587984E-01  0.51100000000E-03 0.  1.
</event>
<event>
 8    1  0.1094829E+005  0.1043930E+01  0.7957747E-01            NaN
         13   -1    0    0    0    0  0.00000000000E+00  0.00000000000E+00  0.74505805969E-08  0.10566000000E+00  0.10566000000E+00 0.  1.
     999900   -1    0    0    0    0 -0.00000000000E+00 -0.00000000000E+00 -0.74505805969E-08  0.93827000000E+00  0.93827000000E+00 0. -1.
     999902    2    1    2    0    0  0.17574966132E-01  0.15966782572E-01  0.25847009972E-02  0.10200448946E+01  0.10197652126E+01 0.  0.
     999903    2    3    3    0    0  0.11609220552E+00  0.82732000321E-02 -0.60095109892E-01  0.13229853649E+00  0.18591248015E-01 0.  0.
         14    1    1    2    0    0 -0.17574966132E-01 -0.15966782572E-01 -0.25847009972E-02  0.23885105390E-01  0.00000000000E+00 0.  1.
     999901    1    3    3    0    0 -0.98517239387E-01  0.76935825400E-02  0.62679810889E-01  0.88774635812E+00  0.88000000000E+00 0. -1.
        -11    1    4    4    0    0  0.93470948686E-01  0.13823563769E-01 -0.50069468516E-01  0.10693512969E+00  0.51100000000E-03 0. -1.
         11    1    4    4    0    0  0.22621256833E-01 -0.55503637373E-02 -0.10025641376E-01  0.25363406796E-01  0.51100000000E-03 0.  1.
</event>
<event>
 8    1  0.1094829E+005  0.1043930E+01  0.7957747E-01            NaN
         13   -1    0    0    0    0  0.00000000000E+00  0.00000000000E+00  0.74505805969E-08  0.10566000000E+00  0.10566000000E+00 0.  1.
     999900   -1    0    0    0    0 -0.00000000000E+00 -0.00000000000E+00 -0.74505805969E-08  0.93827000000E+00  0.93827000000E+00 0. -1.
     999902    2    1    2    0    0  0.64518331368E-02  0.45223684206E-02  0.21445582094E-01  0.10210828786E+01  0.10208272400E+01 0.  0.
     999903    2    3    3    0    0  0.11439338289E+00  0.57940874324E-01  0.27901610934E-01  0.13285622097E+00  0.20719184158E-01 0.  0.
         14    1    1    2    0    0 -0.64518331368E-02 -0.45223684206E-02 -0.21445582094E-01  0.22847121444E-01  0.00000000000E+00 0. -1.
     999901    1    3    3    0    0 -0.10794154975E+00 -0.53418505903E-01 -0.64560288398E-02  0.88822665758E+00  0.88000000000E+00 0.  1.
        -11    1    4    4    0    0  0.59181631654E-01  0.18813088915E-01  0.10516339336E-01  0.62986128264E-01  0.51100000000E-03 0. -1.
         11    1    4    4    0    0  0.55211751234E-01  0.39127785409E-01  0.17385271598E-01  0.69870092707E-01  0.51100000000E-03 0.  1.
</event>
<event>
 8    1  0.1094829E+005  0.1043930E+01  0.7957747E-01            NaN
         13   -1    0    0    0    0  0.00000000000E+00  0.00000000000E+00  0.74505805969E-08  0.10566000000E+00  0.10566000000E+00 0.  1.
     999900   -1    0    0    0    0 -0.00000000000E+00 -0.00000000000E+00 -0.74505805969E-08  0.93827000000E+00  0.93827000000E+00 0.  1.
     999902    2    1    2    0    0 -0.21229487279E-01 -0.23332335681E-03 -0.96929379353E-02  0.10205912208E+01  0.10203243314E+01 0.  0.
     999903    2    3    3    0    0  0.62266451240E-01  0.97844093807E-01  0.52828874935E-01  0.12901972696E+00  0.20115224925E-01 0.  0.
         14    1    1    2    0    0  0.21229487279E-01  0.23332335681E-03  0.96929379353E-02  0.23338779225E-01  0.00000000000E+00 0.  1.
     999901    1    3    3    0    0 -0.83495938519E-01 -0.98077417164E-01 -0.62521812871E-01  0.89157149382E+00  0.88000000000E+00 0. -1.
        -11    1    4    4    0    0  0.44066566751E-01  0.68982040389E-01  0.47029032569E-01  0.94405377108E-01  0.51100000000E-03 0. -1.
         11    1    4    4    0    0  0.18199884489E-01  0.28862053418E-01  0.57998423665E-02  0.34614349848E-01  0.51100000000E-03 0.  1.
</event>
<event>
 8    1  0.1094829E+005  0.1043930E+01  0.7957747E-01            NaN
         13   -1    0    0    0    0  0.00000000000E+00  0.00000000000E+00  0.74505805969E-08  0.10566000000E+00  0.10566000000E+00 0.  1.
     999900   -1    0    0    0    0 -0.00000000000E+00 -0.00000000000E+00 -0.74505805969E-08  0.93827000000E+00  0.93827000000E+00 0.  1.
     999902    2    1    2    0    0  0.35584528104E-02 -0.24558154920E-01 -0.22435065303E-02  0.10190141641E+01  0.10187095109E+01 0.  0.
     999903    2    3    3    0    0  0.34422383539E-01  0.11321914881E+00  0.40846978131E-01  0.12671827282E+00  0.19635908377E-01 0.  0.
         14    1    1    2    0    0 -0.35584528104E-02  0.24558154920E-01  0.22435065303E-02  0.24915835949E-01  0.00000000000E+00 0.  1.
     999901    1    3    3    0    0 -0.30863930728E-01 -0.13777730373E+00 -0.43090484661E-01  0.89229589123E+00  0.88000000000E+00 0.  1.
        -11    1    4    4    0    0  0.19865072827E-01  0.34753517124E-01  0.16269718346E-01  0.43213342002E-01  0.51100000000E-03 0. -1.
         11    1    4    4    0    0  0.14557310711E-01  0.78465631686E-01  0.24577259785E-01  0.83504930816E-01  0.51100000000E-03 0.  1.
</event>
<event>
 8    1  0.1094829E+005  0.1043930E+01  0.7957747E-01            NaN
         13   -1    0    0    0    0  0.00000000000E+00  0.00000000000E+00  0.74505805969E-08  0.10566000000E+00  0.10566000000E+00 0.  1.
     999900   -1    0    0    0    0 -0.00000000000E+00 -0.00000000000E+00 -0.74505805969E-08  0.93827000000E+00  0.93827000000E+00 0.  1.
     999902    2    1    2    0    0 -0.17663922271E-01 -0.12365326251E-01 -0.67384594302E-02  0.10213396862E+01  0.10210898258E+01 0.  0.
     999903    2    3    3    0    0  0.25341432780E-01  0.11274446885E+00 -0.56316645708E-01  0.13007097364E+00  0.19834064804E-01 0.  0.
         14    1    1    2    0    0  0.17663922271E-01  0.12365326251E-01  0.67384594302E-02  0.22590313827E-01  0.00000000000E+00 0.  1.
     999901    1    3    3    0    0 -0.43005355051E-01 -0.12510979510E+00  0.49578186278E-01  0.89126871254E+00  0.88000000000E+00 0.  1.
        -11    1    4    4    0    0  0.18547308238E-01  0.44152538931E-01 -0.17681990670E-01  0.51052553824E-01  0.51100000000E-03 0.  1.
         11    1    4    4    0    0  0.67941245424E-02  0.68591929921E-01 -0.38634655038E-01  0.79018419812E-01  0.51100000000E-03 0. -1.
</event>
<event>
 8    1  0.1140476E+005  0.1043930E+01  0.7957747E-01            NaN
         13   -1    0    0    0    0  0.00000000000E+00  0.00000000000E+00  0.74505805969E-08  0.10566000000E+00  0.10566000000E+00 0.  1.
     999900   -1    0    0    0    0 -0.00000000000E+00 -0.00000000000E+00 -0.74505805969E-08  0.93827000000E+00  0.93827000000E+00 0. -1.
     999902    2    1    2    0    0  0.61783071602E-02  0.22282387872E-01 -0.31794320935E-02  0.10205893685E+01  0.10203224363E+01 0.  0.
     999903    2    3    3    0    0 -0.94990614661E-01 -0.81920259889E-01  0.18973985906E-01  0.12840994910E+00  0.19873525911E-01 0.  0.
         14    1    1    2    0    0 -0.61783071602E-02 -0.22282387872E-01  0.31794320935E-02  0.23340631463E-01  0.00000000000E+00 0. -1.
     999901    1    3    3    0    0  0.10116892182E+00  0.10420264776E+00 -0.22153418000E-01  0.89217941944E+00  0.88000000000E+00 0. -1.
        -11    1    4    4    0    0 -0.52811192821E-01 -0.57364051460E-01  0.80101946821E-02  0.78384187353E-01  0.51100000000E-03 0.  1.
         11    1    4    4    0    0 -0.42179421840E-01 -0.24556208429E-01  0.10963791224E-01  0.50025761745E-01  0.51100000000E-03 0. -1.
</event>
<event>
 8    1  0.1094829E+005  0.1043930E+01  0.7957747E-01            NaN
         13   -1    0    0    0    0  0.00000000000E+00  0.00000000000E+00  0.74505805969E-08  0.10566000000E+00  0.10566000000E+00 0.  1.
     999900   -1    0    0    0    0 -0.00000000000E+00 -0.00000000000E+00 -0.74505805969E-08  0.93827000000E+00  0.93827000000E+00 0. -1.
     999902    2    1    2    0    0  0.62535090529E-02  0.10052497496E-01  0.20168289497E-01  0.10205437010E+01  0.10202757111E+01 0.  0.
     999903    2    3    3    0    0 -0.31625616811E-01 -0.10551541314E+00 -0.62933210076E-01  0.12830122866E+00  0.19155529143E-01 0.  0.
         14    1    1    2    0    0 -0.62535090529E-02 -0.10052497496E-01 -0.20168289497E-01  0.23386299036E-01  0.00000000000E+00 0. -1.
     999901    1    3    3    0    0  0.37879125864E-01  0.11556791064E+00  0.83101499572E-01  0.89224247230E+00  0.88000000000E+00 0.  1.
        -11    1    4    4    0    0 -0.11330855848E-01 -0.23563477636E-01 -0.71598676223E-02  0.27113660725E-01  0.51100000000E-03 0. -1.
         11    1    4    4    0    0 -0.20294760964E-01 -0.81951935507E-01 -0.55773342454E-01  0.10118756794E+00  0.51100000000E-03 0.  1.
</event>
<event>
 8    1  0.1094829E+005  0.1043930E+01  0.7957747E-01            NaN
         13   -1    0    0    0    0  0.00000000000E+00  0.00000000000E+00  0.74505805969E-08  0.10566000000E+00  0.10566000000E+00 0.  1.
     999900   -1    0    0    0    0 -0.00000000000E+00 -0.00000000000E+00 -0.74505805969E-08  0.93827000000E+00  0.93827000000E+00 0. -1.
     999902    2    1    2    0    0  0.93639234615E-02 -0.12175511341E-01 -0.17625610142E-01  0.10205507726E+01  0.10202829467E+01 0.  0.
     999903    2    3    3    0    0 -0.49623977889E-02 -0.16178413774E-01 -0.13064972851E+00  0.13319756335E+00  0.19643646739E-01 0.  0.
         14    1    1    2    0    0 -0.93639234615E-02  0.12175511341E-01  0.17625610142E-01  0.23379227359E-01  0.00000000000E+00 0.  1.
     999901    1    3    3    0    0  0.14326321250E-01  0.40029024335E-02  0.11302411837E+00  0.88735320929E+00  0.88000000000E+00 0.  1.
        -11    1    4    4    0    0 -0.32548208734E-02  0.42456641197E-02 -0.30704107176E-01  0.31170865263E-01  0.51100000000E-03 0.  1.
         11    1    4    4    0    0 -0.17075769155E-02 -0.20424077894E-01 -0.99945621337E-01  0.10202669809E+00  0.51100000000E-03 0. -1.
</event>
<event>
 8    1  0.1094829E+005  0.1043930E+01  0.7957747E-01            NaN
         13   -1    0    0    0    0  0.00000000000E+00  0.00000000000E+00  0.74505805969E-08  0.10566000000E+00  0.10566000000E+00 0.  1.
     999900   -1    0    0    0    0 -0.00000000000E+00 -0.00000000000E+00 -0.74505805969E-08  0.93827000000E+00  0.93827000000E+00 0.  1.
     999902    2    1    2    0    0  0.13484518394E-01  0.18822689352E-01 -0.34006350370E-03  0.10207731109E+01  0.10205104127E+01 0.  0.
     999903    2    3    3    0    0 -0.78161307314E-01  0.41023965886E-01 -0.94421328908E-01  0.13074887606E+00  0.19690746595E-01 0.  0.
         14    1    1    2    0    0 -0.13484518394E-01 -0.18822689352E-01  0.34006350370E-03  0.23156889125E-01  0.00000000000E+00 0. -1.
     999901    1    3    3    0    0  0.91645825708E-01 -0.22201276533E-01  0.94081265404E-01  0.89002423481E+00  0.88000000000E+00 0. -1.
        -11    1    4    4    0    0 -0.32023836851E-01  0.72493534898E-02 -0.28475812457E-01  0.43465069524E-01  0.51100000000E-03 0. -1.
         11    1    4    4    0    0 -0.46137470463E-01  0.33774612396E-01 -0.65945516451E-01  0.87283806540E-01  0.51100000000E-03 0.  1.
</event>
<event>
 8    1  0.1094829E+005  0.1043930E+01  0.7957747E-01            NaN
         13   -1    0    0    0    0  0.00000000000E+00  0.00000000000E+00  0.74505805969E-08  0.10566000000E+00  0.10566000000E+00 0. -1.
     999900   -1    0    0    0    0 -0.00000000000E+00 -0.00000000000E+00 -0.74505805969E-08  0.93827000000E+00  0.93827000000E+00 0. -1.
     999902    2    1    2    0    0 -0.19176437151E-01  0.69868089432E-02  0.12414205595E-01  0.10200414307E+01  0.10197616666E+01 0.  0.
     999903    2    3    3    0    0 -0.41303446042E-01  0.48161626911E-01 -0.11178720495E+00  0.13009145431E+00  0.20047202604E-01 0.  0.
         14    1    1    2    0    0  0.19176437151E-01 -0.69868089432E-02 -0.12414205595E-01  0.23888569266E-01  0.00000000000E+00 0.  1.
     999901    1    3    3    0    0  0.22127008891E-01 -0.41174817968E-01  0.12420141054E+00  0.88994997642E+00  0.88000000000E+00 0.  1.
        -11    1    4    4    0    0 -0.37341479385E-01  0.47833201353E-01 -0.94212163043E-01  0.11206513294E+00  0.51100000000E-03 0. -1.
         11    1    4    4    0    0 -0.39619666568E-02  0.32842555786E-03 -0.17575041906E-01  0.18026321370E-01  0.51100000000E-03 0.  1.
</event>
<event>
 8    1  0.1202818E+005  0.1043930E+01  0.7957747E-01            NaN
         13   -1    0    0    0    0  0.00000000000E+00  0.00000000000E+00  0.74505805969E-08  0.10566000000E+00  0.10566000000E+00 0. -1.
     999900   -1    0    0    0    0 -0.00000000000E+00 -0.00000000000E+00 -0.74505805969E-08  0.93827000000E+00  0.93827000000E+00 0. -1.
     999902    2    1    2    0    0  0.18986411480E-01 -0.36582785789E-02 -0.15086673210E-01  0.10194050223E+01  0.10191099671E+01 0.  0.
     999903    2    3    3    0    0 -0.76048897746E-01 -0.43755448047E-01 -0.93508346883E-01  0.12991671326E+00  0.20894194548E-01 0.  0.
         14    1    1    2    0    0 -0.18986411480E-01  0.36582785789E-02  0.15086673210E-01  0.24524977709E-01  0.00000000000E+00 0. -1.
     999901    1    3    3    0    0  0.95035309226E-01  0.40097169468E-01  0.78421673673E-01  0.88948830903E+00  0.88000000000E+00 0.  1.
        -11    1    4    4    0    0 -0.33267529085E-01 -0.82693846677E-02 -0.41082527850E-01  0.53508377192E-01  0.51100000000E-03 0.  1.
         11    1    4    4    0    0 -0.42781368661E-01 -0.35486063379E-01 -0.52425819033E-01  0.76408336070E-01  0.51100000000E-03 0. -1.
</event>
<event>
 8    1  0.1094829E+005  0.1043930E+01  0.7957747E-01            NaN
         13   -1    0    0    0    0  0.00000000000E+00  0.00000000000E+00  0.74505805969E-08  0.10566000000E+00  0.10566000000E+00 0.  1.
     999900   -1    0    0    0    0 -0.00000000000E+00 -0.00000000000E+00 -0.74505805969E-08  0.93827000000E+00  0.93827000000E+00 0.  1.
     999902    2    1    2    0    0  0.78107958935E-02 -0.18123202227E-01 -0.12780626516E-01  0.10204182284E+01  0.10201473214E+01 0.  0.
     999903    2    3    3    0    0 -0.12367604481E+00  0.28747618668E-01 -0.15962684429E-01  0.12940992951E+00  0.19233640380E-01 0.  0.
         14    1    1    2    0    0 -0.78107958935E-02  0.18123202227E-01  0.12780626516E-01  0.23511771638E-01  0.00000000000E+00 0.  1.
     999901    1    3    3    0    0  0.13148684071E+00 -0.46870820894E-01  0.31820579136E-02  0.89100829885E+00  0.88000000000E+00 0. -1.
        -11    1    4    4    0    0 -0.26256251704E-01  0.14152680065E-01 -0.17705970308E-02  0.29884531809E-01  0.51100000000E-03 0. -1.
         11    1    4    4    0    0 -0.97419793107E-01  0.14594938603E-01 -0.14192087398E-01  0.99525397701E-01  0.51100000000E-03 0.  1.
</event>
<event>
 8    1  0.1094829E+005  0.1043930E+01  0.7957747E-01            NaN
         13   -1    0    0    0    0  0.00000000000E+00  0.00000000000E+00  0.74505805969E-08  0.10566000000E+00  0.10566000000E+00 0. -1.
     999900   -1    0    0    0    0 -0.00000000000E+00 -0.00000000000E+00 -0.74505805969E-08  0.93827000000E+00  0.93827000000E+00 0. -1.
     999902    2    1    2    0    0  0.39958069636E-02  0.10765394301E-01 -0.18590175853E-01  0.10220792603E+01  0.10218456632E+01 0.  0.
     999903    2    3    3    0    0 -0.11852104023E+00  0.32683498719E-01 -0.44711058512E-01  0.13293749338E+00  0.23618855315E-01 0.  0.
         14    1    1    2    0    0 -0.39958069636E-02 -0.10765394301E-01  0.18590175853E-01  0.21850739713E-01  0.00000000000E+00 0.  1.
     999901    1    3    3    0    0  0.12251684720E+00 -0.21918104418E-01  0.26120882659E-01  0.88914176691E+00  0.88000000000E+00 0.  1.
        -11    1    4    4    0    0 -0.91799638229E-01  0.15070990171E-01 -0.30348012242E-01  0.97854848075E-01  0.51100000000E-03 0. -1.
         11    1    4    4    0    0 -0.26721402004E-01  0.17612508549E-01 -0.14363046270E-01  0.35082645304E-01  0.51100000000E-03 0.  1.
</event>
<event>
 8    1  0.1094829E+005  0.1043930E+01  0.7957747E-01            NaN
         13   -1    0    0    0    0  0.00000000000E+00  0.00000000000E+00  0.74505805969E-08  0.10566000000E+00  0.10566000000E+00 0.  1.
     999900   -1    0    0    0    0 -0.00000000000E+00 -0.00000000000E+00 -0.74505805969E-08  0.93827000000E+00  0.93827000000E+00 0.  1.
     999902    2    1    2    0    0  0.12922034907E-01 -0.12546763458E-01 -0.18561707496E-01  0.10180661788E+01  0.10177375925E+01 0.  0.
     999903    2    3    3    0    0 -0.10231684727E+00  0.59243839183E-02 -0.75187907452E-01  0.12855636453E+00  0.19227112955E-01 0.  0.
         14    1    1    2    0    0 -0.12922034907E-01  0.12546763458E-01  0.18561707496E-01  0.25863821152E-01  0.00000000000E+00 0. -1.
     999901    1    3    3    0    0  0.11523888218E+00 -0.18471147377E-01  0.56626199956E-01  0.88950981432E+00  0.88000000000E+00 0.  1.
        -11    1    4    4    0    0 -0.53648599988E-01  0.12522280340E-01 -0.42048047790E-01  0.69305694063E-01  0.51100000000E-03 0.  1.
         11    1    4    4    0    0 -0.48668247286E-01 -0.65978964215E-02 -0.33139859661E-01  0.59250670464E-01  0.51100000000E-03 0. -1.
</event>
<event>
 8    1  0.1094829E+005  0.1043930E+01  0.7957747E-01            NaN
         13   -1    0    0    0    0  0.00000000000E+00  0.00000000000E+00  0.74505805969E-08  0.10566000000E+00  0.10566000000E+00 0.  1.
     999900   -1    0    0    0    0 -0.00000000000E+00 -0.00000000000E+00 -0.74505805969E-08  0.93827000000E+00  0.93827000000E+00 0. -1.
     999902    2    1    2    0    0 -0.64949131423E-02 -0.13145940110E-01 -0.17076094032E-01  0.10214223874E+01  0.10211743734E+01 0.  0.
     999903    2    3    3    0    0 -0.38321221946E-01 -0.12556239274E+00 -0.14300600495E-01  0.13369603534E+00  0.20873240504E-01 0.  0.
         14    1    1    2    0    0  0.64949131423E-02  0.13145940110E-01  0.17076094032E-01  0.22507612612E-01  0.00000000000E+00 0.  1.
     999901    1    3    3    0    0  0.31826308804E-01  0.11241645263E+00 -0.27754935368E-02  0.88772635205E+00  0.88000000000E+00 0.  1.
        -11    1    4    4    0    0 -0.16435494404E-01 -0.29572241312E-01  0.20243840360E-02  0.33896934732E-01  0.51100000000E-03 0. -1.
         11    1    4    4    0    0 -0.21885727542E-01 -0.95990151429E-01 -0.16324984531E-01  0.99799100609E-01  0.51100000000E-03 0.  1.
</event>
<event>
 8    1  0.1094829E+005  0.1043930E+01  0.7957747E-01            NaN
         13   -1    0    0    0    0  0.00000000000E+00  0.00000000000E+00  0.74505805969E-08  0.10566000000E+00  0.10566000000E+00 0. -1.
     999900   -1    0    0    0    0 -0.00000000000E+00 -0.00000000000E+00 -0.74505805969E-08  0.93827000000E+00  0.93827000000E+00 0.  1.
     999902    2    1    2    0    0 -0.61750653203E-02 -0.22818680103E-01 -0.14077783822E-02  0.10202486691E+01  0.10199737944E+01 0.  0.
     999903    2    3    3    0    0  0.47344414751E-01  0.28212037128E-01  0.11542737168E+00  0.12945187906E+00  0.19922304417E-01 0.  0.
         14    1    1    2    0    0  0.61750653203E-02  0.22818680103E-01  0.14077783822E-02  0.23681330902E-01  0.00000000000E+00 0. -1.
     999901    1    3    3    0    0 -0.53519480071E-01 -0.51030717231E-01 -0.11683515006E+00  0.89079679004E+00  0.88000000000E+00 0.  1.
        -11    1    4    4    0    0  0.31876339646E-01  0.28997917901E-01  0.85986098913E-01  0.96181342261E-01  0.51100000000E-03 0. -1.
         11    1    4    4    0    0  0.15468075105E-01 -0.78588077282E-03  0.29441272765E-01  0.33270536801E-01  0.51100000000E-03 0.  1.
</event>
<event>
 8    1  0.1094829E+005  0.1043930E+01  0.7957747E-01            NaN
         13   -1    0    0    0    0  0.00000000000E+00  0.00000000000E+00  0.74505805969E-08  0.10566000000E+00  0.10566000000E+00 0.  1.
     999900   -1    0    0    0    0 -0.00000000000E+00 -0.00000000000E+00 -0.74505805969E-08  0.93827000000E+00  0.93827000000E+00 0. -1.
     999902    2    1    2    0    0  0.64530396866E-02 -0.74174128571E-02  0.20270082492E-01  0.10214014408E+01  0.10211529598E+01 0.  0.
     999903    2    3    3    0    0 -0.90774148805E-01  0.68099004069E-01  0.63564788249E-01  0.13177776366E+00  0.21153634295E-01 0.  0.
         14    1    1    2    0    0 -0.64530396866E-02  0.74174128571E-02 -0.20270082492E-01  0.22528559185E-01  0.00000000000E+00 0. -1.
     999901    1    3    3    0    0  0.97227188492E-01 -0.75516416926E-01 -0.43294705756E-01  0.88962367715E+00  0.88000000000E+00 0.  1.
        -11    1    4    4    0    0 -0.47585056957E-01  0.48663387864E-01  0.38136438226E-01  0.78019946203E-01  0.51100000000E-03 0. -1.
         11    1    4    4    0    0 -0.43189091848E-01  0.19435616205E-01  0.25428350023E-01  0.53757817458E-01  0.51100000000E-03 0.  1.
</event>
<event>
 8    1  0.1094829E+005  0.1043930E+01  0.7957747E-01            NaN
         13   -1    0    0    0    0  0.00000000000E+00  0.00000000000E+00  0.74505805969E-08  0.10566000000E+00  0.10566000000E+00 0. -1.
     999900   -1    0    0    0    0 -0.00000000000E+00 -0.00000000000E+00 -0.74505805969E-08  0.93827000000E+00  0.93827000000E+00 0.  1.
     999902    2    1    2    0    0 -0.94371295301E-02 -0.21368281773E-01 -0.33241208317E-02  0.10203352409E+01  0.10200623957E+01 0.  0.
     999903    2    3    3    0    0  0.64858938560E-01 -0.20470674494E-01 -0.10990828889E+00  0.13079553049E+00  0.20047653326E-01 0.  0.
         14    1    1    2    0    0  0.94371295301E-02  0.21368281773E-01  0.33241208317E-02  0.23594759143E-01  0.00000000000E+00 0. -1.
     999901    1    3    3    0    0 -0.74296068090E-01 -0.89760727968E-03  0.10658416806E+00  0.88953971036E+00  0.88000000000E+00 0. -1.
        -11    1    4    4    0    0  0.59631076227E-01 -0.17511639245E-01 -0.85803420912E-01  0.10594815205E+00  0.51100000000E-03 0. -1.
         11    1    4    4    0    0  0.52278623330E-02 -0.29590352490E-02 -0.24104867982E-01  0.24847378446E-01  0.51100000000E-03 0.  1.
</event>
<event>
 8    1  0.1094829E+005  0.1043930E+01  0.7957747E-01            NaN
         13   -1    0    0    0    0  0.00000000000E+00  0.00000000000E+00  0.74505805969E-08  0.10566000000E+00  0.10566000000E+00 0.  1.
     999900   -1    0    0    0    0 -0.00000000000E+00 -0.00000000000E+00 -0.74505805969E-08  0.93827000000E+00  0.93827000000E+00 0.  1.
     999902    2    1    2    0    0  0.21983871549E-01  0.10684593797E-02  0.82674539067E-02  0.10204186621E+01  0.10201477653E+01 0.  0.
     999903    2    3    3    0    0  0.29400443317E-01  0.78144184695E-01  0.10025053828E+00  0.13224268815E+00  0.21611535690E-01 0.  0.
         14    1    1    2    0    0 -0.21983871549E-01 -0.10684593797E-02 -0.82674539067E-02  0.23511337857E-01  0.00000000000E+00 0. -1.
     999901    1    3    3    0    0 -0.74165717682E-02 -0.77075725315E-01 -0.91983084372E-01  0.88817597399E+00  0.88000000000E+00 0.  1.
        -11    1    4    4    0    0  0.17932377770E-01  0.63238473335E-01  0.87807662726E-01  0.10968646879E+00  0.51100000000E-03 0. -1.
         11    1    4    4    0    0  0.11468065548E-01  0.14905711360E-01  0.12442875552E-01  0.22556219354E-01  0.51100000000E-03 0.  1.
</event>
<event>
 8    1  0.1094829E+005  0.1043930E+01  0.7957747E-01            NaN
         13   -1    0    0    0    0  0.00000000000E+00  0.00000000000E+00  0.74505805969E-08  0.10566000000E+00  0.10566000000E+00 0.  1.
     999900   -1    0    0    0    0 -0.00000000000E+00 -0.00000000000E+00 -0.74505805969E-08  0.93827000000E+00  0.93827000000E+00 0. -1.
     999902    2    1    2    0    0 -0.20713518778E-01 -0.75607404794E-02 -0.92044508267E-02  0.10200357209E+01  0.10197558215E+01 0.  0.
     999903    2    3    3    0    0  0.11786759372E+00 -0.27757550162E-02  0.43876194143E-01  0.12759794961E+00  0.21345769294E-01 0.  0.
         14    1    1    2    0    0  0.20713518778E-01  0.75607404794E-02  0.92044508267E-02  0.23894279060E-01  0.00000000000E+00 0. -1.
     999901    1    3    3    0    0 -0.13858111250E+00 -0.47849854632E-02 -0.53080644970E-01  0.89243777133E+00  0.88000000000E+00 0. -1.
        -11    1    4    4    0    0  0.29339469195E-02 -0.37608696351E-02  0.86293347020E-03  0.48742137943E-02  0.51100000000E-03 0. -1.
         11    1    4    4    0    0  0.11493364680E+00  0.98511461888E-03  0.43013260673E-01  0.12272373582E+00  0.51100000000E-03 0.  1.
</event>
<event>
 8    1  0.1094829E+005  0.1043930E+01  0.7957747E-01            NaN
         13   -1    0    0    0    0  0.00000000000E+00  0.00000000000E+00  0.74505805969E-08  0.10566000000E+00  0.10566000000E+00 0. -1.
     999900   -1    0    0    0    0 -0.00000000000E+00 -0.00000000000E+00 -0.74505805969E-08  0.93827000000E+00  0.93827000000E+00 0. -1.
     999902    2    1    2    0    0 -0.33396198089E-03  0.16796814081E-01 -0.17805181683E-01  0.10194500288E+01  0.10191560687E+01 0.  0.
     999903    2    3    3    0    0 -0.40418132015E-01  0.10254972092E+00 -0.71259701824E-01  0.13276085700E+00  0.19935631143E-01 0.  0.
         14    1    1    2    0    0  0.33396198089E-03 -0.16796814081E-01  0.17805181683E-01  0.24479971173E-01  0.00000000000E+00 0. -1.
     999901    1    3    3    0    0  0.40084170034E-01 -0.85752906842E-01  0.53454520141E-01  0.88668917183E+00  0.88000000000E+00 0.  1.
        -11    1    4    4    0    0 -0.33315011933E-01  0.72439387003E-01 -0.60178798290E-01  0.99895463832E-01  0.51100000000E-03 0.  1.
         11    1    4    4    0    0 -0.71031200827E-02  0.30110333920E-01 -0.11080903534E-01  0.32865393164E-01  0.51100000000E-03 0. -1.
</event>
<event>
 8    1  0.1094829E+005  0.1043930E+01  0.7957747E-01            NaN
         13   -1    0    0    0    0  0.00000000000E+00  0.00000000000E+00  0.74505805969E-08  0.10566000000E+00  0.10566000000E+00 0. -1.
     999900   -1    0    0    0    0 -0.00000000000E+00 -0.00000000000E+00 -0.74505805969E-08  0.93827000000E+00  0.93827000000E+00 0. -1.
     999902    2    1    2    0    0  0.78163553295E-02  0.21068041160E-01 -0.61620485695E-02  0.10206291714E+01  0.10203631594E+01 0.  0.
     999903    2    3    3    0    0  0.44323511302E-01  0.11657124844E+00 -0.44337223521E-01  0.13388739447E+00  0.20164706573E-01 0.  0.
         14    1    1    2    0    0 -0.78163553295E-02 -0.21068041160E-01  0.61620485695E-02  0.23300828559E-01  0.00000000000E+00 0. -1.
     999901    1    3    3    0    0 -0.36507155972E-01 -0.95503207284E-01  0.38175174951E-01  0.88674177697E+00  0.88000000000E+00 0.  1.
        -11    1    4    4    0    0  0.21741431053E-01  0.46196482000E-01 -0.85575264621E-02  0.51771586354E-01  0.51100000000E-03 0.  1.
         11    1    4    4    0    0  0.22582080249E-01  0.70374766444E-01 -0.35779697059E-01  0.82115808119E-01  0.51100000000E-03 0. -1.
</event>
<event>
 8    1  0.1094829E+005  0.1043930E+01  0.7957747E-01            NaN
         13   -1    0    0    0    0  0.00000000000E+00  0.00000000000E+00  0.74505805969E-08  0.10566000000E+00  0.10566000000E+00 0.  1.
     999900   -1    0    0    0    0 -0.00000000000E+00 -0.00000000000E+00 -0.74505805969E-08  0.93827000000E+00  0.93827000000E+00 0.  1.
     999902    2    1    2    0    0 -0.87034518529E-02  0.16126000388E-01  0.15060113201E-01  0.10202107046E+01  0.10199349376E+01 0.  0.
     999903    2    3    3    0    0 -0.39650364532E-01  0.12257852895E+00 -0.21744662774E-01  0.13249203086E+00  0.21992287616E-01 0.  0.
         14    1    1    2    0    0  0.87034518529E-02 -0.16126000388E-01 -0.15060113201E-01  0.23719295358E-01  0.00000000000E+00 0. -1.
     999901    1    3    3    0    0  0.30946912679E-01 -0.10645252857E+00  0.36804775975E-01  0.88771867378E+00  0.88000000000E+00 0.  1.
        -11    1    4    4    0    0 -0.84778398516E-02  0.46469507613E-01  0.67492992731E-03  0.47244106064E-01  0.51100000000E-03 0.  1.
         11    1    4    4    0    0 -0.31172524681E-01  0.76109021342E-01 -0.22419592702E-01  0.85247924799E-01  0.51100000000E-03 0. -1.
</event>
<event>
 8    1  0.1094829E+005  0.1043930E+01  0.7957747E-01            NaN
         13   -1    0    0    0    0  0.00000000000E+00  0.00000000000E+00  0.74505805969E-08  0.10566000000E+00  0.10566000000E+00 0. -1.
     999900   -1    0    0    0    0 -0.00000000000E+00 -0.00000000000E+00 -0.74505805969E-08  0.93827000000E+00  0.93827000000E+00 0. -1.
     999902    2    1    2    0    0 -0.68869977772E-02 -0.19822065674E-01 -0.94794856138E-02  0.10209038046E+01  0.10206440969E+01 0.  0.
     999903    2    3    3    0    0 -0.75151528491E-01 -0.79410076149E-01 -0.74683277484E-01  0.13385120662E+00  0.19617368591E-01 0.  0.
         14    1    1    2    0    0  0.68869977772E-02  0.19822065674E-01  0.94794856138E-02  0.23026195375E-01  0.00000000000E+00 0. -1.
     999901    1    3    3    0    0  0.68264530713E-01  0.59588010475E-01  0.65203791870E-01  0.88705259800E+00  0.88000000000E+00 0. -1.
        -11    1    4    4    0    0 -0.50152708476E-01 -0.57605140086E-01 -0.61840881908E-01  0.98276152387E-01  0.51100000000E-03 0. -1.
         11    1    4    4    0    0 -0.24998820014E-01 -0.21804936063E-01 -0.12842395576E-01  0.35575054237E-01  0.51100000000E-03 0.  1.
</event>
<event>
 8    1  0.1094829E+005  0.1043930E+01  0.7957747E-01            NaN
         13   -1    0    0    0    0  0.00000000000E+00  0.00000000000E+00  0.74505805969E-08  0.10566000000E+00  0.10566000000E+00 0. -1.
     999900   -1    0    0    0    0 -0.00000000000E+00 -0.00000000000E+00 -0.74505805969E-08  0.93827000000E+00  0.93827000000E+00 0.  1.
     999902    2    1    2    0    0 -0.18904537317E-01 -0.37703181114E-02 -0.78253975107E-04  0.10246529942E+01  0.10244716470E+01 0.  0.
     999903    2    3    3    0    0 -0.71583957743E-01 -0.11395267538E+00  0.70056420054E-02  0.13619058373E+00  0.19731214967E-01 0.  0.
         14    1    1    2    0    0  0.18904537317E-01  0.37703181114E-02  0.78253975107E-04  0.19277005823E-01  0.00000000000E+00 0.  1.
     999901    1    3    3    0    0  0.52679420426E-01  0.11018235727E+00 -0.70838959805E-02  0.88846241044E+00  0.88000000000E+00 0. -1.
        -11    1    4    4    0    0 -0.46735208995E-01 -0.81291727439E-01  0.13162593114E-01  0.94689174082E-01  0.51100000000E-03 0. -1.
         11    1    4    4    0    0 -0.24848748748E-01 -0.32660947945E-01 -0.61569511086E-02  0.41501409651E-01  0.51100000000E-03 0.  1.
</event>
<event>
 8    1  0.1094829E+005  0.1043930E+01  0.7957747E-01            NaN
         13   -1    0    0    0    0  0.00000000000E+00  0.00000000000E+00  0.74505805969E-08  0.10566000000E+00  0.10566000000E+00 0. -1.
     999900   -1    0    0    0    0 -0.00000000000E+00 -0.00000000000E+00 -0.74505805969E-08  0.93827000000E+00  0.93827000000E+00 0.  1.
     999902    2    1    2    0    0 -0.23182712217E-01 -0.70504309850E-02 -0.72134544781E-02  0.10186479778E+01  0.10183341897E+01 0.  0.
     999903    2    3    3    0    0 -0.28559377897E-01  0.21279346260E-01 -0.12395037857E+00  0.13047063384E+00  0.19759587621E-01 0.  0.
         14    1    1    2    0    0  0.23182712217E-01  0.70504309850E-02  0.72134544781E-02  0.25282022235E-01  0.00000000000E+00 0.  1.
     999901    1    3    3    0    0  0.53766656802E-02 -0.28329777245E-01  0.11673692410E+00  0.88817734392E+00  0.88000000000E+00 0. -1.
        -11    1    4    4    0    0 -0.28033119474E-03  0.95323216246E-02 -0.39510495663E-01  0.40648297993E-01  0.51100000000E-03 0. -1.
         11    1    4    4    0    0 -0.28279046702E-01  0.11747024635E-01 -0.84439882911E-01  0.89822335848E-01  0.51100000000E-03 0.  1.
</event>
<event>
 8    1  0.1094829E+005  0.1043930E+01  0.7957747E-01            NaN
         13   -1    0    0    0    0  0.00000000000E+00  0.00000000000E+00  0.74505805969E-08  0.10566000000E+00  0.10566000000E+00 0. -1.
     999900   -1    0    0    0    0 -0.00000000000E+00 -0.00000000000E+00 -0.74505805969E-08  0.93827000000E+00  0.93827000000E+00 0.  1.
     999902    2    1    2    0    0  0.44715972728E-02 -0.10938412697E-01 -0.20296908108E-01  0.10204436522E+01  0.10201733376E+01 0.  0.
     999903    2    3    3    0    0 -0.24070969338E-01  0.49143703288E-01 -0.11886130403E+00  0.13244619786E+00  0.20480981259E-01 0.  0.
         14    1    1    2    0    0 -0.44715972728E-02  0.10938412697E-01  0.20296908108E-01  0.23486347805E-01  0.00000000000E+00 0. -1.
     999901    1    3    3    0    0  0.28542566611E-01 -0.60082115985E-01  0.98564395920E-01  0.88799745434E+00  0.88000000000E+00 0. -1.
        -11    1    4    4    0    0 -0.10746292511E-01  0.33165840384E-01 -0.53562890663E-01  0.63911658938E-01  0.51100000000E-03 0.  1.
         11    1    4    4    0    0 -0.13324676827E-01  0.15977862904E-01 -0.65298413365E-01  0.68534538917E-01  0.51100000000E-03 0. -1.
</event>
<event>
 8    1  0.1094829E+005  0.1043930E+01  0.7957747E-01            NaN
         13   -1    0    0    0    0  0.00000000000E+00  0.00000000000E+00  0.74505805969E-08  0.10566000000E+00  0.10566000000E+00 0.  1.
     999900   -1    0    0    0    0 -0.00000000000E+00 -0.00000000000E+00 -0.74505805969E-08  0.93827000000E+00  0.93827000000E+00 0. -1.
     999902    2    1    2    0    0 -0.89119610229E-02 -0.12890927457E-01 -0.17862616491E-01  0.10201671692E+01  0.10198903769E+01 0.  0.
     999903    2    3    3    0    0 -0.35484179834E-02 -0.11821067416E+00 -0.57430327011E-01  0.13298814535E+00  0.20031215339E-01 0.  0.
         14    1    1    2    0    0  0.89119610229E-02  0.12890927457E-01  0.17862616491E-01  0.23762830805E-01  0.00000000000E+00 0.  1.
     999901    1    3    3    0    0 -0.53635430395E-02  0.10531974670E+00  0.39567710519E-01  0.88717902385E+00  0.88000000000E+00 0.  1.
        -11    1    4    4    0    0 -0.40822268839E-02 -0.68400964984E-01 -0.43854472503E-01  0.81356207302E-01  0.51100000000E-03 0.  1.
         11    1    4    4    0    0  0.53380890054E-03 -0.49809709172E-01 -0.13575854507E-01  0.51631938045E-01  0.51100000000E-03 0. -1.
</event>
<event>
 8    1  0.1094829E+005  0.1043930E+01  0.7957747E-01            NaN
         13   -1    0    0    0    0  0.00000000000E+00  0.00000000000E+00  0.74505805969E-08  0.10566000000E+00  0.10566000000E+00 0.  1.
     999900   -1    0    0    0    0 -0.00000000000E+00 -0.00000000000E+00 -0.74505805969E-08  0.93827000000E+00  0.93827000000E+00 0. -1.
     999902    2    1    2    0    0  0.20491069015E-01  0.86673386386E-02 -0.83035610294E-02  0.10201822465E+01  0.10199058096E+01 0.  0.
     999903    2    3    3    0    0 -0.19598927674E-01 -0.12442528530E+00  0.18830194852E-01  0.12885901949E+00  0.19603598589E-01 0.  0.
         14    1    1    2    0    0 -0.20491069015E-01 -0.86673386386E-02  0.83035610294E-02  0.23747753456E-01  0.00000000000E+00 0.  1.
     999901    1    3    3    0    0  0.40089996689E-01  0.13309262394E+00 -0.27133755882E-01  0.89132322706E+00  0.88000000000E+00 0. -1.
        -11    1    4    4    0    0 -0.41139583680E-02 -0.40478760820E-01 -0.28324895149E-02  0.40788954986E-01  0.51100000000E-03 0. -1.
         11    1    4    4    0    0 -0.15484969306E-01 -0.83946524478E-01  0.21662684367E-01  0.88070064502E-01  0.51100000000E-03 0.  1.
</event>
<event>
 8    1  0.1186712E+005  0.1043930E+01  0.7957747E-01            NaN
         13   -1    0    0    0    0  0.00000000000E+00  0.00000000000E+00  0.74505805969E-08  0.10566000000E+00  0.10566000000E+00 0.  1.
     999900   -1    0    0    0    0 -0.00000000000E+00 -0.00000000000E+00 -0.74505805969E-08  0.93827000000E+00  0.93827000000E+00 0.  1.
     999902    2    1    2    0    0  0.73977574536E-02 -0.20589566363E-01 -0.78726988347E-03  0.10220376074E+01  0.10218031093E+01 0.  0.
     999903    2    3    3    0    0 -0.34101484467E-01  0.12249921466E+00 -0.11502440702E-01  0.12945069221E+00  0.21358996625E-01 0.  0.
         14    1    1    2    0    0 -0.73977574536E-02  0.20589566363E-01  0.78726988347E-03  0.21892392566E-01  0.00000000000E+00 0. -1.
     999901    1    3    3    0    0  0.41499241921E-01 -0.14308878103E+00  0.10715170819E-01  0.89258691522E+00  0.88000000000E+00 0.  1.
        -11    1    4    4    0    0 -0.26657766044E-01  0.56027235296E-01 -0.52472364867E-02  0.62269432286E-01  0.51100000000E-03 0.  1.
         11    1    4    4    0    0 -0.74437184231E-02  0.66471979367E-01 -0.62552042155E-02  0.67181259929E-01  0.51100000000E-03 0. -1.
</event>
<event>
 8    1  0.1094829E+005  0.1043930E+01  0.7957747E-01            NaN
         13   -1    0    0    0    0  0.00000000000E+00  0.00000000000E+00  0.74505805969E-08  0.10566000000E+00  0.10566000000E+00 0.  1.
     999900   -1    0    0    0    0 -0.00000000000E+00 -0.00000000000E+00 -0.74505805969E-08  0.93827000000E+00  0.93827000000E+00 0. -1.
     999902    2    1    2    0    0  0.22487271293E-01 -0.30730839367E-03  0.82096659968E-02  0.10199890221E+01  0.10197080144E+01 0.  0.
     999903    2    3    3    0    0  0.52572336021E-01 -0.92639614735E-01  0.75642434144E-01  0.13208275216E+00  0.19445483867E-01 0.  0.
         14    1    1    2    0    0 -0.22487271293E-01  0.30730839367E-03 -0.82096659968E-02  0.23940977934E-01  0.00000000000E+00 0. -1.
     999901    1    3    3    0    0 -0.30085064728E-01  0.92332306341E-01 -0.67432768147E-01  0.88790626990E+00  0.88000000000E+00 0.  1.
        -11    1    4    4    0    0  0.42820426903E-01 -0.56816702650E-01  0.49639945036E-01  0.86753166654E-01  0.51100000000E-03 0. -1.
         11    1    4    4    0    0  0.97519091174E-02 -0.35822912084E-01  0.26002489107E-01  0.45329585509E-01  0.51100000000E-03 0.  1.
</event>
<event>
 8    1  0.1094829E+005  0.1043930E+01  0.7957747E-01            NaN
         13   -1    0    0    0    0  0.00000000000E+00  0.00000000000E+00  0.74505805969E-08  0.10566000000E+00  0.10566000000E+00 0.  1.
     999900   -1    0    0    0    0 -0.00000000000E+00 -0.00000000000E+00 -0.74505805969E-08  0.93827000000E+00  0.93827000000E+00 0. -1.
     999902    2    1    2    0    0 -0.22030229417E-01  0.24791833452E-04  0.69083040849E-02  0.10208419882E+01  0.10205808682E+01 0.  0.
     999903    2    3    3    0    0 -0.60348056541E-01 -0.68565920874E-01 -0.92957475228E-01  0.13171538552E+00  0.19096521890E-01 0.  0.
         14    1    1    2    0    0  0.22030229417E-01 -0.24791833452E-04 -0.69083040849E-02  0.23088011783E-01  0.00000000000E+00 0. -1.
     999901    1    3    3    0    0  0.38317827124E-01  0.68590712707E-01  0.99865779313E-01  0.88912660270E+00  0.88000000000E+00 0.  1.
        -11    1    4    4    0    0 -0.14914876014E-01 -0.30413569476E-01 -0.36867194692E-01  0.50068851597E-01  0.51100000000E-03 0. -1.
         11    1    4    4    0    0 -0.45433180527E-01 -0.38152351398E-01 -0.56090280536E-01  0.81646533923E-01  0.51100000000E-03 0.  1.
</event>
<event>
 8    1  0.1094829E+005  0.1043930E+01  0.7957747E-01            NaN
         13   -1    0    0    0    0  0.00000000000E+00  0.00000000000E+00  0.74505805969E-08  0.10566000000E+00  0.10566000000E+00 0.  1.
     999900   -1    0    0    0    0 -0.00000000000E+00 -0.00000000000E+00 -0.74505805969E-08  0.93827000000E+00  0.93827000000E+00 0. -1.
     999902    2    1    2    0    0  0.18327247413E-01  0.46306957135E-02  0.13517511890E-01  0.10206909280E+01  0.10204263403E+01 0.  0.
     999903    2    3    3    0    0 -0.11180519074E+00  0.61055332506E-01 -0.63845339292E-02  0.12911127225E+00  0.20020091014E-01 0.  0.
         14    1    1    2    0    0 -0.18327247413E-01 -0.46306957135E-02 -0.13517511890E-01  0.23239072017E-01  0.00000000000E+00 0.  1.
     999901    1    3    3    0    0  0.13013243815E+00 -0.56424636792E-01  0.19902045819E-01  0.89157965574E+00  0.88000000000E+00 0. -1.
        -11    1    4    4    0    0 -0.91746014295E-01  0.57239666461E-01 -0.16823651929E-02  0.10815175463E+00  0.51100000000E-03 0. -1.
         11    1    4    4    0    0 -0.20059176442E-01  0.38156660441E-02 -0.47021687363E-02  0.20959517617E-01  0.51100000000E-03 0.  1.
</event>
<event>
 8    1  0.1094829E+005  0.1043930E+01  0.7957747E-01            NaN
         13   -1    0    0    0    0  0.00000000000E+00  0.00000000000E+00  0.74505805969E-08  0.10566000000E+00  0.10566000000E+00 0.  1.
     999900   -1    0    0    0    0 -0.00000000000E+00 -0.00000000000E+00 -0.74505805969E-08  0.93827000000E+00  0.93827000000E+00 0.  1.
     999902    2    1    2    0    0 -0.60115465503E-02 -0.22744296333E-01 -0.46175652919E-02  0.10199557718E+01  0.10196739738E+01 0.  0.
     999903    2    3    3    0    0 -0.58556035279E-01  0.89867702667E-01 -0.68358857105E-01  0.12894211429E+00  0.21168898027E-01 0.  0.
         14    1    1    2    0    0  0.60115465503E-02  0.22744296333E-01  0.46175652919E-02  0.23974228180E-01  0.00000000000E+00 0. -1.
     999901    1    3    3    0    0  0.52544488729E-01 -0.11261199900E+00  0.63741291814E-01  0.89101365753E+00  0.88000000000E+00 0. -1.
        -11    1    4    4    0    0 -0.19298929960E-01  0.38253620660E-01 -0.38276110608E-01  0.57455286575E-01  0.51100000000E-03 0. -1.
         11    1    4    4    0    0 -0.39257105319E-01  0.51614082007E-01 -0.30082746497E-01  0.71486827719E-01  0.51100000000E-03 0.  1.
</event>
<event>
 8    1  0.1094829E+005  0.1043930E+01  0.7957747E-01            NaN
         13   -1    0    0    0    0  0.00000000000E+00  0.00000000000E+00  0.74505805969E-08  0.10566000000E+00  0.10566000000E+00 0.  1.
     999900   -1    0    0    0    0 -0.00000000000E+00 -0.00000000000E+00 -0.74505805969E-08  0.93827000000E+00  0.93827000000E+00 0. -1.
     999902    2    1    2    0    0  0.13481458785E-01 -0.18729385780E-01 -0.52765123633E-02  0.10202576278E+01  0.10199829635E+01 0.  0.
     999903    2    3    3    0    0  0.90894095517E-01 -0.95544052539E-01  0.50390925236E-02  0.13346587037E+00  0.19933477463E-01 0.  0.
         14    1    1    2    0    0 -0.13481458785E-01  0.18729385780E-01  0.52765123633E-02  0.23672372196E-01  0.00000000000E+00 0.  1.
     999901    1    3    3    0    0 -0.77412636732E-01  0.76814666759E-01 -0.10315604887E-01  0.88679175744E+00  0.88000000000E+00 0. -1.
        -11    1    4    4    0    0  0.77818803880E-02 -0.10093803927E-01  0.63625064089E-02  0.14254302820E-01  0.51100000000E-03 0. -1.
         11    1    4    4    0    0  0.83112215129E-01 -0.85450248612E-01 -0.13234138852E-02  0.11921156755E+00  0.51100000000E-03 0.  1.
</event>
<event>
 8    1  0.1094829E+005  0.1043930E+01  0.7957747E-01            NaN
         13   -1    0    0    0    0  0.00000000000E+00  0.00000000000E+00  0.74505805969E-08  0.10566000000E+00  0.10566000000E+00 0.  1.
     999900   -1    0    0    0    0 -0.00000000000E+00 -0.00000000000E+00 -0.74505805969E-08  0.93827000000E+00  0.93827000000E+00 0.  1.
     999902    2    1    2    0    0 -0.13168832282E-01  0.50665293328E-03 -0.29301647378E-01  0.10118011752E+01  0.10112909358E+01 0.  0.
     999903    2    3    3    0    0 -0.88443891763E-02  0.11674417978E+00  0.28940318338E-01  0.12223836688E+00  0.19931120916E-01 0.  0.
         14    1    1    2    0    0  0.13168832282E-01 -0.50665293328E-03  0.29301647378E-01  0.32128824752E-01  0.00000000000E+00 0.  1.
     999901    1    3    3    0    0 -0.43244431055E-02 -0.11623752684E+00 -0.58241965716E-01  0.88956280836E+00  0.88000000000E+00 0.  1.
        -11    1    4    4    0    0 -0.15062781316E-01  0.78036048996E-01  0.17300519887E-01  0.81339298209E-01  0.51100000000E-03 0.  1.
         11    1    4    4    0    0  0.62183921396E-02  0.38708130782E-01  0.11639798450E-01  0.40899068674E-01  0.51100000000E-03 0. -1.
</event>
<event>
 7    1  0.1094829E+005  0.1043930E+01  0.7957747E-01            NaN
         13   -1    0    0    0    0  0.00000000000E+00  0.00000000000E+00  0.74505805969E-08  0.10566000000E+00  0.10566000000E+00 0.  1.
     999900   -1    0    0    0    0 -0.00000000000E+00 -0.00000000000E+00 -0.74505805969E-08  0.93827000000E+00  0.93827000000E+00 0.  1.
     999903    2    1    2    0    0 -0.53146095160E-01 -0.67087550879E-01  0.13614726931E-01  0.88950452977E-01  0.20039345840E-01 0.  0.
         14    1    1    2    0    0 -0.17299699303E-01 -0.59801936311E-01  0.84137289913E-02  0.62819917368E-01  0.00000000000E+00 0.  1.
     999901    1    1    2    0    0  0.70445794463E-01  0.12688948719E+00 -0.22028455922E-01  0.89215962966E+00  0.88000000000E+00 0.  1.
        -11    1    3    3    0    0 -0.47137899390E-01 -0.52752917291E-01  0.44209320849E-02  0.70884819272E-01  0.51100000000E-03 0. -1.
         11    1    3    3    0    0 -0.60081957691E-02 -0.14334633588E-01  0.91937948460E-02  0.18065633705E-01  0.51100000000E-03 0.  1.
</event>
<event>
 8    1  0.1094829E+005  0.1043930E+01  0.7957747E-01            NaN
         13   -1    0    0    0    0  0.00000000000E+00  0.00000000000E+00  0.74505805969E-08  0.10566000000E+00  0.10566000000E+00 0.  1.
     999900   -1    0    0    0    0 -0.00000000000E+00 -0.00000000000E+00 -0.74505805969E-08  0.93827000000E+00  0.93827000000E+00 0.  1.
     999902    2    1    2    0    0  0.17053280058E-01 -0.17382292309E-01 -0.94055049510E-02  0.10178259396E+01  0.10174911407E+01 0.  0.
     999903    2    3    3    0    0  0.10940848942E+00  0.76792272673E-02  0.66464564482E-01  0.12939258143E+00  0.17196328302E-01 0.  0.
         14    1    1    2    0    0 -0.17053280058E-01  0.17382292309E-01  0.94055049510E-02  0.26104060412E-01  0.00000000000E+00 0. -1.
     999901    1    3    3    0    0 -0.92355209365E-01 -0.25061519576E-01 -0.75870069433E-01  0.88843335816E+00  0.88000000000E+00 0.  1.
        -11    1    4    4    0    0  0.46365584399E-01  0.68347120913E-02  0.19458684017E-01  0.50748223719E-01  0.51100000000E-03 0.  1.
         11    1    4    4    0    0  0.63042905023E-01  0.84451517605E-03  0.47005880465E-01  0.78644357706E-01  0.51100000000E-03 0. -1.
</event>
<event>
 8    1  0.1094829E+005  0.1043930E+01  0.7957747E-01            NaN
         13   -1    0    0    0    0  0.00000000000E+00  0.00000000000E+00  0.74505805969E-08  0.10566000000E+00  0.10566000000E+00 0.  1.
     999900   -1    0    0    0    0 -0.00000000000E+00 -0.00000000000E+00 -0.74505805969E-08  0.93827000000E+00  0.93827000000E+00 0.  1.
     999902    2    1    2    0    0 -0.42825590683E-02  0.21683144521E-02 -0.24192161101E-01  0.10192662096E+01  0.10189677637E+01 0.  0.
     999903    2    3    3    0    0  0.91914897969E-01 -0.79174105532E-01 -0.43293364183E-01  0.13008940151E+00  0.18222226746E-01 0.  0.
         14    1    1    2    0    0  0.42825590683E-02 -0.21683144521E-02  0.24192161101E-01  0.24663790432E-01  0.00000000000E+00 0.  1.
     999901    1    3    3    0    0 -0.96197457037E-01  0.81342419984E-01  0.19101203083E-01  0.88917680806E+00  0.88000000000E+00 0. -1.
        -11    1    4    4    0    0  0.55848571142E-01 -0.51134516864E-01 -0.17862611739E-01  0.77801900572E-01  0.51100000000E-03 0. -1.
         11    1    4    4    0    0  0.36066326827E-01 -0.28039588668E-01 -0.25430752444E-01  0.52287500938E-01  0.51100000000E-03 0.  1.
</event>
<event>
 8    1  0.1094829E+005  0.1043930E+01  0.7957747E-01            NaN
         13   -1    0    0    0    0  0.00000000000E+00  0.00000000000E+00  0.74505805969E-08  0.10566000000E+00  0.10566000000E+00 0. -1.
     999900   -1    0    0    0    0 -0.00000000000E+00 -0.00000000000E+00 -0.74505805969E-08  0.93827000000E+00  0.93827000000E+00 0. -1.
     999902    2    1    2    0    0 -0.60981060244E-02 -0.52840257058E-02  0.22294372044E-01  0.10202203638E+01  0.10199448239E+01 0.  0.
     999903    2    3    3    0    0  0.46865325876E-01 -0.11883448397E+00 -0.18163766375E-01  0.13042505437E+00  0.19046759547E-01 0.  0.
         14    1    1    2    0    0  0.60981060244E-02  0.52840257058E-02 -0.22294372044E-01  0.23709636218E-01  0.00000000000E+00 0.  1.
     999901    1    3    3    0    0 -0.52963431900E-01  0.11355045826E+00  0.40458138420E-01  0.88979530941E+00  0.88000000000E+00 0.  1.
        -11    1    4    4    0    0  0.24897151955E-01 -0.86462902228E-01 -0.10966942957E-01  0.90643458650E-01  0.51100000000E-03 0. -1.
         11    1    4    4    0    0  0.21968173921E-01 -0.32371581737E-01 -0.71968234181E-02  0.39781595718E-01  0.51100000000E-03 0.  1.
</event>
<event>
 8    1  0.1094829E+005  0.1043930E+01  0.7957747E-01            NaN
         13   -1    0    0    0    0  0.00000000000E+00  0.00000000000E+00  0.74505805969E-08  0.10566000000E+00  0.10566000000E+00 0.  1.
     999900   -1    0    0    0    0 -0.00000000000E+00 -0.00000000000E+00 -0.74505805969E-08  0.93827000000E+00  0.93827000000E+00 0.  1.
     999902    2    1    2    0    0  0.19558802678E-01 -0.99651664633E-02 -0.89043381904E-02  0.10202416370E+01  0.10199665971E+01 0.  0.
     999903    2    3    3    0    0 -0.11583686779E+00 -0.18557672899E-01 -0.49389447958E-01  0.12892527177E+00  0.20490021188E-01 0.  0.
         14    1    1    2    0    0 -0.19558802678E-01  0.99651664633E-02  0.89043381904E-02  0.23688363039E-01  0.00000000000E+00 0.  1.
     999901    1    3    3    0    0  0.13539567047E+00  0.85925064362E-02  0.40485109767E-01  0.89131636519E+00  0.88000000000E+00 0. -1.
        -11    1    4    4    0    0 -0.52027756415E-01 -0.10496891326E-01 -0.11614328248E-01  0.54334389725E-01  0.51100000000E-03 0. -1.
         11    1    4    4    0    0 -0.63809111374E-01 -0.80607815730E-02 -0.37775119710E-01  0.74590882043E-01  0.51100000000E-03 0.  1.
</event>
<event>
 8    1  0.1094829E+005  0.1043930E+01  0.7957747E-01            NaN
         13   -1    0    0    0    0  0.00000000000E+00  0.00000000000E+00  0.74505805969E-08  0.10566000000E+00  0.10566000000E+00 0.  1.
     999900   -1    0    0    0    0 -0.00000000000E+00 -0.00000000000E+00 -0.74505805969E-08  0.93827000000E+00  0.93827000000E+00 0. -1.
     999902    2    1    2    0    0 -0.12226316954E-01  0.91402544774E-02 -0.17922244832E-01  0.10203878264E+01  0.10201162102E+01 0.  0.
     999903    2    3    3    0    0  0.48354281217E-01 -0.77143522790E-01  0.87517505103E-01  0.12784514397E+00  0.19894911806E-01 0.  0.
         14    1    1    2    0    0  0.12226316954E-01 -0.91402544774E-02  0.17922244832E-01  0.23542173603E-01  0.00000000000E+00 0.  1.
     999901    1    3    3    0    0 -0.60580598172E-01  0.86283777267E-01 -0.10543974993E+00  0.89254268243E+00  0.88000000000E+00 0. -1.
        -11    1    4    4    0    0  0.41893305022E-01 -0.64408793435E-01  0.82403977391E-01  0.11266862158E+00  0.51100000000E-03 0. -1.
         11    1    4    4    0    0  0.64609761952E-02 -0.12734729355E-01  0.51135277120E-02  0.15176522388E-01  0.51100000000E-03 0.  1.
</event>
<event>
 8    1  0.1094829E+005  0.1043930E+01  0.7957747E-01            NaN
         13   -1    0    0    0    0  0.00000000000E+00  0.00000000000E+00  0.74505805969E-08  0.10566000000E+00  0.10566000000E+00 0. -1.
     999900   -1    0    0    0    0 -0.00000000000E+00 -0.00000000000E+00 -0.74505805969E-08  0.93827000000E+00  0.93827000000E+00 0. -1.
     999902    2    1    2    0    0  0.15610075284E-01 -0.17719577774E-01 -0.28408003731E-02  0.10201449620E+01  0.10198676460E+01 0.  0.
     999903    2    3    3    0    0  0.18651883931E-01  0.10590713077E+00 -0.68447384596E-01  0.12907984676E+00  0.20306384693E-01 0.  0.
         14    1    1    2    0    0 -0.15610075284E-01  0.17719577774E-01  0.28408003731E-02  0.23785038020E-01  0.00000000000E+00 0.  1.
     999901    1    3    3    0    0 -0.30418086468E-02 -0.12362670855E+00  0.65606584223E-01  0.89106511522E+00  0.88000000000E+00 0. -1.
        -11    1    4    4    0    0  0.23052964617E-01  0.89415775214E-01 -0.58656710077E-01  0.10939602732E+00  0.51100000000E-03 0.  1.
         11    1    4    4    0    0 -0.44010806866E-02  0.16491355560E-01 -0.97906745189E-02  0.19683819445E-01  0.51100000000E-03 0. -1.
</event>
<event>
 8    1  0.1094829E+005  0.1043930E+01  0.7957747E-01            NaN
         13   -1    0    0    0    0  0.00000000000E+00  0.00000000000E+00  0.74505805969E-08  0.10566000000E+00  0.10566000000E+00 0.  1.
     999900   -1    0    0    0    0 -0.00000000000E+00 -0.00000000000E+00 -0.74505805969E-08  0.93827000000E+00  0.93827000000E+00 0.  1.
     999902    2    1    2    0    0 -0.11010580888E-01  0.20848858195E-01 -0.10668195831E-02  0.10203281805E+01  0.10200551701E+01 0.  0.
     999903    2    3    3    0    0  0.10198359572E-01 -0.93655417248E-01 -0.85714775288E-01  0.12862961896E+00  0.17978110402E-01 0.  0.
         14    1    1    2    0    0  0.11010580888E-01 -0.20848858195E-01  0.10668195831E-02  0.23601819497E-01  0.00000000000E+00 0. -1.
     999901    1    3    3    0    0 -0.21208940460E-01  0.11450427544E+00  0.84647955705E-01  0.89169856154E+00  0.88000000000E+00 0. -1.
        -11    1    4    4    0    0  0.32134815372E-02 -0.33316470677E-01 -0.42411362013E-01  0.54030532393E-01  0.51100000000E-03 0. -1.
         11    1    4    4    0    0  0.69848780345E-02 -0.60338946571E-01 -0.43303413275E-01  0.74599086568E-01  0.51100000000E-03 0.  1.
</event>
<event>
 8    1  0.1094829E+005  0.1043930E+01  0.7957747E-01            NaN
         13   -1    0    0    0    0  0.00000000000E+00  0.00000000000E+00  0.74505805969E-08  0.10566000000E+00  0.10566000000E+00 0. -1.
     999900   -1    0    0    0    0 -0.00000000000E+00 -0.00000000000E+00 -0.74505805969E-08  0.93827000000E+00  0.93827000000E+00 0. -1.
     999902    2    1    2    0    0 -0.96943266284E-02  0.19674574671E-01  0.91074238242E-02  0.10201810205E+01  0.10199045547E+01 0.  0.
     999903    2    3    3    0    0  0.78556699877E-01 -0.98690639035E-01  0.65475653019E-02  0.12787775349E+00  0.19971276800E-01 0.  0.
         14    1    1    2    0    0  0.96943266284E-02 -0.19674574671E-01 -0.91074238242E-02  0.23748979472E-01  0.00000000000E+00 0.  1.
     999901    1    3    3    0    0 -0.88251026505E-01  0.11836521371E+00  0.25598585223E-02  0.89230326704E+00  0.88000000000E+00 0. -1.
        -11    1    4    4    0    0  0.65114050472E-01 -0.68253547376E-01  0.26155005409E-02  0.94368894570E-01  0.51100000000E-03 0. -1.
         11    1    4    4    0    0  0.13442649404E-01 -0.30437091659E-01  0.39320647610E-02  0.33508858918E-01  0.51100000000E-03 0.  1.
</event>
<event>
 8    1  0.1094829E+005  0.1043930E+01  0.7957747E-01            NaN
         13   -1    0    0    0    0  0.00000000000E+00  0.00000000000E+00  0.74505805969E-08  0.10566000000E+00  0.10566000000E+00 0.  1.
     999900   -1    0    0    0    0 -0.00000000000E+00 -0.00000000000E+00 -0.74505805969E-08  0.93827000000E+00  0.93827000000E+00 0.  1.
     999902    2    1    2    0    0  0.11658544974E-01 -0.12176907391E-01  0.15996973868E-01  0.10206899071E+01  0.10204252959E+01 0.  0.
     999903    2    3    3    0    0  0.20413684780E-01 -0.25592545658E-01 -0.12376611124E+00  0.12951632594E+00  0.19614572971E-01 0.  0.
         14    1    1    2    0    0 -0.11658544974E-01  0.12176907391E-01 -0.15996973868E-01  0.23240092888E-01  0.00000000000E+00 0. -1.
     999901    1    3    3    0    0 -0.87551398069E-02  0.13415638267E-01  0.13976308511E+00  0.89117358117E+00  0.88000000000E+00 0. -1.
        -11    1    4    4    0    0  0.79475501780E-02 -0.57133514782E-02 -0.72175158791E-01  0.72837631801E-01  0.51100000000E-03 0.  1.
         11    1    4    4    0    0  0.12466134602E-01 -0.19879194180E-01 -0.51590952452E-01  0.56678694137E-01  0.51100000000E-03 0. -1.
</event>
<event>
 8    1  0.1094829E+005  0.1043930E+01  0.7957747E-01            NaN
         13   -1    0    0    0    0  0.00000000000E+00  0.00000000000E+00  0.74505805969E-08  0.10566000000E+00  0.10566000000E+00 0.  1.
     999900   -1    0    0    0    0 -0.00000000000E+00 -0.00000000000E+00 -0.74505805969E-08  0.93827000000E+00  0.93827000000E+00 0.  1.
     999902    2    1    2    0    0 -0.12157235191E-01  0.68330138907E-02 -0.17021833919E-01  0.10219247443E+01  0.10216877957E+01 0.  0.
     999903    2    3    3    0    0 -0.30900745642E-01 -0.65295951314E-01 -0.11100648139E+00  0.13378791887E+00  0.18930160746E-01 0.  0.
         14    1    1    2    0    0  0.12157235191E-01 -0.68330138907E-02  0.17021833919E-01  0.22005255651E-01  0.00000000000E+00 0.  1.
     999901    1    3    3    0    0  0.18743510451E-01  0.72128965205E-01  0.93984647473E-01  0.88813682548E+00  0.88000000000E+00 0. -1.
        -11    1    4    4    0    0 -0.12527245480E-01 -0.42641459993E-01 -0.77678050669E-01  0.89495065040E-01  0.51100000000E-03 0.  1.
         11    1    4    4    0    0 -0.18373500161E-01 -0.22654491321E-01 -0.33328430723E-01  0.44292853833E-01  0.51100000000E-03 0. -1.
</event>
<event>
 7    1  0.1094829E+005  0.1043930E+01  0.7957747E-01            NaN
         13   -1    0    0    0    0  0.00000000000E+00  0.00000000000E+00  0.74505805969E-08  0.10566000000E+00  0.10566000000E+00 0. -1.
     999900   -1    0    0    0    0 -0.00000000000E+00 -0.00000000000E+00 -0.74505805969E-08  0.93827000000E+00  0.93827000000E+00 0.  1.
     999903    2    1    2    0    0  0.98921660215E-01  0.46087860311E-01  0.36996227919E-02  0.11109469377E+00  0.20463578581E-01 0.  0.
         14    1    1    2    0    0 -0.30222814576E-01  0.19565837483E-01 -0.30689072667E-01  0.47308135648E-01  0.00000000000E+00 0. -1.
     999901    1    1    2    0    0 -0.68698845639E-01 -0.65653697794E-01  0.26989449875E-01  0.88552717058E+00  0.88000000000E+00 0. -1.
        -11    1    3    3    0    0  0.66008031432E-01  0.36638642354E-01  0.10366486849E-01  0.76204825947E-01  0.51100000000E-03 0.  1.
         11    1    3    3    0    0  0.32913628783E-01  0.94492179574E-02 -0.66668640567E-02  0.34889867828E-01  0.51100000000E-03 0. -1.
</event>
<event>
 8    1  0.1094829E+005  0.1043930E+01  0.7957747E-01            NaN
         13   -1    0    0    0    0  0.00000000000E+00  0.00000000000E+00  0.74505805969E-08  0.10566000000E+00  0.10566000000E+00 0.  1.
     999900   -1    0    0    0    0 -0.00000000000E+00 -0.00000000000E+00 -0.74505805969E-08  0.93827000000E+00  0.93827000000E+00 0. -1.
     999902    2    1    2    0    0 -0.23018154756E-01  0.58163148487E-02 -0.15413393599E-02  0.10201383903E+01  0.10198609192E+01 0.  0.
     999903    2    3    3    0    0 -0.35586072363E-01  0.51262218126E-01  0.11371370484E+00  0.13137126222E+00  0.20818701096E-01 0.  0.
         14    1    1    2    0    0  0.23018154756E-01 -0.58163148487E-02  0.15413393599E-02  0.23791609736E-01  0.00000000000E+00 0.  1.
     999901    1    3    3    0    0  0.12567917607E-01 -0.45445903278E-01 -0.11525504420E+00  0.88876712804E+00  0.88000000000E+00 0. -1.
        -11    1    4    4    0    0 -0.10337106977E-01  0.38361019691E-02  0.29275809201E-01  0.31287466890E-01  0.51100000000E-03 0.  1.
         11    1    4    4    0    0 -0.25248965386E-01  0.47426116157E-01  0.84437895639E-01  0.10008379533E+00  0.51100000000E-03 0. -1.
</event>
<event>
 8    1  0.1094829E+005  0.1043930E+01  0.7957747E-01            NaN
         13   -1    0    0    0    0  0.00000000000E+00  0.00000000000E+00  0.74505805969E-08  0.10566000000E+00  0.10566000000E+00 0. -1.
     999900   -1    0    0    0    0 -0.00000000000E+00 -0.00000000000E+00 -0.74505805969E-08  0.93827000000E+00  0.93827000000E+00 0.  1.
     999902    2    1    2    0    0 -0.21819597123E-01  0.81284603136E-04  0.71523277546E-02  0.10209679178E+01  0.10207096708E+01 0.  0.
     999903    2    3    3    0    0 -0.27125969745E-01  0.86417795168E-01 -0.92753730808E-01  0.13110086528E+00  0.19502018955E-01 0.  0.
         14    1    1    2    0    0  0.21819597123E-01 -0.81284603136E-04 -0.71523277546E-02  0.22962082182E-01  0.00000000000E+00 0. -1.
     999901    1    3    3    0    0  0.53063726221E-02 -0.86336510565E-01  0.99906058562E-01  0.88986705253E+00  0.88000000000E+00 0. -1.
        -11    1    4    4    0    0 -0.31681766844E-02  0.30565630807E-01 -0.41227680807E-01  0.51422542876E-01  0.51100000000E-03 0. -1.
         11    1    4    4    0    0 -0.23957793061E-01  0.55852164361E-01 -0.51526050001E-01  0.79678322409E-01  0.51100000000E-03 0.  1.
</event>
<event>
 8    1  0.1094829E+005  0.1043930E+01  0.7957747E-01            NaN
         13   -1    0    0    0    0  0.00000000000E+00  0.00000000000E+00  0.74505805969E-08  0.10566000000E+00  0.10566000000E+00 0. -1.
     999900   -1    0    0    0    0 -0.00000000000E+00 -0.00000000000E+00 -0.74505805969E-08  0.93827000000E+00  0.93827000000E+00 0.  1.
     999902    2    1    2    0    0  0.18680613044E-03  0.22501806783E-01  0.15891859018E-01  0.10163815447E+01  0.10160081334E+01 0.  0.
     999903    2    3    3    0    0 -0.97657028651E-01 -0.73438929124E-01 -0.19132083944E-01  0.12508770014E+00  0.18727640930E-01 0.  0.
         14    1    1    2    0    0 -0.18680613044E-03 -0.22501806783E-01 -0.15891859018E-01  0.27548455275E-01  0.00000000000E+00 0.  1.
     999901    1    3    3    0    0  0.97843834781E-01  0.95940735907E-01  0.35023942962E-01  0.89129384458E+00  0.88000000000E+00 0. -1.
        -11    1    4    4    0    0 -0.62185065932E-01 -0.47273954324E-01 -0.30846054573E-02  0.78176627544E-01  0.51100000000E-03 0.  1.
         11    1    4    4    0    0 -0.35471962719E-01 -0.26164974800E-01 -0.16047478487E-01  0.46911072597E-01  0.51100000000E-03 0. -1.
</event>
<event>
 8    1  0.1094829E+005  0.1043930E+01  0.7957747E-01            NaN
         13   -1    0    0    0    0  0.00000000000E+00  0.00000000000E+00  0.74505805969E-08  0.10566000000E+00  0.10566000000E+00 0.  1.
     999900   -1    0    0    0    0 -0.00000000000E+00 -0.00000000000E+00 -0.74505805969E-08  0.93827000000E+00  0.93827000000E+00 0.  1.
     999902    2    1    2    0    0 -0.15994969302E-01 -0.19539272113E-01  0.39630112637E-02  0.10183697250E+01  0.10180489032E+01 0.  0.
     999903    2    3    3    0    0  0.61817245757E-01 -0.10873622448E+00 -0.28778886007E-01  0.12984123987E+00  0.19636315938E-01 0.  0.
         14    1    1    2    0    0  0.15994969302E-01  0.19539272113E-01 -0.39630112637E-02  0.25560274959E-01  0.00000000000E+00 0.  1.
     999901    1    3    3    0    0 -0.77812215059E-01  0.89196952368E-01  0.32741897270E-01  0.88852848517E+00  0.88000000000E+00 0. -1.
        -11    1    4    4    0    0  0.22479765552E-01 -0.44056338544E-01 -0.21006926108E-01  0.53738746642E-01  0.51100000000E-03 0. -1.
         11    1    4    4    0    0  0.39337480206E-01 -0.64679885937E-01 -0.77719598990E-02  0.76102493228E-01  0.51100000000E-03 0.  1.
</event>
<event>
 8    1  0.1094829E+005  0.1043930E+01  0.7957747E-01            NaN
         13   -1    0    0    0    0  0.00000000000E+00  0.00000000000E+00  0.74505805969E-08  0.10566000000E+00  0.10566000000E+00 0. -1.
     999900   -1    0    0    0    0 -0.00000000000E+00 -0.00000000000E+00 -0.74505805969E-08  0.93827000000E+00  0.93827000000E+00 0.  1.
     999902    2    1    2    0    0 -0.17012469033E-01  0.74163365056E-02  0.16526340818E-01  0.10190795253E+01  0.10187764882E+01 0.  0.
     999903    2    3    3    0    0  0.11369619954E+00 -0.28690974767E-01  0.47745083981E-01  0.12814568723E+00  0.19792076416E-01 0.  0.
         14    1    1    2    0    0  0.17012469033E-01 -0.74163365056E-02 -0.16526340818E-01  0.24850474656E-01  0.00000000000E+00 0.  1.
     999901    1    3    3    0    0 -0.13070866857E+00  0.36107311272E-01 -0.31218743163E-01  0.89093383811E+00  0.88000000000E+00 0.  1.
        -11    1    4    4    0    0  0.89931687763E-01 -0.30036390119E-01  0.34476975297E-01  0.10089011915E+00  0.51100000000E-03 0.  1.
         11    1    4    4    0    0  0.23764511778E-01  0.13454153520E-02  0.13268108684E-01  0.27255568083E-01  0.51100000000E-03 0. -1.
</event>
<event>
 8    1  0.1094829E+005  0.1043930E+01  0.7957747E-01            NaN
         13   -1    0    0    0    0  0.00000000000E+00  0.00000000000E+00  0.74505805969E-08  0.10566000000E+00  0.10566000000E+00 0. -1.
     999900   -1    0    0    0    0 -0.00000000000E+00 -0.00000000000E+00 -0.74505805969E-08  0.93827000000E+00  0.93827000000E+00 0.  1.
     999902    2    1    2    0    0  0.18836258410E-01  0.12865577243E-01  0.11252562969E-01  0.10184948298E+01  0.10181771803E+01 0.  0.
     999903    2    3    3    0    0  0.20408783936E-01 -0.10643841015E+00  0.67110215196E-01  0.12868811398E+00  0.17640750492E-01 0.  0.
         14    1    1    2    0    0 -0.18836258410E-01 -0.12865577243E-01 -0.11252562969E-01  0.25435170179E-01  0.00000000000E+00 0. -1.
     999901    1    3    3    0    0 -0.15725255260E-02  0.11930398740E+00 -0.55857652227E-01  0.88980671584E+00  0.88000000000E+00 0. -1.
        -11    1    4    4    0    0  0.23606226708E-01 -0.95491007169E-01  0.59361350085E-01  0.11489045824E+00  0.51100000000E-03 0. -1.
         11    1    4    4    0    0 -0.31974427720E-02 -0.10947402984E-01  0.77488651107E-02  0.13797655739E-01  0.51100000000E-03 0.  1.
</event>
<event>
 8    1  0.1094829E+005  0.1043930E+01  0.7957747E-01            NaN
         13   -1    0    0    0    0  0.00000000000E+00  0.00000000000E+00  0.74505805969E-08  0.10566000000E+00  0.10566000000E+00 0. -1.
     999900   -1    0    0    0    0 -0.00000000000E+00 -0.00000000000E+00 -0.74505805969E-08  0.93827000000E+00  0.93827000000E+00 0. -1.
     999902    2    1    2    0    0  0.17247746585E-01 -0.12886842505E-01 -0.11856010391E-01  0.10193511381E+01  0.10190547690E+01 0.  0.
     999903    2    3    3    0    0  0.10496704719E+00 -0.20864917755E-01 -0.75899235321E-01  0.13263818561E+00  0.19461977549E-01 0.  0.
         14    1    1    2    0    0 -0.17247746585E-01  0.12886842505E-01  0.11856010391E-01  0.24578861943E-01  0.00000000000E+00 0. -1.
     999901    1    3    3    0    0 -0.87719300604E-01  0.79780752501E-02  0.64043224929E-01  0.88671295245E+00  0.88000000000E+00 0.  1.
        -11    1    4    4    0    0  0.37146544235E-01 -0.16954205093E-01 -0.29104929649E-01  0.50146474152E-01  0.51100000000E-03 0.  1.
         11    1    4    4    0    0  0.67820502954E-01 -0.39107126622E-02 -0.46794305671E-01  0.82491711455E-01  0.51100000000E-03 0. -1.
</event>
<event>
 8    1  0.1094829E+005  0.1043930E+01  0.7957747E-01            NaN
         13   -1    0    0    0    0  0.00000000000E+00  0.00000000000E+00  0.74505805969E-08  0.10566000000E+00  0.10566000000E+00 0. -1.
     999900   -1    0    0    0    0 -0.00000000000E+00 -0.00000000000E+00 -0.74505805969E-08  0.93827000000E+00  0.93827000000E+00 0.  1.
     999902    2    1    2    0    0 -0.17460733264E-01 -0.51760298657E-02 -0.15427776484E-01  0.10200619297E+01  0.10197826512E+01 0.  0.
     999903    2    3    3    0    0 -0.10335661227E+00 -0.20511327708E-01 -0.79370754769E-01  0.13343800841E+00  0.20066925797E-01 0.  0.
         14    1    1    2    0    0  0.17460733264E-01  0.51760298657E-02  0.15427776484E-01  0.23868070272E-01  0.00000000000E+00 0. -1.
     999901    1    3    3    0    0  0.85895879003E-01  0.15335297842E-01  0.63942978286E-01  0.88662392132E+00  0.88000000000E+00 0. -1.
        -11    1    4    4    0    0 -0.69276596080E-01 -0.44842142258E-02 -0.55090861132E-01  0.88626288667E-01  0.51100000000E-03 0. -1.
         11    1    4    4    0    0 -0.34080016186E-01 -0.16027113482E-01 -0.24279893638E-01  0.44811719738E-01  0.51100000000E-03 0.  1.
</event>
<event>
 8    1  0.1094829E+005  0.1043930E+01  0.7957747E-01            NaN
         13   -1    0    0    0    0  0.00000000000E+00  0.00000000000E+00  0.74505805969E-08  0.10566000000E+00  0.10566000000E+00 0.  1.
     999900   -1    0    0    0    0 -0.00000000000E+00 -0.00000000000E+00 -0.74505805969E-08  0.93827000000E+00  0.93827000000E+00 0.  1.
     999902    2    1    2    0    0  0.22833541771E-01  0.73608158268E-02  0.29285775992E-03  0.10199375427E+01  0.10196553109E+01 0.  0.
     999903    2    3    3    0    0 -0.64268740127E-02 -0.11630237475E+00  0.53196809587E-01  0.12923692820E+00  0.17456688661E-01 0.  0.
         14    1    1    2    0    0 -0.22833541771E-01 -0.73608158268E-02 -0.29285775992E-03  0.23992457255E-01  0.00000000000E+00 0.  1.
     999901    1    3    3    0    0  0.29260415784E-01  0.12366319057E+00 -0.52903951827E-01  0.89070061455E+00  0.88000000000E+00 0.  1.
        -11    1    4    4    0    0  0.42517496089E-02 -0.72350005842E-01  0.30577757020E-01  0.78662958662E-01  0.51100000000E-03 0.  1.
         11    1    4    4    0    0 -0.10678623622E-01 -0.43952368903E-01  0.22619052567E-01  0.50573969536E-01  0.51100000000E-03 0. -1.
</event>
<event>
 8    1  0.1094829E+005  0.1043930E+01  0.7957747E-01            NaN
         13   -1    0    0    0    0  0.00000000000E+00  0.00000000000E+00  0.74505805969E-08  0.10566000000E+00  0.10566000000E+00 0.  1.
     999900   -1    0    0    0    0 -0.00000000000E+00 -0.00000000000E+00 -0.74505805969E-08  0.93827000000E+00  0.93827000000E+00 0.  1.
     999902    2    1    2    0    0  0.49576568271E-02 -0.96977685374E-02  0.18311783439E-01  0.10226239800E+01  0.10224020041E+01 0.  0.
     999903    2    3    3    0    0 -0.47410480985E-02  0.56181217040E-01 -0.11544853950E+00  0.13002892645E+00  0.20008741994E-01 0.  0.
         14    1    1    2    0    0 -0.49576568271E-02  0.96977685374E-02 -0.18311783439E-01  0.21306020007E-01  0.00000000000E+00 0. -1.
     999901    1    3    3    0    0  0.96987049256E-02 -0.65878985577E-01  0.13376032294E+00  0.89259505354E+00  0.88000000000E+00 0. -1.
        -11    1    4    4    0    0  0.49945865825E-02  0.42910948424E-01 -0.79258295284E-01  0.90268676085E-01  0.51100000000E-03 0. -1.
         11    1    4    4    0    0 -0.97356346810E-02  0.13270268616E-01 -0.36190244214E-01  0.39760250365E-01  0.51100000000E-03 0.  1.
</event>
<event>
 8    1  0.1094829E+005  0.1043930E+01  0.7957747E-01            NaN
         13   -1    0    0    0    0  0.00000000000E+00  0.00000000000E+00  0.74505805969E-08  0.10566000000E+00  0.10566000000E+00 0.  1.
     999900   -1    0    0    0    0 -0.00000000000E+00 -0.00000000000E+00 -0.74505805969E-08  0.93827000000E+00  0.93827000000E+00 0.  1.
     999902    2    1    2    0    0  0.21184346432E-01  0.16881193525E-01 -0.35314911441E-02  0.10166129237E+01  0.10162458433E+01 0.  0.
     999903    2    3    3    0    0 -0.12128121514E+00 -0.18115305821E-01  0.78081567393E-02  0.12439670616E+00  0.19397828289E-01 0.  0.
         14    1    1    2    0    0 -0.21184346432E-01 -0.16881193525E-01  0.35314911441E-02  0.27317076313E-01  0.00000000000E+00 0.  1.
     999901    1    3    3    0    0  0.14246556157E+00  0.34996499346E-01 -0.11339647883E-01  0.89221621752E+00  0.88000000000E+00 0.  1.
        -11    1    4    4    0    0 -0.47567653548E-01 -0.59142306170E-02 -0.63295249414E-02  0.48352702042E-01  0.51100000000E-03 0. -1.
         11    1    4    4    0    0 -0.73713561590E-01 -0.12201075204E-01  0.14137681681E-01  0.76044004120E-01  0.51100000000E-03 0.  1.
</event>
<event>
 8    1  0.1094829E+005  0.1043930E+01  0.7957747E-01            NaN
         13   -1    0    0    0    0  0.00000000000E+00  0.00000000000E+00  0.74505805969E-08  0.10566000000E+00  0.10566000000E+00 0.  1.
     999900   -1    0    0    0    0 -0.00000000000E+00 -0.00000000000E+00 -0.74505805969E-08  0.93827000000E+00  0.93827000000E+00 0.  1.
     999902    2    1    2    0    0 -0.13182895106E-01  0.18679528169E-01  0.39301399714E-03  0.10210636939E+01  0.10208076209E+01 0.  0.
     999903    2    3    3    0    0 -0.89819463707E-01  0.28102450582E-02 -0.95270700957E-01  0.13242622890E+00  0.19615455684E-01 0.  0.
         14    1    1    2    0    0  0.13182895106E-01 -0.18679528169E-01 -0.39301399714E-03  0.22866306129E-01  0.00000000000E+00 0. -1.
     999901    1    3    3    0    0  0.76636568601E-01  0.15869283111E-01  0.95663714954E-01  0.88863746497E+00  0.88000000000E+00 0. -1.
        -11    1    4    4    0    0 -0.15697285066E-01 -0.47073464659E-02 -0.10054949787E-01  0.19233486564E-01  0.51100000000E-03 0. -1.
         11    1    4    4    0    0 -0.74122178641E-01  0.75175915241E-02 -0.85215751170E-01  0.11319274233E+00  0.51100000000E-03 0.  1.
</event>
<event>
 8    1  0.1094829E+005  0.1043930E+01  0.7957747E-01            NaN
         13   -1    0    0    0    0  0.00000000000E+00  0.00000000000E+00  0.74505805969E-08  0.10566000000E+00  0.10566000000E+00 0. -1.
     999900   -1    0    0    0    0 -0.00000000000E+00 -0.00000000000E+00 -0.74505805969E-08  0.93827000000E+00  0.93827000000E+00 0.  1.
     999902    2    1    2    0    0 -0.12128594187E-01 -0.19466891864E-01 -0.31701209376E-03  0.10209917531E+01  0.10207340480E+01 0.  0.
     999903    2    3    3    0    0 -0.54818943394E-01 -0.57300226819E-01 -0.10488335172E+00  0.13296700874E+00  0.19780682433E-01 0.  0.
         14    1    1    2    0    0  0.12128594187E-01  0.19466891864E-01  0.31701209376E-03  0.22938246936E-01  0.00000000000E+00 0. -1.
     999901    1    3    3    0    0  0.42690349207E-01  0.37833334954E-01  0.10456633962E+00  0.88802474432E+00  0.88000000000E+00 0. -1.
        -11    1    4    4    0    0 -0.14002282549E-01 -0.16963027645E-01 -0.44624520923E-01  0.49753564818E-01  0.51100000000E-03 0.  1.
         11    1    4    4    0    0 -0.40816660845E-01 -0.40337199174E-01 -0.60258830794E-01  0.83213443922E-01  0.51100000000E-03 0. -1.
</event>
<event>
 8    1  0.1094829E+005  0.1043930E+01  0.7957747E-01            NaN
         13   -1    0    0    0    0  0.00000000000E+00  0.00000000000E+00  0.74505805969E-08  0.10566000000E+00  0.10566000000E+00 0.  1.
     999900   -1    0    0    0    0 -0.00000000000E+00 -0.00000000000E+00 -0.74505805969E-08  0.93827000000E+00  0.93827000000E+00 0.  1.
     999902    2    1    2    0    0  0.76108412452E-02  0.17355072744E-01  0.13934703359E-01  0.10204076827E+01  0.10201365298E+01 0.  0.
     999903    2    3    3    0    0 -0.59474235374E-01 -0.55999437055E-01 -0.96564494113E-01  0.12794403398E+00  0.19283482143E-01 0.  0.
         14    1    1    2    0    0 -0.76108412452E-02 -0.17355072744E-01 -0.13934703359E-01  0.23522317320E-01  0.00000000000E+00 0. -1.
     999901    1    3    3    0    0  0.67085076619E-01  0.73354509798E-01  0.11049919747E+00  0.89246364870E+00  0.88000000000E+00 0. -1.
        -11    1    4    4    0    0 -0.36376166459E-01 -0.37334301470E-01 -0.74578688590E-01  0.90990754834E-01  0.51100000000E-03 0. -1.
         11    1    4    4    0    0 -0.23098068915E-01 -0.18665135584E-01 -0.21985805523E-01  0.36953279144E-01  0.51100000000E-03 0.  1.
</event>
<event>
 8    1  0.1094829E+005  0.1043930E+01  0.7957747E-01            NaN
         13   -1    0    0    0    0  0.00000000000E+00  0.00000000000E+00  0.74505805969E-08  0.10566000000E+00  0.10566000000E+00 0.  1.
     999900   -1    0    0    0    0 -0.00000000000E+00 -0.00000000000E+00 -0.74505805969E-08  0.93827000000E+00  0.93827000000E+00 0.  1.
     999902    2    1    2    0    0  0.38297715301E-02  0.12604893913E-01  0.21250967127E-01  0.10189269181E+01  0.10186201011E+01 0.  0.
     999903    2    3    3    0    0  0.67724986646E-01 -0.68886393706E-01  0.85488771618E-01  0.13052952729E+00  0.19940370319E-01 0.  0.
         14    1    1    2    0    0 -0.38297715301E-02 -0.12604893913E-01 -0.21250967127E-01  0.25003081897E-01  0.00000000000E+00 0. -1.
     999901    1    3    3    0    0 -0.63895215116E-01  0.81491287620E-01 -0.64237804491E-01  0.88839739081E+00  0.88000000000E+00 0. -1.
        -11    1    4    4    0    0  0.31531255476E-01 -0.19559499915E-01  0.37652186593E-01  0.52865323087E-01  0.51100000000E-03 0. -1.
         11    1    4    4    0    0  0.36193731169E-01 -0.49326893792E-01  0.47836585025E-01  0.77664204206E-01  0.51100000000E-03 0.  1.
</event>
<event>
 8    1  0.1094829E+005  0.1043930E+01  0.7957747E-01            NaN
         13   -1    0    0    0    0  0.00000000000E+00  0.00000000000E+00  0.74505805969E-08  0.10566000000E+00  0.10566000000E+00 0.  1.
     999900   -1    0    0    0    0 -0.00000000000E+00 -0.00000000000E+00 -0.74505805969E-08  0.93827000000E+00  0.93827000000E+00 0.  1.
     999902    2    1    2    0    0 -0.13108206056E-01 -0.18646262676E-01  0.11198239337E-01  0.10185349465E+01  0.10182183108E+01 0.  0.
     999903    2    3    3    0    0  0.11976232195E+00  0.33637968867E-01  0.16675602498E-01  0.12700916472E+00  0.19460870897E-01 0.  0.
         14    1    1    2    0    0  0.13108206056E-01  0.18646262676E-01 -0.11198239337E-01  0.25395053496E-01  0.00000000000E+00 0. -1.
     999901    1    3    3    0    0 -0.13287052800E+00 -0.52284231544E-01 -0.54773631607E-02  0.89152578179E+00  0.88000000000E+00 0. -1.
        -11    1    4    4    0    0  0.19381009162E-01  0.56345172357E-02 -0.44489503134E-02  0.20674273397E-01  0.51100000000E-03 0.  1.
         11    1    4    4    0    0  0.10038131279E+00  0.28003451632E-01  0.21124552811E-01  0.10633489132E+00  0.51100000000E-03 0. -1.
</event>
<event>
 8    1  0.1094829E+005  0.1043930E+01  0.7957747E-01            NaN
         13   -1    0    0    0    0  0.00000000000E+00  0.00000000000E+00  0.74505805969E-08  0.10566000000E+00  0.10566000000E+00 0.  1.
     999900   -1    0    0    0    0 -0.00000000000E+00 -0.00000000000E+00 -0.74505805969E-08  0.93827000000E+00  0.93827000000E+00 0.  1.
     999902    2    1    2    0    0 -0.97049139940E-03  0.96984944036E-02 -0.21769789862E-01  0.10200778219E+01  0.10197989196E+01 0.  0.
     999903    2    3    3    0    0  0.10482925008E-01 -0.12573961496E+00 -0.22340580579E-01  0.12964254186E+00  0.19691232428E-01 0.  0.
         14    1    1    2    0    0  0.97049139940E-03 -0.96984944036E-02  0.21769789862E-01  0.23852178053E-01  0.00000000000E+00 0.  1.
     999901    1    3    3    0    0 -0.11453416408E-01  0.13543810936E+00  0.57079071740E-03  0.89043528008E+00  0.88000000000E+00 0.  1.
        -11    1    4    4    0    0  0.47985483672E-02 -0.68467613652E-01 -0.22029394002E-01  0.72086028512E-01  0.51100000000E-03 0. -1.
         11    1    4    4    0    0  0.56843766412E-02 -0.57272001304E-01 -0.31118657690E-03  0.57556513352E-01  0.51100000000E-03 0.  1.
</event>
<event>
 8    1  0.1094829E+005  0.1043930E+01  0.7957747E-01            NaN
         13   -1    0    0    0    0  0.00000000000E+00  0.00000000000E+00  0.74505805969E-08  0.10566000000E+00  0.10566000000E+00 0. -1.
     999900   -1    0    0    0    0 -0.00000000000E+00 -0.00000000000E+00 -0.74505805969E-08  0.93827000000E+00  0.93827000000E+00 0. -1.
     999902    2    1    2    0    0 -0.12124213679E-01 -0.64603303552E-02  0.20185712490E-01  0.10195128869E+01  0.10192204526E+01 0.  0.
     999903    2    3    3    0    0  0.37319105428E-01  0.44930060959E-01  0.11604212666E+00  0.13143965437E+00  0.19979528862E-01 0.  0.
         14    1    1    2    0    0  0.12124213679E-01  0.64603303552E-02 -0.20185712490E-01  0.24417113145E-01  0.00000000000E+00 0.  1.
     999901    1    3    3    0    0 -0.49443319107E-01 -0.51390391314E-01 -0.95856414167E-01  0.88807323249E+00  0.88000000000E+00 0. -1.
        -11    1    4    4    0    0  0.69430847981E-02  0.19069026702E-01  0.26256215042E-01  0.33188614843E-01  0.51100000000E-03 0.  1.
         11    1    4    4    0    0  0.30376020630E-01  0.25861034257E-01  0.89785911615E-01  0.98251039524E-01  0.51100000000E-03 0. -1.
</event>
<event>
 8    1  0.1114207E+005  0.1043930E+01  0.7957747E-01            NaN
         13   -1    0    0    0    0  0.00000000000E+00  0.00000000000E+00  0.74505805969E-08  0.10566000000E+00  0.10566000000E+00 0.  1.
     999900   -1    0    0    0    0 -0.00000000000E+00 -0.00000000000E+00 -0.74505805969E-08  0.93827000000E+00  0.93827000000E+00 0.  1.
     999902    2    1    2    0    0  0.46081756614E-02  0.15260967648E-01  0.17305368339E-01  0.10204011201E+01  0.10201298141E+01 0.  0.
     999903    2    3    3    0    0 -0.34561488989E-02 -0.95360354418E-01  0.86868279107E-01  0.13071515933E+00  0.20852165415E-01 0.  0.
         14    1    1    2    0    0 -0.46081756614E-02 -0.15260967648E-01 -0.17305368339E-01  0.23528879911E-01  0.00000000000E+00 0. -1.
     999901    1    3    3    0    0  0.80643245603E-02  0.11062132207E+00 -0.69562910767E-01  0.88968596076E+00  0.88000000000E+00 0.  1.
        -11    1    4    4    0    0 -0.11629810804E-01 -0.56430509067E-01  0.46533001272E-01  0.74062380338E-01  0.51100000000E-03 0.  1.
         11    1    4    4    0    0  0.81736619056E-02 -0.38929845351E-01  0.40335277835E-01  0.56652778987E-01  0.51100000000E-03 0. -1.
</event>
<event>
 8    1  0.1094829E+005  0.1043930E+01  0.7957747E-01            NaN
         13   -1    0    0    0    0  0.00000000000E+00  0.00000000000E+00  0.74505805969E-08  0.10566000000E+00  0.10566000000E+00 0.  1.
     999900   -1    0    0    0    0 -0.00000000000E+00 -0.00000000000E+00 -0.74505805969E-08  0.93827000000E+00  0.93827000000E+00 0. -1.
     999902    2    1    2    0    0 -0.16773617120E-01  0.14773728229E-01 -0.11837092151E-01  0.10186370360E+01  0.10183229729E+01 0.  0.
     999903    2    3    3    0    0  0.68034194482E-01 -0.10277665340E+00  0.17704440414E-01  0.12629004112E+00  0.21072142111E-01 0.  0.
         14    1    1    2    0    0  0.16773617120E-01 -0.14773728229E-01  0.11837092151E-01  0.25292963995E-01  0.00000000000E+00 0.  1.
     999901    1    3    3    0    0 -0.84807811602E-01  0.11755038163E+00 -0.29541532565E-01  0.89234699488E+00  0.88000000000E+00 0.  1.
        -11    1    4    4    0    0  0.60761922201E-01 -0.76537384170E-01  0.15754816750E-01  0.98987159455E-01  0.51100000000E-03 0. -1.
         11    1    4    4    0    0  0.72722722813E-02 -0.26239269231E-01  0.19496236644E-02  0.27302881667E-01  0.51100000000E-03 0.  1.
</event>
<event>
 8    1  0.1094829E+005  0.1043930E+01  0.7957747E-01            NaN
         13   -1    0    0    0    0  0.00000000000E+00  0.00000000000E+00  0.74505805969E-08  0.10566000000E+00  0.10566000000E+00 0. -1.
     999900   -1    0    0    0    0 -0.00000000000E+00 -0.00000000000E+00 -0.74505805969E-08  0.93827000000E+00  0.93827000000E+00 0. -1.
     999902    2    1    2    0    0  0.69363591754E-02  0.21214187218E-01  0.86320678449E-02  0.10199995296E+01  0.10197187715E+01 0.  0.
     999903    2    3    3    0    0  0.79607783482E-01 -0.95387708613E-01  0.27562415446E-01  0.12913730901E+00  0.21921306726E-01 0.  0.
         14    1    1    2    0    0 -0.69363591754E-02 -0.21214187218E-01 -0.86320678449E-02  0.23930470392E-01  0.00000000000E+00 0. -1.
     999901    1    3    3    0    0 -0.72671424306E-01  0.11660189583E+00 -0.18930347601E-01  0.89086222059E+00  0.88000000000E+00 0. -1.
        -11    1    4    4    0    0  0.54624637098E-01 -0.58926823677E-01  0.78363364523E-02  0.80733455375E-01  0.51100000000E-03 0. -1.
         11    1    4    4    0    0  0.24983146383E-01 -0.36460884936E-01  0.19726078994E-01  0.48403853638E-01  0.51100000000E-03 0.  1.
</event>
<event>
 8    1  0.1094829E+005  0.1043930E+01  0.7957747E-01            NaN
         13   -1    0    0    0    0  0.00000000000E+00  0.00000000000E+00  0.74505805969E-08  0.10566000000E+00  0.10566000000E+00 0.  1.
     999900   -1    0    0    0    0 -0.00000000000E+00 -0.00000000000E+00 -0.74505805969E-08  0.93827000000E+00  0.93827000000E+00 0. -1.
     999902    2    1    2    0    0 -0.18993835192E-01 -0.14034944633E-01  0.77820174112E-02  0.10190642557E+01  0.10187608414E+01 0.  0.
     999903    2    3    3    0    0  0.62229125597E-02 -0.12609877654E-01  0.12807606112E+00  0.13052130672E+00  0.20847072234E-01 0.  0.
         14    1    1    2    0    0  0.18993835192E-01  0.14034944633E-01 -0.77820174112E-02  0.24865744331E-01  0.00000000000E+00 0. -1.
     999901    1    3    3    0    0 -0.25216747752E-01 -0.14250669786E-02 -0.12029404370E+00  0.88854294895E+00  0.88000000000E+00 0. -1.
        -11    1    4    4    0    0  0.84927493167E-02 -0.76013526705E-02  0.27222495010E-01  0.29516651385E-01  0.51100000000E-03 0. -1.
         11    1    4    4    0    0 -0.22698367569E-02 -0.50085249840E-02  0.10085356611E+00  0.10100465533E+00  0.51100000000E-03 0.  1.
</event>
<event>
 8    1  0.1094829E+005  0.1043930E+01  0.7957747E-01            NaN
         13   -1    0    0    0    0  0.00000000000E+00  0.00000000000E+00  0.74505805969E-08  0.10566000000E+00  0.10566000000E+00 0. -1.
     999900   -1    0    0    0    0 -0.00000000000E+00 -0.00000000000E+00 -0.74505805969E-08  0.93827000000E+00  0.93827000000E+00 0. -1.
     999902    2    1    2    0    0  0.37423781860E-03  0.20899354404E-01 -0.11735565246E-01  0.10199582132E+01  0.10196764733E+01 0.  0.
     999903    2    3    3    0    0  0.53126642688E-02 -0.27885697401E-01 -0.12693223594E+00  0.13109678295E+00  0.16393213739E-01 0.  0.
         14    1    1    2    0    0 -0.37423781860E-03 -0.20899354404E-01  0.11735565246E-01  0.23971786752E-01  0.00000000000E+00 0. -1.
     999901    1    3    3    0    0 -0.49384264502E-02  0.48785051805E-01  0.11519667070E+00  0.88886143030E+00  0.88000000000E+00 0.  1.
        -11    1    4    4    0    0  0.68700084996E-02 -0.10075573440E-01 -0.78981790623E-01  0.79919325372E-01  0.51100000000E-03 0. -1.
         11    1    4    4    0    0 -0.15573442308E-02 -0.17810123961E-01 -0.47950445320E-01  0.51177457576E-01  0.51100000000E-03 0.  1.
</event>
<event>
 8    1  0.1094829E+005  0.1043930E+01  0.7957747E-01            NaN
         13   -1    0    0    0    0  0.00000000000E+00  0.00000000000E+00  0.74505805969E-08  0.10566000000E+00  0.10566000000E+00 0.  1.
     999900   -1    0    0    0    0 -0.00000000000E+00 -0.00000000000E+00 -0.74505805969E-08  0.93827000000E+00  0.93827000000E+00 0.  1.
     999902    2    1    2    0    0 -0.46437713813E-02 -0.20392586215E-01  0.11940083473E-01  0.10198470646E+01  0.10195626746E+01 0.  0.
     999903    2    3    3    0    0 -0.11932651737E+00 -0.56080544732E-02  0.51337715377E-01  0.13140860976E+00  0.19036640315E-01 0.  0.
         14    1    1    2    0    0  0.46437713813E-02  0.20392586215E-01 -0.11940083473E-01  0.24082935421E-01  0.00000000000E+00 0. -1.
     999901    1    3    3    0    0  0.11468274599E+00 -0.14784531741E-01 -0.39397631903E-01  0.88843845482E+00  0.88000000000E+00 0. -1.
        -11    1    4    4    0    0 -0.63514961364E-01 -0.49578873550E-03  0.37180973663E-01  0.73600829119E-01  0.51100000000E-03 0. -1.
         11    1    4    4    0    0 -0.55811556010E-01 -0.51122657377E-02  0.14156741713E-01  0.57807780637E-01  0.51100000000E-03 0.  1.
</event>
<event>
 8    1  0.1094829E+005  0.1043930E+01  0.7957747E-01            NaN
         13   -1    0    0    0    0  0.00000000000E+00  0.00000000000E+00  0.74505805969E-08  0.10566000000E+00  0.10566000000E+00 0.  1.
     999900   -1    0    0    0    0 -0.00000000000E+00 -0.00000000000E+00 -0.74505805969E-08  0.93827000000E+00  0.93827000000E+00 0.  1.
     999902    2    1    2    0    0  0.52325678042E-02 -0.51271611454E-02 -0.23109400083E-01  0.10196872295E+01  0.10193990064E+01 0.  0.
     999903    2    3    3    0    0 -0.48377932574E-01  0.11401500921E+00  0.28668229201E-01  0.12853636386E+00  0.18970576789E-01 0.  0.
         14    1    1    2    0    0 -0.52325678042E-02  0.51271611454E-02  0.23109400083E-01  0.24242770457E-01  0.00000000000E+00 0.  1.
     999901    1    3    3    0    0  0.53610500378E-01 -0.11914217036E+00 -0.51777629284E-01  0.89115086568E+00  0.88000000000E+00 0.  1.
        -11    1    4    4    0    0 -0.46871937403E-01  0.92782361896E-01  0.25222968755E-01  0.10696730561E+00  0.51100000000E-03 0. -1.
         11    1    4    4    0    0 -0.15059951709E-02  0.21232647316E-01  0.34452604456E-02  0.21569058256E-01  0.51100000000E-03 0.  1.
</event>
<event>
 8    1  0.1094829E+005  0.1043930E+01  0.7957747E-01            NaN
         13   -1    0    0    0    0  0.00000000000E+00  0.00000000000E+00  0.74505805969E-08  0.10566000000E+00  0.10566000000E+00 0.  1.
     999900   -1    0    0    0    0 -0.00000000000E+00 -0.00000000000E+00 -0.74505805969E-08  0.93827000000E+00  0.93827000000E+00 0.  1.
     999902    2    1    2    0    0  0.14351068297E-01 -0.64142827050E-02  0.18530567810E-01  0.10196302443E+01  0.10193406481E+01 0.  0.
     999903    2    3    3    0    0 -0.68820162045E-01 -0.25732599850E-01 -0.10198728705E+00  0.12732132678E+00  0.20271461083E-01 0.  0.
         14    1    1    2    0    0 -0.14351068297E-01  0.64142827050E-02 -0.18530567810E-01  0.24299755704E-01  0.00000000000E+00 0.  1.
     999901    1    3    3    0    0  0.83171230343E-01  0.19318317145E-01  0.12051785486E+00  0.89230891751E+00  0.88000000000E+00 0. -1.
        -11    1    4    4    0    0 -0.61034403507E-01 -0.20693235363E-01 -0.75578036825E-01  0.99326276345E-01  0.51100000000E-03 0. -1.
         11    1    4    4    0    0 -0.77857585382E-02 -0.50393644878E-02 -0.26409250226E-01  0.27995050437E-01  0.51100000000E-03 0.  1.
</event>
<event>
 8    1  0.1094829E+005  0.1043930E+01  0.7957747E-01            NaN
         13   -1    0    0    0    0  0.00000000000E+00  0.00000000000E+00  0.74505805969E-08  0.10566000000E+00  0.10566000000E+00 0. -1.
     999900   -1    0    0    0    0 -0.00000000000E+00 -0.00000000000E+00 -0.74505805969E-08  0.93827000000E+00  0.93827000000E+00 0. -1.
     999902    2    1    2    0    0 -0.47366974448E-02 -0.21711566171E-01  0.34375464785E-02  0.10214434455E+01  0.10211959005E+01 0.  0.
     999903    2    3    3    0    0 -0.61839830916E-01 -0.67151882753E-01  0.95714399987E-01  0.13361429079E+00  0.18920684290E-01 0.  0.
         14    1    1    2    0    0  0.47366974448E-02  0.21711566171E-01 -0.34375464785E-02  0.22486554518E-01  0.00000000000E+00 0.  1.
     999901    1    3    3    0    0  0.57103133471E-01  0.45440316582E-01 -0.92276853509E-01  0.88782915469E+00  0.88000000000E+00 0. -1.
        -11    1    4    4    0    0 -0.31780203571E-01 -0.28875682650E-01  0.57323317266E-01  0.71624089600E-01  0.51100000000E-03 0. -1.
         11    1    4    4    0    0 -0.30059627345E-01 -0.38276200103E-01  0.38391082721E-01  0.61990201193E-01  0.51100000000E-03 0.  1.
</event>
<event>
 8    1  0.1094829E+005  0.1043930E+01  0.7957747E-01            NaN
         13   -1    0    0    0    0  0.00000000000E+00  0.00000000000E+00  0.74505805969E-08  0.10566000000E+00  0.10566000000E+00 0. -1.
     999900   -1    0    0    0    0 -0.00000000000E+00 -0.00000000000E+00 -0.74505805969E-08  0.93827000000E+00  0.93827000000E+00 0.  1.
     999902    2    1    2    0    0 -0.98850887149E-02 -0.56096207375E-02 -0.20995678136E-01  0.10200552995E+01  0.10197758640E+01 0.  0.
     999903    2    3    3    0    0  0.22679866911E-01 -0.74958287893E-01 -0.10533523425E+00  0.13270932712E+00  0.19573774370E-01 0.  0.
         14    1    1    2    0    0  0.98850887149E-02  0.56096207375E-02  0.20995678136E-01  0.23874700503E-01  0.00000000000E+00 0. -1.
     999901    1    3    3    0    0 -0.32564955626E-01  0.69348667155E-01  0.84339556113E-01  0.88734597238E+00  0.88000000000E+00 0.  1.
        -11    1    4    4    0    0  0.50858890367E-02 -0.33624980026E-01 -0.59462094263E-01  0.68501878253E-01  0.51100000000E-03 0.  1.
         11    1    4    4    0    0  0.17593977875E-01 -0.41333307867E-01 -0.45873139986E-01  0.64207448865E-01  0.51100000000E-03 0. -1.
</event>
<event>
 8    1  0.1094829E+005  0.1043930E+01  0.7957747E-01            NaN
         13   -1    0    0    0    0  0.00000000000E+00  0.00000000000E+00  0.74505805969E-08  0.10566000000E+00  0.10566000000E+00 0. -1.
     999900   -1    0    0    0    0 -0.00000000000E+00 -0.00000000000E+00 -0.74505805969E-08  0.93827000000E+00  0.93827000000E+00 0.  1.
     999902    2    1    2    0    0 -0.14735195593E-01  0.14860909159E-01  0.10764981034E-01  0.10203958243E+01  0.10201243948E+01 0.  0.
     999903    2    3    3    0    0 -0.37901890344E-01 -0.73459011891E-01 -0.97224123447E-01  0.12910532681E+00  0.19567204957E-01 0.  0.
         14    1    1    2    0    0  0.14735195593E-01 -0.14860909159E-01 -0.10764981034E-01  0.23534175721E-01  0.00000000000E+00 0.  1.
     999901    1    3    3    0    0  0.23166694751E-01  0.88319921051E-01  0.10798910448E+00  0.89129049747E+00  0.88000000000E+00 0. -1.
        -11    1    4    4    0    0 -0.42098490260E-02 -0.25963925150E-01 -0.36248644995E-01  0.44789213243E-01  0.51100000000E-03 0.  1.
         11    1    4    4    0    0 -0.33692041318E-01 -0.47495086742E-01 -0.60975478453E-01  0.84316113563E-01  0.51100000000E-03 0. -1.
</event>
<event>
 8    1  0.1094829E+005  0.1043930E+01  0.7957747E-01            NaN
         13   -1    0    0    0    0  0.00000000000E+00  0.00000000000E+00  0.74505805969E-08  0.10566000000E+00  0.10566000000E+00 0. -1.
     999900   -1    0    0    0    0 -0.00000000000E+00 -0.00000000000E+00 -0.74505805969E-08  0.93827000000E+00  0.93827000000E+00 0.  1.
     999902    2    1    2    0    0  0.47602545458E-02 -0.94026372456E-02  0.21083615752E-01  0.10203590759E+01  0.10200867881E+01 0.  0.
     999903    2    3    3    0    0  0.85642477703E-01  0.73548691526E-01 -0.58945226389E-01  0.12916466806E+00  0.21562183281E-01 0.  0.
         14    1    1    2    0    0 -0.47602545458E-02  0.94026372456E-02 -0.21083615752E-01  0.23570924117E-01  0.00000000000E+00 0.  1.
     999901    1    3    3    0    0 -0.80882223157E-01 -0.82951328771E-01  0.80028842142E-01  0.89119440783E+00  0.88000000000E+00 0. -1.
        -11    1    4    4    0    0  0.14719012800E-01  0.55484859563E-02 -0.14206092498E-01  0.21201632467E-01  0.51100000000E-03 0.  1.
         11    1    4    4    0    0  0.70923464903E-01  0.68000205569E-01 -0.44739133891E-01  0.10796303559E+00  0.51100000000E-03 0. -1.
</event>
<event>
 8    1  0.1094829E+005  0.1043930E+01  0.7957747E-01            NaN
         13   -1    0    0    0    0  0.00000000000E+00  0.00000000000E+00  0.74505805969E-08  0.10566000000E+00  0.10566000000E+00 0.  1.
     999900   -1    0    0    0    0 -0.00000000000E+00 -0.00000000000E+00 -0.74505805969E-08  0.93827000000E+00  0.93827000000E+00 0. -1.
     999902    2    1    2    0    0 -0.11979272499E-01 -0.17122162958E-01  0.12026416849E-01  0.10198197089E+01  0.10195346647E+01 0.  0.
     999903    2    3    3    0    0  0.83388372885E-01 -0.95449161905E-01 -0.23583919490E-01  0.13049513228E+00  0.20214228893E-01 0.  0.
         14    1    1    2    0    0  0.11979272499E-01  0.17122162958E-01 -0.12026416849E-01  0.24110291085E-01  0.00000000000E+00 0. -1.
     999901    1    3    3    0    0 -0.95367645384E-01  0.78326998947E-01  0.35610336339E-01  0.88932457663E+00  0.88000000000E+00 0.  1.
        -11    1    4    4    0    0  0.19594880504E-01 -0.11763092245E-01 -0.74022664436E-02  0.24028823331E-01  0.51100000000E-03 0.  1.
         11    1    4    4    0    0  0.63793492381E-01 -0.83686069660E-01 -0.16181653046E-01  0.10646630895E+00  0.51100000000E-03 0. -1.
</event>
<event>
 8    1  0.1094829E+005  0.1043930E+01  0.7957747E-01            NaN
         13   -1    0    0    0    0  0.00000000000E+00  0.00000000000E+00  0.74505805969E-08  0.10566000000E+00  0.10566000000E+00 0.  1.
     999900   -1    0    0    0    0 -0.00000000000E+00 -0.00000000000E+00 -0.74505805969E-08  0.93827000000E+00  0.93827000000E+00 0.  1.
     999902    2    1    2    0    0 -0.19631062554E-01  0.12490382911E-01 -0.37037804901E-02  0.10203693066E+01  0.10200972579E+01 0.  0.
     999903    2    3    3    0    0  0.11258467379E+00 -0.22364946046E-02 -0.61429476829E-01  0.12850040490E+00  0.76460941298E-02 0.  0.
         14    1    1    2    0    0  0.19631062554E-01 -0.12490382911E-01  0.37037804901E-02  0.23560693373E-01  0.00000000000E+00 0. -1.
     999901    1    3    3    0    0 -0.13221573634E+00  0.14726877516E-01  0.57725696338E-01  0.89186890173E+00  0.88000000000E+00 0. -1.
        -11    1    4    4    0    0  0.85580572411E-01 -0.41176905592E-02 -0.44216586316E-01  0.96417619635E-01  0.51100000000E-03 0.  1.
         11    1    4    4    0    0  0.27004101376E-01  0.18811959546E-02 -0.17212890512E-01  0.32082785261E-01  0.51100000000E-03 0. -1.
</event>
<event>
 8    1  0.1094829E+005  0.1043930E+01  0.7957747E-01            NaN
         13   -1    0    0    0    0  0.00000000000E+00  0.00000000000E+00  0.74505805969E-08  0.10566000000E+00  0.10566000000E+00 0.  1.
     999900   -1    0    0    0    0 -0.00000000000E+00 -0.00000000000E+00 -0.74505805969E-08  0.93827000000E+00  0.93827000000E+00 0. -1.
     999902    2    1    2    0    0 -0.56594220668E-02  0.68205401907E-02  0.22354046278E-01  0.10198831247E+01  0.10195995958E+01 0.  0.
     999903    2    3    3    0    0  0.67818770232E-01  0.86834559099E-01  0.69617457881E-01  0.13194443423E+00  0.20569808747E-01 0.  0.
         14    1    1    2    0    0  0.56594220668E-02 -0.68205401907E-02 -0.22354046278E-01  0.24046875299E-01  0.00000000000E+00 0. -1.
     999901    1    3    3    0    0 -0.73478192299E-01 -0.80014018908E-01 -0.47263411603E-01  0.88793869047E+00  0.88000000000E+00 0. -1.
        -11    1    4    4    0    0  0.20598523432E-01  0.42447246269E-01  0.31954788949E-01  0.56986292573E-01  0.51100000000E-03 0. -1.
         11    1    4    4    0    0  0.47220246800E-01  0.44387312829E-01  0.37662668933E-01  0.74958141654E-01  0.51100000000E-03 0.  1.
</event>
<event>
 8    1  0.1094829E+005  0.1043930E+01  0.7957747E-01            NaN
         13   -1    0    0    0    0  0.00000000000E+00  0.00000000000E+00  0.74505805969E-08  0.10566000000E+00  0.10566000000E+00 0. -1.
     999900   -1    0    0    0    0 -0.00000000000E+00 -0.00000000000E+00 -0.74505805969E-08  0.93827000000E+00  0.93827000000E+00 0.  1.
     999902    2    1    2    0    0 -0.51749042061E-02 -0.22962021097E-01 -0.23925085810E-02  0.10202707916E+01  0.10199964363E+01 0.  0.
     999903    2    3    3    0    0 -0.17120025867E-01  0.10383969720E+00 -0.71130609064E-01  0.12844889895E+00  0.19072967675E-01 0.  0.
         14    1    1    2    0    0  0.51749042061E-02  0.22962021097E-01  0.23925085810E-02  0.23659208434E-01  0.00000000000E+00 0. -1.
     999901    1    3    3    0    0  0.11945121661E-01 -0.12680171829E+00  0.68738100483E-01  0.89182189262E+00  0.88000000000E+00 0.  1.
        -11    1    4    4    0    0 -0.18114546839E-02  0.13385082122E-01 -0.17736893188E-01  0.22300230771E-01  0.51100000000E-03 0. -1.
         11    1    4    4    0    0 -0.15308571183E-01  0.90454615074E-01 -0.53393715876E-01  0.10614866818E+00  0.51100000000E-03 0.  1.
</event>
<event>
 8    1  0.1094829E+005  0.1043930E+01  0.7957747E-01            NaN
         13   -1    0    0    0    0  0.00000000000E+00  0.00000000000E+00  0.74505805969E-08  0.10566000000E+00  0.10566000000E+00 0.  1.
     999900   -1    0    0    0    0 -0.00000000000E+00 -0.00000000000E+00 -0.74505805969E-08  0.93827000000E+00  0.93827000000E+00 0. -1.
     999902    2    1    2    0    0 -0.21429439092E-01  0.93720231450E-02  0.40328904812E-02  0.10201956392E+01  0.10199195176E+01 0.  0.
     999903    2    3    3    0    0  0.79266381085E-01  0.39614056624E-02 -0.99199135997E-01  0.12844131524E+00  0.18916949362E-01 0.  0.
         14    1    1    2    0    0  0.21429439092E-01 -0.93720231450E-02 -0.40328904812E-02  0.23734360815E-01  0.00000000000E+00 0.  1.
     999901    1    3    3    0    0 -0.10069582018E+00  0.54106174826E-02  0.10323202648E+00  0.89175432394E+00  0.88000000000E+00 0.  1.
        -11    1    4    4    0    0  0.15306425170E-01  0.15693869493E-02 -0.89783891950E-02  0.17821958939E-01  0.51100000000E-03 0.  1.
         11    1    4    4    0    0  0.63959955914E-01  0.23920187130E-02 -0.90220746802E-01  0.11061935630E+00  0.51100000000E-03 0. -1.
</event>
<event>
 8    1  0.1094829E+005  0.1043930E+01  0.7957747E-01            NaN
         13   -1    0    0    0    0  0.00000000000E+00  0.00000000000E+00  0.74505805969E-08  0.10566000000E+00  0.10566000000E+00 0. -1.
     999900   -1    0    0    0    0 -0.00000000000E+00 -0.00000000000E+00 -0.74505805969E-08  0.93827000000E+00  0.93827000000E+00 0. -1.
     999902    2    1    2    0    0 -0.16185965274E-01 -0.52453129318E-03 -0.18062119180E-01  0.10196709655E+01  0.10193823508E+01 0.  0.
     999903    2    3    3    0    0  0.98876712163E-01 -0.80515758231E-01 -0.66376564956E-02  0.12850962520E+00  0.14535258964E-01 0.  0.
         14    1    1    2    0    0  0.16185965274E-01  0.52453129318E-03  0.18062119180E-01  0.24259034486E-01  0.00000000000E+00 0. -1.
     999901    1    3    3    0    0 -0.11506267744E+00  0.79991226938E-01 -0.11424462684E-01  0.89116134032E+00  0.88000000000E+00 0. -1.
        -11    1    4    4    0    0  0.12425786919E-01 -0.78589681395E-02 -0.50984605796E-02  0.15569809956E-01  0.51100000000E-03 0.  1.
         11    1    4    4    0    0  0.86450925244E-01 -0.72656790091E-01 -0.15391959160E-02  0.11293981524E+00  0.51100000000E-03 0. -1.
</event>
<event>
 7    1  0.1094829E+005  0.1043930E+01  0.7957747E-01            NaN
         13   -1    0    0    0    0  0.00000000000E+00  0.00000000000E+00  0.74505805969E-08  0.10566000000E+00  0.10566000000E+00 0.  1.
     999900   -1    0    0    0    0 -0.00000000000E+00 -0.00000000000E+00 -0.74505805969E-08  0.93827000000E+00  0.93827000000E+00 0. -1.
     999902    2    1    2    0    0 -0.89328636850E-02  0.41894614767E-02  0.21052339915E-01  0.10206802977E+01  0.10204154651E+01 0.  0.
         14    1    1    2    0    0  0.89328636850E-02 -0.41894614767E-02 -0.21052339915E-01  0.23249702298E-01  0.00000000000E+00 0. -1.
     999901    1    3    3    0    0 -0.74845143199E-01 -0.72985845809E-01 -0.52903898797E-01  0.88776548235E+00  0.88000000000E+00 0. -1.
        -11    1    3    3    0    0  0.32289694785E-02  0.11712489230E-01  0.29614197505E-01  0.32013598091E-01  0.51100000000E-03 0.  1.
         11    1    3    3    0    0  0.62683310036E-01  0.65462818056E-01  0.44342041207E-01  0.10090121726E+00  0.51100000000E-03 0. -1.
</event>
<event>
 8    1  0.1094829E+005  0.1043930E+01  0.7957747E-01            NaN
         13   -1    0    0    0    0  0.00000000000E+00  0.00000000000E+00  0.74505805969E-08  0.10566000000E+00  0.10566000000E+00 0. -1.
     999900   -1    0    0    0    0 -0.00000000000E+00 -0.00000000000E+00 -0.74505805969E-08  0.93827000000E+00  0.93827000000E+00 0. -1.
     999902    2    1    2    0    0  0.18263238468E-01  0.75784260081E-02 -0.13829063797E-01  0.10198007351E+01  0.10195152367E+01 0.  0.
     999903    2    3    3    0    0  0.42049199200E-01 -0.72458841060E-01 -0.99402811721E-01  0.13171594049E+00  0.21207338352E-01 0.  0.
         14    1    1    2    0    0 -0.18263238468E-01 -0.75784260081E-02  0.13829063797E-01  0.24129264920E-01  0.00000000000E+00 0. -1.
     999901    1    3    3    0    0 -0.23785960732E-01  0.80037267068E-01  0.85573747924E-01  0.88808479459E+00  0.88000000000E+00 0.  1.
        -11    1    4    4    0    0  0.37199036339E-02 -0.25527498913E-01 -0.30985678752E-01  0.40322007545E-01  0.51100000000E-03 0. -1.
         11    1    4    4    0    0  0.38329295566E-01 -0.46931342147E-01 -0.68417132969E-01  0.91393932944E-01  0.51100000000E-03 0.  1.
</event>
<event>
 8    1  0.1094829E+005  0.1043930E+01  0.7957747E-01            NaN
         13   -1    0    0    0    0  0.00000000000E+00  0.00000000000E+00  0.74505805969E-08  0.10566000000E+00  0.10566000000E+00 0.  1.
     999900   -1    0    0    0    0 -0.00000000000E+00 -0.00000000000E+00 -0.74505805969E-08  0.93827000000E+00  0.93827000000E+00 0.  1.
     999902    2    1    2    0    0  0.15992553573E-01  0.14788660542E-02  0.16410604054E-01  0.10209679282E+01  0.10207096814E+01 0.  0.
     999903    2    3    3    0    0  0.11256416783E+00 -0.67264667987E-01  0.10147193727E-01  0.13299778207E+00  0.19753912439E-01 0.  0.
         14    1    1    2    0    0 -0.15992553573E-01 -0.14788660542E-02 -0.16410604054E-01  0.22962071770E-01  0.00000000000E+00 0. -1.
     999901    1    3    3    0    0 -0.96571614262E-01  0.68743534041E-01  0.62634103273E-02  0.88797014615E+00  0.88000000000E+00 0.  1.
        -11    1    4    4    0    0  0.10514442606E-01 -0.40334327807E-03 -0.37639702764E-03  0.10541299011E-01  0.51100000000E-03 0. -1.
         11    1    4    4    0    0  0.10204972523E+00 -0.66861324709E-01  0.10523590754E-01  0.12245648306E+00  0.51100000000E-03 0.  1.
</event>
<event>
 8    1  0.1094829E+005  0.1043930E+01  0.7957747E-01            NaN
         13   -1    0    0    0    0  0.00000000000E+00  0.00000000000E+00  0.74505805969E-08  0.10566000000E+00  0.10566000000E+00 0. -1.
     999900   -1    0    0    0    0 -0.00000000000E+00 -0.00000000000E+00 -0.74505805969E-08  0.93827000000E+00  0.93827000000E+00 0.  1.
     999902    2    1    2    0    0 -0.18507025952E-01 -0.17404836833E-01 -0.95365252333E-03  0.10185066287E+01  0.10181892775E+01 0.  0.
     999903    2    3    3    0    0 -0.22713490425E-01 -0.15271185219E-01 -0.12514800188E+00  0.12977355110E+00  0.20737416599E-01 0.  0.
         14    1    1    2    0    0  0.18507025952E-01  0.17404836833E-01  0.95365252333E-03  0.25423371293E-01  0.00000000000E+00 0. -1.
     999901    1    3    3    0    0  0.42064644723E-02 -0.21336516141E-02  0.12419434935E+00  0.88873307760E+00  0.88000000000E+00 0. -1.
        -11    1    4    4    0    0 -0.88803418956E-03 -0.11035182991E-01 -0.57675733881E-01  0.58730871508E-01  0.51100000000E-03 0.  1.
         11    1    4    4    0    0 -0.21825456235E-01 -0.42360022279E-02 -0.67472267996E-01  0.71042679596E-01  0.51100000000E-03 0. -1.
</event>
<event>
 8    1  0.1094829E+005  0.1043930E+01  0.7957747E-01            NaN
         13   -1    0    0    0    0  0.00000000000E+00  0.00000000000E+00  0.74505805969E-08  0.10566000000E+00  0.10566000000E+00 0.  1.
     999900   -1    0    0    0    0 -0.00000000000E+00 -0.00000000000E+00 -0.74505805969E-08  0.93827000000E+00  0.93827000000E+00 0. -1.
     999902    2    1    2    0    0  0.12046689797E-01  0.75685400848E-02  0.19408927190E-01  0.10198652542E+01  0.10195812988E+01 0.  0.
     999903    2    3    3    0    0 -0.87079255093E-01  0.17862770609E-01  0.93169599820E-01  0.13117376617E+00  0.24982140804E-01 0.  0.
         14    1    1    2    0    0 -0.12046689797E-01 -0.75685400848E-02 -0.19408927190E-01  0.24064745765E-01  0.00000000000E+00 0. -1.
     999901    1    3    3    0    0  0.99125944889E-01 -0.10294230524E-01 -0.73760672630E-01  0.88869148806E+00  0.88000000000E+00 0. -1.
        -11    1    4    4    0    0 -0.41178378041E-01  0.14361055847E-01  0.61094873446E-01  0.75064928065E-01  0.51100000000E-03 0.  1.
         11    1    4    4    0    0 -0.45900877052E-01  0.35017147613E-02  0.32074726374E-01  0.56108838104E-01  0.51100000000E-03 0. -1.
</event>
<event>
 8    1  0.1094829E+005  0.1043930E+01  0.7957747E-01            NaN
         13   -1    0    0    0    0  0.00000000000E+00  0.00000000000E+00  0.74505805969E-08  0.10566000000E+00  0.10566000000E+00 0.  1.
     999900   -1    0    0    0    0 -0.00000000000E+00 -0.00000000000E+00 -0.74505805969E-08  0.93827000000E+00  0.93827000000E+00 0. -1.
     999902    2    1    2    0    0 -0.20166290643E-02  0.22844357328E-01 -0.32583411096E-02  0.10207664890E+01  0.10205036388E+01 0.  0.
     999903    2    3    3    0    0 -0.12342016344E+00 -0.96949006461E-03 -0.40216681014E-01  0.13134429659E+00  0.20011650617E-01 0.  0.
         14    1    1    2    0    0  0.20166290643E-02 -0.22844357328E-01  0.32583411096E-02  0.23163510988E-01  0.00000000000E+00 0. -1.
     999901    1    3    3    0    0  0.12140353437E+00  0.23813847393E-01  0.36958339904E-01  0.88942219242E+00  0.88000000000E+00 0. -1.
        -11    1    4    4    0    0 -0.92170142914E-01 -0.15204205301E-02 -0.38905623231E-01  0.10005776113E+00  0.51100000000E-03 0. -1.
         11    1    4    4    0    0 -0.31250020525E-01  0.55093046546E-03 -0.13110577821E-02  0.31286535454E-01  0.51100000000E-03 0.  1.
</event>
<event>
 8    1  0.1094829E+005  0.1043930E+01  0.7957747E-01            NaN
         13   -1    0    0    0    0  0.00000000000E+00  0.00000000000E+00  0.74505805969E-08  0.10566000000E+00  0.10566000000E+00 0. -1.
     999900   -1    0    0    0    0 -0.00000000000E+00 -0.00000000000E+00 -0.74505805969E-08  0.93827000000E+00  0.93827000000E+00 0. -1.
     999902    2    1    2    0    0  0.17235222056E-01  0.17595863339E-01 -0.90115616181E-02  0.10177026187E+01  0.10173646075E+01 0.  0.
     999903    2    3    3    0    0 -0.44461670270E-01  0.10809549526E+00  0.51451162275E-01  0.12885368280E+00  0.17163136493E-01 0.  0.
         14    1    1    2    0    0 -0.17235222056E-01 -0.17595863339E-01  0.90115616181E-02  0.26227381279E-01  0.00000000000E+00 0. -1.
     999901    1    3    3    0    0  0.61696892325E-01 -0.90499631920E-01 -0.60462723893E-01  0.88884893592E+00  0.88000000000E+00 0. -1.
        -11    1    4    4    0    0 -0.12044383098E-01  0.26598017435E-01  0.21151830633E-01  0.36058047033E-01  0.51100000000E-03 0. -1.
         11    1    4    4    0    0 -0.32417287172E-01  0.81497477824E-01  0.30299331641E-01  0.92795635771E-01  0.51100000000E-03 0.  1.
</event>
<event>
 8    1  0.1094829E+005  0.1043930E+01  0.7957747E-01            NaN
         13   -1    0    0    0    0  0.00000000000E+00  0.00000000000E+00  0.74505805969E-08  0.10566000000E+00  0.10566000000E+00 0.  1.
     999900   -1    0    0    0    0 -0.00000000000E+00 -0.00000000000E+00 -0.74505805969E-08  0.93827000000E+00  0.93827000000E+00 0.  1.
     999902    2    1    2    0    0  0.15189705244E-01  0.18239726971E-01 -0.18358493257E-02  0.10201227505E+01  0.10198449103E+01 0.  0.
     999903    2    3    3    0    0  0.11997868223E+00  0.45096943348E-02  0.51816964507E-01  0.13217688058E+00  0.19248595228E-01 0.  0.
         14    1    1    2    0    0 -0.15189705244E-01 -0.18239726971E-01  0.18358493257E-02  0.23807249487E-01  0.00000000000E+00 0.  1.
     999901    1    3    3    0    0 -0.10478897698E+00  0.13730032636E-01 -0.53652813833E-01  0.88794586993E+00  0.88000000000E+00 0.  1.
        -11    1    4    4    0    0  0.38878518306E-01 -0.57804990920E-02  0.11099734171E-01  0.40846279819E-01  0.51100000000E-03 0. -1.
         11    1    4    4    0    0  0.81100163921E-01  0.10290193427E-01  0.40717230336E-01  0.91330600765E-01  0.51100000000E-03 0.  1.
</event>
<event>
 8    1  0.1094829E+005  0.1043930E+01  0.7957747E-01            NaN
         13   -1    0    0    0    0  0.00000000000E+00  0.00000000000E+00  0.74505805969E-08  0.10566000000E+00  0.10566000000E+00 0.  1.
     999900   -1    0    0    0    0 -0.00000000000E+00 -0.00000000000E+00 -0.74505805969E-08  0.93827000000E+00  0.93827000000E+00 0.  1.
     999902    2    1    2    0    0 -0.41699817527E-02  0.11009755669E-01  0.20523677858E-01  0.10202693825E+01  0.10199949941E+01 0.  0.
     999903    2    3    3    0    0  0.12762725629E+00 -0.91208607553E-02 -0.58422326357E-02  0.12983638956E+00  0.21247346257E-01 0.  0.
         14    1    1    2    0    0  0.41699817527E-02 -0.11009755669E-01 -0.20523677858E-01  0.23660617501E-01  0.00000000000E+00 0. -1.
     999901    1    3    3    0    0 -0.13179723804E+00  0.20130616424E-01  0.26365910494E-01  0.89043299294E+00  0.88000000000E+00 0. -1.
        -11    1    4    4    0    0  0.74760709185E-01 -0.72875301198E-02 -0.13697841416E-01  0.76355508731E-01  0.51100000000E-03 0. -1.
         11    1    4    4    0    0  0.52866547107E-01 -0.18333306355E-02  0.78556087806E-02  0.53480880832E-01  0.51100000000E-03 0.  1.
</event>
<event>
 8    1  0.1094829E+005  0.1043930E+01  0.7957747E-01            NaN
         13   -1    0    0    0    0  0.00000000000E+00  0.00000000000E+00  0.74505805969E-08  0.10566000000E+00  0.10566000000E+00 0. -1.
     999900   -1    0    0    0    0 -0.00000000000E+00 -0.00000000000E+00 -0.74505805969E-08  0.93827000000E+00  0.93827000000E+00 0.  1.
     999902    2    1    2    0    0 -0.38332446828E-02  0.18137720740E-01  0.18534975194E-01  0.10177151953E+01  0.10173775124E+01 0.  0.
     999903    2    3    3    0    0  0.94188283490E-01 -0.30092152440E-01  0.80091673819E-01  0.12882624400E+00  0.20113541274E-01 0.  0.
         14    1    1    2    0    0  0.38332446828E-02 -0.18137720740E-01 -0.18534975194E-01  0.26214804670E-01  0.00000000000E+00 0.  1.
     999901    1    3    3    0    0 -0.98021528173E-01  0.48229873180E-01 -0.61556698625E-01  0.88888895133E+00  0.88000000000E+00 0.  1.
        -11    1    4    4    0    0  0.87277898973E-01 -0.22929028751E-01  0.67107687961E-01  0.11245832523E+00  0.51100000000E-03 0. -1.
         11    1    4    4    0    0  0.69103845172E-02 -0.71631236882E-02  0.12983985858E-01  0.16367918771E-01  0.51100000000E-03 0.  1.
</event>
<event>
 8    1  0.1094829E+005  0.1043930E+01  0.7957747E-01            NaN
         13   -1    0    0    0    0  0.00000000000E+00  0.00000000000E+00  0.74505805969E-08  0.10566000000E+00  0.10566000000E+00 0.  1.
     999900   -1    0    0    0    0 -0.00000000000E+00 -0.00000000000E+00 -0.74505805969E-08  0.93827000000E+00  0.93827000000E+00 0.  1.
     999902    2    1    2    0    0  0.19714851038E-03 -0.21427802219E-01 -0.10860165090E-01  0.10199064124E+01  0.10196234390E+01 0.  0.
     999903    2    3    3    0    0  0.11374315749E+00 -0.23894616851E-01  0.55053560260E-01  0.13016296594E+00  0.20075971039E-01 0.  0.
         14    1    1    2    0    0 -0.19714851038E-03  0.21427802219E-01  0.10860165090E-01  0.24023587601E-01  0.00000000000E+00 0.  1.
     999901    1    3    3    0    0 -0.11354600898E+00  0.24668146321E-02 -0.65913725350E-01  0.88974344646E+00  0.88000000000E+00 0. -1.
        -11    1    4    4    0    0  0.29191243455E-01 -0.10893010164E-01  0.23313202796E-01  0.38917257232E-01  0.51100000000E-03 0. -1.
         11    1    4    4    0    0  0.84551914040E-01 -0.13001606686E-01  0.31740357464E-01  0.91245708705E-01  0.51100000000E-03 0.  1.
</event>
<event>
 8    1  0.1094829E+005  0.1043930E+01  0.7957747E-01            NaN
         13   -1    0    0    0    0  0.00000000000E+00  0.00000000000E+00  0.74505805969E-08  0.10566000000E+00  0.10566000000E+00 0.  1.
     999900   -1    0    0    0    0 -0.00000000000E+00 -0.00000000000E+00 -0.74505805969E-08  0.93827000000E+00  0.93827000000E+00 0.  1.
     999902    2    1    2    0    0 -0.20845517885E-01  0.55080442697E-02 -0.96340777787E-02  0.10203145470E+01  0.10200412174E+01 0.  0.
     999903    2    3    3    0    0 -0.74849894398E-02  0.11587067622E+00  0.56992333418E-01  0.13082171792E+00  0.19599926935E-01 0.  0.
         14    1    1    2    0    0  0.20845517885E-01 -0.55080442697E-02  0.96340777787E-02  0.23615453038E-01  0.00000000000E+00 0. -1.
     999901    1    3    3    0    0 -0.13360528445E-01 -0.11036263195E+00 -0.66626411197E-01  0.88949282904E+00  0.88000000000E+00 0.  1.
        -11    1    4    4    0    0  0.58659001153E-02  0.17334965716E-01  0.82545981291E-02  0.20082562879E-01  0.51100000000E-03 0. -1.
         11    1    4    4    0    0 -0.13350889555E-01  0.98535710505E-01  0.48737735289E-01  0.11073915504E+00  0.51100000000E-03 0.  1.
</event>
<event>
 8    1  0.1094829E+005  0.1043930E+01  0.7957747E-01            NaN
         13   -1    0    0    0    0  0.00000000000E+00  0.00000000000E+00  0.74505805969E-08  0.10566000000E+00  0.10566000000E+00 0. -1.
     999900   -1    0    0    0    0 -0.00000000000E+00 -0.00000000000E+00 -0.74505805969E-08  0.93827000000E+00  0.93827000000E+00 0. -1.
     999902    2    1    2    0    0 -0.10198706291E-01  0.22664670070E-01 -0.38806905544E-02  0.10187752661E+01  0.10184646691E+01 0.  0.
     999903    2    3    3    0    0  0.35964002110E-01  0.11435623511E+00  0.48984946527E-01  0.13123196329E+00  0.21249594016E-01 0.  0.
         14    1    1    2    0    0  0.10198706291E-01 -0.22664670070E-01  0.38806905544E-02  0.25154733920E-01  0.00000000000E+00 0. -1.
     999901    1    3    3    0    0 -0.46162708401E-01 -0.91691565041E-01 -0.52865637082E-01  0.88754330279E+00  0.88000000000E+00 0.  1.
        -11    1    4    4    0    0  0.26125294150E-01  0.52440683378E-01  0.17961304868E-01  0.61281529526E-01  0.51100000000E-03 0. -1.
         11    1    4    4    0    0  0.98387079603E-02  0.61915551733E-01  0.31023641659E-01  0.69950433762E-01  0.51100000000E-03 0.  1.
</event>
<event>
 8    1  0.1094829E+005  0.1043930E+01  0.7957747E-01            NaN
         13   -1    0    0    0    0  0.00000000000E+00  0.00000000000E+00  0.74505805969E-08  0.10566000000E+00  0.10566000000E+00 0.  1.
     999900   -1    0    0    0    0 -0.00000000000E+00 -0.00000000000E+00 -0.74505805969E-08  0.93827000000E+00  0.93827000000E+00 0.  1.
     999902    2    1    2    0    0  0.15482363375E-02 -0.39990510450E-02 -0.24697158554E-01  0.10188633072E+01  0.10185549076E+01 0.  0.
     999903    2    3    3    0    0  0.32388791958E-01 -0.16469029267E-01  0.11966130999E+00  0.12648109784E+00  0.18930827537E-01 0.  0.
         14    1    1    2    0    0 -0.15482363375E-02  0.39990510450E-02  0.24697158554E-01  0.25066692754E-01  0.00000000000E+00 0.  1.
     999901    1    3    3    0    0 -0.30840555620E-01  0.12469978222E-01 -0.14435846855E+00  0.89238220941E+00  0.88000000000E+00 0.  1.
        -11    1    4    4    0    0  0.27361454754E-01 -0.11147707277E-01  0.65907204476E-01  0.72228396816E-01  0.51100000000E-03 0. -1.
         11    1    4    4    0    0  0.50273372035E-02 -0.53213219901E-02  0.53754105517E-01  0.54252701021E-01  0.51100000000E-03 0.  1.
</event>
<event>
 8    1  0.1094829E+005  0.1043930E+01  0.7957747E-01            NaN
         13   -1    0    0    0    0  0.00000000000E+00  0.00000000000E+00  0.74505805969E-08  0.10566000000E+00  0.10566000000E+00 0.  1.
     999900   -1    0    0    0    0 -0.00000000000E+00 -0.00000000000E+00 -0.74505805969E-08  0.93827000000E+00  0.93827000000E+00 0. -1.
     999902    2    1    2    0    0  0.19392290858E-01 -0.13462736234E-01 -0.19198933803E-02  0.10202447260E+01  0.10199697588E+01 0.  0.
     999903    2    3    3    0    0 -0.31038048746E-01 -0.54966421768E-01  0.11154957191E+00  0.13055877324E+00  0.24851927186E-01 0.  0.
         14    1    1    2    0    0 -0.19392290858E-01  0.13462736234E-01  0.19198933803E-02  0.23685273953E-01  0.00000000000E+00 0. -1.
     999901    1    3    3    0    0  0.50430339604E-01  0.41503685534E-01 -0.11346946529E+00  0.88968595281E+00  0.88000000000E+00 0. -1.
        -11    1    4    4    0    0 -0.88564925848E-02 -0.27827173539E-01  0.30376911831E-01  0.42140324411E-01  0.51100000000E-03 0. -1.
         11    1    4    4    0    0 -0.22181556161E-01 -0.27139248229E-01  0.81172660080E-01  0.88418448831E-01  0.51100000000E-03 0.  1.
</event>
<event>
 8    1  0.1094829E+005  0.1043930E+01  0.7957747E-01            NaN
         13   -1    0    0    0    0  0.00000000000E+00  0.00000000000E+00  0.74505805969E-08  0.10566000000E+00  0.10566000000E+00 0.  1.
     999900   -1    0    0    0    0 -0.00000000000E+00 -0.00000000000E+00 -0.74505805969E-08  0.93827000000E+00  0.93827000000E+00 0.  1.
     999902    2    1    2    0    0  0.13830797085E-01  0.16345729928E-01  0.63570503432E-02  0.10215942456E+01  0.10213500461E+01 0.  0.
     999903    2    3    3    0    0 -0.96316127380E-01  0.14433921285E-02  0.86553750622E-01  0.13098437851E+00  0.19658990146E-01 0.  0.
         14    1    1    2    0    0 -0.13830797085E-01 -0.16345729928E-01 -0.63570503432E-02  0.22335754386E-01  0.00000000000E+00 0.  1.
     999901    1    3    3    0    0  0.11014692447E+00  0.14902337800E-01 -0.80196700279E-01  0.89060986710E+00  0.88000000000E+00 0.  1.
        -11    1    4    4    0    0 -0.45447302017E-01 -0.87904649438E-02  0.44171224168E-01  0.63985058412E-01  0.51100000000E-03 0.  1.
         11    1    4    4    0    0 -0.50868825363E-01  0.10233857072E-01  0.42382526455E-01  0.66999320102E-01  0.51100000000E-03 0. -1.
</event>
<event>
 8    1  0.1094829E+005  0.1043930E+01  0.7957747E-01            NaN
         13   -1    0    0    0    0  0.00000000000E+00  0.00000000000E+00  0.74505805969E-08  0.10566000000E+00  0.10566000000E+00 0.  1.
     999900   -1    0    0    0    0 -0.00000000000E+00 -0.00000000000E+00 -0.74505805969E-08  0.93827000000E+00  0.93827000000E+00 0.  1.
     999902    2    1    2    0    0  0.84518152823E-02 -0.14824818589E-01  0.11681428333E-01  0.10232499566E+01  0.10230409618E+01 0.  0.
     999903    2    3    3    0    0 -0.11228605552E+00  0.35588881580E-01  0.57648640120E-01  0.13238960885E+00  0.18136043298E-01 0.  0.
         14    1    1    2    0    0 -0.84518152823E-02  0.14824818589E-01 -0.11681428333E-01  0.20680043416E-01  0.00000000000E+00 0.  1.
     999901    1    3    3    0    0  0.12073787080E+00 -0.50413700169E-01 -0.45967211787E-01  0.89086034774E+00  0.88000000000E+00 0. -1.
        -11    1    4    4    0    0 -0.48454069577E-01  0.92857656762E-02  0.31641468726E-01  0.58612848138E-01  0.51100000000E-03 0. -1.
         11    1    4    4    0    0 -0.63831985944E-01  0.26303115904E-01  0.26007171395E-01  0.73776760709E-01  0.51100000000E-03 0.  1.
</event>
<event>
 8    1  0.1094829E+005  0.1043930E+01  0.7957747E-01            NaN
         13   -1    0    0    0    0  0.00000000000E+00  0.00000000000E+00  0.74505805969E-08  0.10566000000E+00  0.10566000000E+00 0.  1.
     999900   -1    0    0    0    0 -0.00000000000E+00 -0.00000000000E+00 -0.74505805969E-08  0.93827000000E+00  0.93827000000E+00 0.  1.
     999902    2    1    2    0    0  0.51580629307E-02  0.22131326852E-02  0.25419209072E-01  0.10178984853E+01  0.10175655687E+01 0.  0.
     999903    2    3    3    0    0  0.35468051463E-01 -0.11709720472E+00  0.37257576854E-01  0.12925131177E+00  0.18655737291E-01 0.  0.
         14    1    1    2    0    0 -0.51580629307E-02 -0.22131326852E-02 -0.25419209072E-01  0.26031514734E-01  0.00000000000E+00 0. -1.
     999901    1    3    3    0    0 -0.30309988533E-01  0.11931033740E+00 -0.11838367782E-01  0.88864717350E+00  0.88000000000E+00 0. -1.
        -11    1    4    4    0    0  0.23197150556E-01 -0.67593461565E-01  0.30874098085E-01  0.77848923523E-01  0.51100000000E-03 0. -1.
         11    1    4    4    0    0  0.12270900908E-01 -0.49503743151E-01  0.63834787691E-02  0.51402388244E-01  0.51100000000E-03 0.  1.
</event>
<event>
 8    1  0.1094829E+005  0.1043930E+01  0.7957747E-01            NaN
         13   -1    0    0    0    0  0.00000000000E+00  0.00000000000E+00  0.74505805969E-08  0.10566000000E+00  0.10566000000E+00 0.  1.
     999900   -1    0    0    0    0 -0.00000000000E+00 -0.00000000000E+00 -0.74505805969E-08  0.93827000000E+00  0.93827000000E+00 0.  1.
     999902    2    1    2    0    0 -0.19433659521E-01  0.94488292828E-02 -0.90132245022E-02  0.10205166339E+01  0.10202480161E+01 0.  0.
     999903    2    3    3    0    0 -0.34260456016E-01  0.11862961664E+00  0.41617225375E-01  0.13220153175E+00  0.22326816974E-01 0.  0.
         14    1    1    2    0    0  0.19433659521E-01 -0.94488292828E-02  0.90132245022E-02  0.23413366121E-01  0.00000000000E+00 0.  1.
     999901    1    3    3    0    0  0.14826796494E-01 -0.10918078736E+00 -0.50630449877E-01  0.88831510213E+00  0.88000000000E+00 0. -1.
        -11    1    4    4    0    0 -0.15658564058E-01  0.86667513446E-01  0.24297599521E-01  0.91362371788E-01  0.51100000000E-03 0. -1.
         11    1    4    4    0    0 -0.18601891958E-01  0.31962103199E-01  0.17319625854E-01  0.40839159957E-01  0.51100000000E-03 0.  1.
</event>
<event>
 8    1  0.1094829E+005  0.1043930E+01  0.7957747E-01            NaN
         13   -1    0    0    0    0  0.00000000000E+00  0.00000000000E+00  0.74505805969E-08  0.10566000000E+00  0.10566000000E+00 0.  1.
     999900   -1    0    0    0    0 -0.00000000000E+00 -0.00000000000E+00 -0.74505805969E-08  0.93827000000E+00  0.93827000000E+00 0. -1.
     999902    2    1    2    0    0 -0.17130583344E-01 -0.95811214236E-02  0.12990581906E-01  0.10203925832E+01  0.10201210780E+01 0.  0.
     999903    2    3    3    0    0 -0.73838987563E-01 -0.97384873236E-02  0.10879664897E+00  0.13337811295E+00  0.20148845298E-01 0.  0.
         14    1    1    2    0    0  0.17130583344E-01  0.95811214236E-02 -0.12990581906E-01  0.23537416844E-01  0.00000000000E+00 0.  1.
     999901    1    3    3    0    0  0.56708404219E-01  0.15736589997E-03 -0.95806067063E-01  0.88701447021E+00  0.88000000000E+00 0. -1.
        -11    1    4    4    0    0 -0.27431374518E-01 -0.12960344644E-01  0.37382366074E-01  0.48147204026E-01  0.51100000000E-03 0.  1.
         11    1    4    4    0    0 -0.46407613044E-01  0.32218573207E-02  0.71414282895E-01  0.85230908921E-01  0.51100000000E-03 0. -1.
</event>
<event>
 8    1  0.1094829E+005  0.1043930E+01  0.7957747E-01            NaN
         13   -1    0    0    0    0  0.00000000000E+00  0.00000000000E+00  0.74505805969E-08  0.10566000000E+00  0.10566000000E+00 0.  1.
     999900   -1    0    0    0    0 -0.00000000000E+00 -0.00000000000E+00 -0.74505805969E-08  0.93827000000E+00  0.93827000000E+00 0. -1.
     999902    2    1    2    0    0 -0.98190536776E-02 -0.14914630043E-01  0.13366280369E-01  0.10216249007E+01  0.10213813785E+01 0.  0.
     999903    2    3    3    0    0  0.91103111209E-01  0.48325953068E-01  0.78562023382E-01  0.13121199668E+00  0.20234177592E-01 0.  0.
         14    1    1    2    0    0  0.98190536776E-02  0.14914630043E-01 -0.13366280369E-01  0.22305099312E-01  0.00000000000E+00 0. -1.
     999901    1    3    3    0    0 -0.10092216489E+00 -0.63240583111E-01 -0.65195743014E-01  0.89041290401E+00  0.88000000000E+00 0. -1.
        -11    1    4    4    0    0  0.22194607557E-01  0.16335975960E-01  0.11469716645E-01  0.29854316875E-01  0.51100000000E-03 0. -1.
         11    1    4    4    0    0  0.68908503652E-01  0.31989977108E-01  0.67092306737E-01  0.10135767980E+00  0.51100000000E-03 0.  1.
</event>
<event>
 8    1  0.1094829E+005  0.1043930E+01  0.7957747E-01            NaN
         13   -1    0    0    0    0  0.00000000000E+00  0.00000000000E+00  0.74505805969E-08  0.10566000000E+00  0.10566000000E+00 0. -1.
     999900   -1    0    0    0    0 -0.00000000000E+00 -0.00000000000E+00 -0.74505805969E-08  0.93827000000E+00  0.93827000000E+00 0.  1.
     999902    2    1    2    0    0  0.19916842811E-01 -0.91096554182E-04  0.12718263537E-01  0.10202985981E+01  0.10200248949E+01 0.  0.
     999903    2    3    3    0    0  0.28671198051E-01  0.11087819875E+00  0.62219007394E-01  0.13190614721E+00  0.20298133775E-01 0.  0.
         14    1    1    2    0    0 -0.19916842811E-01  0.91096554182E-04 -0.12718263537E-01  0.23631401852E-01  0.00000000000E+00 0.  1.
     999901    1    3    3    0    0 -0.87543552402E-02 -0.11096929531E+00 -0.49500743857E-01  0.88839245094E+00  0.88000000000E+00 0.  1.
        -11    1    4    4    0    0  0.12886035932E-01  0.23122472354E-01  0.20387239520E-01  0.33415554852E-01  0.51100000000E-03 0.  1.
         11    1    4    4    0    0  0.15785162119E-01  0.87755726400E-01  0.41831767874E-01  0.98490592360E-01  0.51100000000E-03 0. -1.
</event>
<event>
 8    1  0.1094829E+005  0.1043930E+01  0.7957747E-01            NaN
         13   -1    0    0    0    0  0.00000000000E+00  0.00000000000E+00  0.74505805969E-08  0.10566000000E+00  0.10566000000E+00 0.  1.
     999900   -1    0    0    0    0 -0.00000000000E+00 -0.00000000000E+00 -0.74505805969E-08  0.93827000000E+00  0.93827000000E+00 0. -1.
     999902    2    1    2    0    0 -0.46571210390E-02  0.22712919601E-01 -0.39168326517E-02  0.10204160239E+01  0.10201450656E+01 0.  0.
     999903    2    3    3    0    0 -0.25761121476E-01  0.13854891229E-01 -0.12685454834E+00  0.13157547273E+00  0.19090185938E-01 0.  0.
         14    1    1    2    0    0  0.46571210390E-02 -0.22712919601E-01  0.39168326517E-02  0.23513976082E-01  0.00000000000E+00 0.  1.
     999901    1    3    3    0    0  0.21104000437E-01  0.88580283719E-02  0.12293771569E+00  0.88884055119E+00  0.88000000000E+00 0.  1.
        -11    1    4    4    0    0 -0.93980861361E-02  0.68729017193E-02 -0.88837083704E-01  0.89598266518E-01  0.51100000000E-03 0. -1.
         11    1    4    4    0    0 -0.16363035340E-01  0.69819895096E-02 -0.38017464633E-01  0.41977206210E-01  0.51100000000E-03 0.  1.
</event>
<event>
 8    1  0.1094829E+005  0.1043930E+01  0.7957747E-01            NaN
         13   -1    0    0    0    0  0.00000000000E+00  0.00000000000E+00  0.74505805969E-08  0.10566000000E+00  0.10566000000E+00 0.  1.
     999900   -1    0    0    0    0 -0.00000000000E+00 -0.00000000000E+00 -0.74505805969E-08  0.93827000000E+00  0.93827000000E+00 0. -1.
     999902    2    1    2    0    0  0.14601558209E-01  0.41514471585E-02  0.18139730089E-01  0.10202764628E+01  0.10200022405E+01 0.  0.
     999903    2    3    3    0    0 -0.96138039246E-01 -0.81370097166E-01  0.21212126716E-01  0.12921718719E+00  0.19583458366E-01 0.  0.
         14    1    1    2    0    0 -0.14601558209E-01 -0.41514471585E-02 -0.18139730089E-01  0.23653537227E-01  0.00000000000E+00 0. -1.
     999901    1    3    3    0    0  0.11073959746E+00  0.85521544324E-01 -0.30723966267E-02  0.89105927559E+00  0.88000000000E+00 0. -1.
        -11    1    4    4    0    0 -0.41073486013E-01 -0.45580875897E-01  0.15548464531E-01  0.63298209857E-01  0.51100000000E-03 0.  1.
         11    1    4    4    0    0 -0.55064553233E-01 -0.35789221269E-01  0.56636621852E-02  0.65918977329E-01  0.51100000000E-03 0. -1.
</event>
<event>
 8    1  0.1094829E+005  0.1043930E+01  0.7957747E-01            NaN
         13   -1    0    0    0    0  0.00000000000E+00  0.00000000000E+00  0.74505805969E-08  0.10566000000E+00  0.10566000000E+00 0. -1.
     999900   -1    0    0    0    0 -0.00000000000E+00 -0.00000000000E+00 -0.74505805969E-08  0.93827000000E+00  0.93827000000E+00 0. -1.
     999902    2    1    2    0    0 -0.16145007593E-01  0.37014319486E-02  0.16622696909E-01  0.10204635149E+01  0.10201936627E+01 0.  0.
     999903    2    3    3    0    0  0.12663601025E+00 -0.10870893139E-01  0.78938365050E-02  0.12879375280E+00  0.19252602284E-01 0.  0.
         14    1    1    2    0    0  0.16145007593E-01 -0.37014319486E-02 -0.16622696909E-01  0.23466485062E-01  0.00000000000E+00 0.  1.
     999901    1    3    3    0    0 -0.14278101784E+00  0.14572325088E-01  0.87288604040E-02  0.89166976214E+00  0.88000000000E+00 0.  1.
        -11    1    4    4    0    0  0.47433045254E-01 -0.12580538817E-01  0.69475306332E-02  0.49565038503E-01  0.51100000000E-03 0. -1.
         11    1    4    4    0    0  0.79202964997E-01  0.17096456778E-02  0.94630587177E-03  0.79228714292E-01  0.51100000000E-03 0.  1.
</event>
<event>
 8    1  0.1094829E+005  0.1043930E+01  0.7957747E-01            NaN
         13   -1    0    0    0    0  0.00000000000E+00  0.00000000000E+00  0.74505805969E-08  0.10566000000E+00  0.10566000000E+00 0. -1.
     999900   -1    0    0    0    0 -0.00000000000E+00 -0.00000000000E+00 -0.74505805969E-08  0.93827000000E+00  0.93827000000E+00 0.  1.
     999902    2    1    2    0    0 -0.15177506142E-01  0.52695180521E-02 -0.17233265460E-01  0.10203692285E+01  0.10200971780E+01 0.  0.
     999903    2    3    3    0    0 -0.65915232698E-01 -0.88285638124E-01 -0.70244209834E-01  0.13237314501E+00  0.21195016035E-01 0.  0.
         14    1    1    2    0    0  0.15177506142E-01 -0.52695180521E-02  0.17233265460E-01  0.23560771456E-01  0.00000000000E+00 0. -1.
     999901    1    3    3    0    0  0.50737726557E-01  0.93555156176E-01  0.53010944375E-01  0.88799608353E+00  0.88000000000E+00 0. -1.
        -11    1    4    4    0    0 -0.25939085783E-01 -0.19119636128E-01 -0.17942477305E-01  0.36886179929E-01  0.51100000000E-03 0.  1.
         11    1    4    4    0    0 -0.39976146915E-01 -0.69166001996E-01 -0.52301732530E-01  0.95486965084E-01  0.51100000000E-03 0. -1.
</event>
<event>
 8    1  0.1094829E+005  0.1043930E+01  0.7957747E-01            NaN
         13   -1    0    0    0    0  0.00000000000E+00  0.00000000000E+00  0.74505805969E-08  0.10566000000E+00  0.10566000000E+00 0.  1.
     999900   -1    0    0    0    0 -0.00000000000E+00 -0.00000000000E+00 -0.74505805969E-08  0.93827000000E+00  0.93827000000E+00 0. -1.
     999902    2    1    2    0    0  0.46252105939E-02 -0.99000626541E-02  0.20595332183E-01  0.10206153797E+01  0.10203490489E+01 0.  0.
     999903    2    3    3    0    0 -0.88521005049E-01 -0.15530840216E-02  0.96446834644E-01  0.13241532339E+00  0.19835461960E-01 0.  0.
         14    1    1    2    0    0 -0.46252105939E-02  0.99000626541E-02 -0.20595332183E-01  0.23314620334E-01  0.00000000000E+00 0. -1.
     999901    1    3    3    0    0  0.93146215642E-01 -0.83469786325E-02 -0.75851502462E-01  0.88820005627E+00  0.88000000000E+00 0. -1.
        -11    1    4    4    0    0 -0.30364423742E-01  0.55794771685E-02  0.44156624815E-01  0.53881327291E-01  0.51100000000E-03 0. -1.
         11    1    4    4    0    0 -0.58156581307E-01 -0.71325611901E-02  0.52290209830E-01  0.78533996100E-01  0.51100000000E-03 0.  1.
</event>
<event>
 8    1  0.1219921E+005  0.1043930E+01  0.7957747E-01            NaN
         13   -1    0    0    0    0  0.00000000000E+00  0.00000000000E+00  0.74505805969E-08  0.10566000000E+00  0.10566000000E+00 0.  1.
     999900   -1    0    0    0    0 -0.00000000000E+00 -0.00000000000E+00 -0.74505805969E-08  0.93827000000E+00  0.93827000000E+00 0. -1.
     999902    2    1    2    0    0  0.16886099878E-01 -0.11182170125E-02  0.13445794394E-01  0.10223156491E+01  0.10220871324E+01 0.  0.
     999903    2    3    3    0    0  0.94304515171E-01  0.72586090194E-01 -0.58563091844E-01  0.13292753605E+00  0.88324425539E-02 0.  0.
         14    1    1    2    0    0 -0.16886099878E-01  0.11182170125E-02 -0.13445794394E-01  0.21614350910E-01  0.00000000000E+00 0. -1.
     999901    1    3    3    0    0 -0.77418415293E-01 -0.73704307206E-01  0.72008886238E-01  0.88938811304E+00  0.88000000000E+00 0.  1.
        -11    1    4    4    0    0  0.57235570384E-01  0.40119068941E-01 -0.31004796741E-01  0.76465735802E-01  0.51100000000E-03 0.  1.
         11    1    4    4    0    0  0.37068944787E-01  0.32467021253E-01 -0.27558295103E-01  0.56461800243E-01  0.51100000000E-03 0. -1.
</event>
<event>
 8    1  0.1094829E+005  0.1043930E+01  0.7957747E-01            NaN
         13   -1    0    0    0    0  0.00000000000E+00  0.00000000000E+00  0.74505805969E-08  0.10566000000E+00  0.10566000000E+00 0.  1.
     999900   -1    0    0    0    0 -0.00000000000E+00 -0.00000000000E+00 -0.74505805969E-08  0.93827000000E+00  0.93827000000E+00 0. -1.
     999902    2    1    2    0    0 -0.15675844858E-01 -0.13229652083E-02  0.17713410808E-01  0.10202393421E+01  0.10199642484E+01 0.  0.
     999903    2    3    3    0    0  0.18598437341E-01  0.82602204193E-01 -0.94550764052E-01  0.12848746774E+00  0.20003908981E-01 0.  0.
         14    1    1    2    0    0  0.15675844858E-01  0.13229652083E-02 -0.17713410808E-01  0.23690657893E-01  0.00000000000E+00 0. -1.
     999901    1    3    3    0    0 -0.34274282199E-01 -0.83925169401E-01  0.11226417486E+00  0.89175187437E+00  0.88000000000E+00 0. -1.
        -11    1    4    4    0    0  0.21649309633E-01  0.78538198545E-01 -0.91604898722E-01  0.12259143457E+00  0.51100000000E-03 0.  1.
         11    1    4    4    0    0 -0.30508722913E-02  0.40640056480E-02 -0.29458653300E-02  0.58960331739E-02  0.51100000000E-03 0. -1.
</event>
<event>
 8    1  0.1094829E+005  0.1043930E+01  0.7957747E-01            NaN
         13   -1    0    0    0    0  0.00000000000E+00  0.00000000000E+00  0.74505805969E-08  0.10566000000E+00  0.10566000000E+00 0. -1.
     999900   -1    0    0    0    0 -0.00000000000E+00 -0.00000000000E+00 -0.74505805969E-08  0.93827000000E+00  0.93827000000E+00 0. -1.
     999902    2    1    2    0    0 -0.12428929871E-01 -0.84656920390E-02 -0.18282528312E-01  0.10202572925E+01  0.10199826203E+01 0.  0.
     999903    2    3    3    0    0 -0.11179445638E+00 -0.20585236013E-01 -0.66435254577E-01  0.13327416060E+00  0.20654452682E-01 0.  0.
         14    1    1    2    0    0  0.12428929871E-01  0.84656920390E-02  0.18282528312E-01  0.23672707511E-01  0.00000000000E+00 0. -1.
     999901    1    3    3    0    0  0.99365526505E-01  0.12119543974E-01  0.48152726265E-01  0.88698313189E+00  0.88000000000E+00 0.  1.
        -11    1    4    4    0    0 -0.89365872986E-01 -0.22383834222E-01 -0.59706198398E-01  0.10978336184E+00  0.51100000000E-03 0. -1.
         11    1    4    4    0    0 -0.22428583390E-01  0.17985982090E-02 -0.67290561792E-02  0.23490798762E-01  0.51100000000E-03 0.  1.
</event>
<event>
 8    1  0.1094829E+005  0.1043930E+01  0.7957747E-01            NaN
         13   -1    0    0    0    0  0.00000000000E+00  0.00000000000E+00  0.74505805969E-08  0.10566000000E+00  0.10566000000E+00 0.  1.
     999900   -1    0    0    0    0 -0.00000000000E+00 -0.00000000000E+00 -0.74505805969E-08  0.93827000000E+00  0.93827000000E+00 0.  1.
     999902    2    1    2    0    0 -0.17762210251E-01  0.89711483095E-02 -0.12633447007E-01  0.10203592215E+01  0.10200869371E+01 0.  0.
     999903    2    3    3    0    0 -0.12599898787E+00  0.38193865534E-01  0.14006785142E-02  0.13313539186E+00  0.19711782219E-01 0.  0.
         14    1    1    2    0    0  0.17762210251E-01 -0.89711483095E-02  0.12633447007E-01  0.23570778483E-01  0.00000000000E+00 0. -1.
     999901    1    3    3    0    0  0.10823677761E+00 -0.29222717224E-01 -0.14034125521E-01  0.88722382966E+00  0.88000000000E+00 0.  1.
        -11    1    4    4    0    0 -0.53134380410E-01  0.13464060022E-01  0.99554309067E-02  0.55712790447E-01  0.51100000000E-03 0.  1.
         11    1    4    4    0    0 -0.72864607455E-01  0.24729805512E-01 -0.85547523925E-02  0.77422601414E-01  0.51100000000E-03 0. -1.
</event>
<event>
 8    1  0.1094829E+005  0.1043930E+01  0.7957747E-01            NaN
         13   -1    0    0    0    0  0.00000000000E+00  0.00000000000E+00  0.74505805969E-08  0.10566000000E+00  0.10566000000E+00 0. -1.
     999900   -1    0    0    0    0 -0.00000000000E+00 -0.00000000000E+00 -0.74505805969E-08  0.93827000000E+00  0.93827000000E+00 0.  1.
     999902    2    1    2    0    0  0.20183917749E-01 -0.69853947953E-02 -0.99263185518E-02  0.10203775463E+01  0.10201056901E+01 0.  0.
     999903    2    3    3    0    0 -0.75432624298E-01  0.90018599875E-01  0.47209827584E-01  0.12806771372E+00  0.19471577863E-01 0.  0.
         14    1    1    2    0    0 -0.20183917749E-01  0.69853947953E-02  0.99263185518E-02  0.23552453718E-01  0.00000000000E+00 0. -1.
     999901    1    3    3    0    0  0.95616542047E-01 -0.97003994671E-01 -0.57136146135E-01  0.89230983256E+00  0.88000000000E+00 0. -1.
        -11    1    4    4    0    0 -0.59373620817E-01  0.81233510728E-01  0.41956378236E-01  0.10901701202E+00  0.51100000000E-03 0.  1.
         11    1    4    4    0    0 -0.16059003481E-01  0.87850891476E-02  0.52534493477E-02  0.19050701698E-01  0.51100000000E-03 0. -1.
</event>
<event>
 8    1  0.1094829E+005  0.1043930E+01  0.7957747E-01            NaN
         13   -1    0    0    0    0  0.00000000000E+00  0.00000000000E+00  0.74505805969E-08  0.10566000000E+00  0.10566000000E+00 0.  1.
     999900   -1    0    0    0    0 -0.00000000000E+00 -0.00000000000E+00 -0.74505805969E-08  0.93827000000E+00  0.93827000000E+00 0.  1.
     999902    2    1    2    0    0 -0.22739347147E-01 -0.76368722715E-02 -0.32708431494E-02  0.10197205361E+01  0.10194331139E+01 0.  0.
     999903    2    3    3    0    0 -0.96070595706E-01  0.75402913684E-01  0.44250168666E-01  0.13150247469E+00  0.20485718742E-01 0.  0.
         14    1    1    2    0    0  0.22739347147E-01  0.76368722715E-02  0.32708431494E-02  0.24209463887E-01  0.00000000000E+00 0. -1.
     999901    1    3    3    0    0  0.73331248559E-01 -0.83039785956E-01 -0.47521011815E-01  0.88821806142E+00  0.88000000000E+00 0.  1.
        -11    1    4    4    0    0 -0.50327297697E-01  0.29322118759E-01  0.27673436701E-01  0.64488012544E-01  0.51100000000E-03 0. -1.
         11    1    4    4    0    0 -0.45743298009E-01  0.46080794925E-01  0.16576731965E-01  0.67014462150E-01  0.51100000000E-03 0.  1.
</event>
<event>
 8    1  0.1094829E+005  0.1043930E+01  0.7957747E-01            NaN
         13   -1    0    0    0    0  0.00000000000E+00  0.00000000000E+00  0.74505805969E-08  0.10566000000E+00  0.10566000000E+00 0. -1.
     999900   -1    0    0    0    0 -0.00000000000E+00 -0.00000000000E+00 -0.74505805969E-08  0.93827000000E+00  0.93827000000E+00 0.  1.
     999902    2    1    2    0    0  0.16789817029E-01 -0.16695421962E-01  0.30050766887E-02  0.10200623324E+01  0.10197830634E+01 0.  0.
     999903    2    3    3    0    0  0.92874843613E-01 -0.80565701667E-01  0.47153814478E-01  0.13337329168E+00  0.21175076207E-01 0.  0.
         14    1    1    2    0    0 -0.16789817029E-01  0.16695421962E-01 -0.30050766887E-02  0.23867667592E-01  0.00000000000E+00 0. -1.
     999901    1    3    3    0    0 -0.76085026584E-01  0.63870279704E-01 -0.44148737790E-01  0.88668904073E+00  0.88000000000E+00 0. -1.
        -11    1    4    4    0    0  0.31040208267E-01 -0.16688350540E-01  0.19426758182E-01  0.40244945366E-01  0.51100000000E-03 0.  1.
         11    1    4    4    0    0  0.61834635346E-01 -0.63877351126E-01  0.27727056296E-01  0.93128346314E-01  0.51100000000E-03 0. -1.
</event>
<event>
 8    1  0.1094829E+005  0.1043930E+01  0.7957747E-01            NaN
         13   -1    0    0    0    0  0.00000000000E+00  0.00000000000E+00  0.74505805969E-08  0.10566000000E+00  0.10566000000E+00 0. -1.
     999900   -1    0    0    0    0 -0.00000000000E+00 -0.00000000000E+00 -0.74505805969E-08  0.93827000000E+00  0.93827000000E+00 0.  1.
     999902    2    1    2    0    0 -0.16403726169E-01 -0.89811724220E-02  0.14205347128E-01  0.10204452054E+01  0.10201749270E+01 0.  0.
     999903    2    3    3    0    0 -0.13088453922E+00 -0.44974601593E-02  0.11130157906E-01  0.13301328293E+00  0.20436811528E-01 0.  0.
         14    1    1    2    0    0  0.16403726169E-01  0.89811724220E-02 -0.14205347128E-01  0.23484794598E-01  0.00000000000E+00 0.  1.
     999901    1    3    3    0    0  0.11448081305E+00 -0.44837122627E-02  0.30751892218E-02  0.88743192247E+00  0.88000000000E+00 0. -1.
        -11    1    4    4    0    0 -0.38804590783E-01 -0.87808897061E-02 -0.23185729173E-02  0.39856457335E-01  0.51100000000E-03 0.  1.
         11    1    4    4    0    0 -0.92079948439E-01  0.42834295468E-02  0.13448730824E-01  0.93156825595E-01  0.51100000000E-03 0. -1.
</event>
<event>
 8    1  0.1094829E+005  0.1043930E+01  0.7957747E-01            NaN
         13   -1    0    0    0    0  0.00000000000E+00  0.00000000000E+00  0.74505805969E-08  0.10566000000E+00  0.10566000000E+00 0.  1.
     999900   -1    0    0    0    0 -0.00000000000E+00 -0.00000000000E+00 -0.74505805969E-08  0.93827000000E+00  0.93827000000E+00 0. -1.
     999902    2    1    2    0    0  0.98584744098E-02  0.53625443103E-02  0.21416435398E-01  0.10197512882E+01  0.10194646044E+01 0.  0.
     999903    2    3    3    0    0  0.11525634475E+00  0.58517946480E-01 -0.17084922716E-01  0.13103504415E+00  0.13035073715E-01 0.  0.
         14    1    1    2    0    0 -0.98584744098E-02 -0.53625443103E-02 -0.21416435398E-01  0.24178711801E-01  0.00000000000E+00 0. -1.
     999901    1    3    3    0    0 -0.10539787034E+00 -0.53155402170E-01  0.38501358114E-01  0.88871624404E+00  0.88000000000E+00 0. -1.
        -11    1    4    4    0    0  0.11495487212E-01  0.56673818733E-02  0.21651648064E-02  0.13008247506E-01  0.51100000000E-03 0. -1.
         11    1    4    4    0    0  0.10376085754E+00  0.52850564607E-01 -0.19250087522E-01  0.11802679665E+00  0.51100000000E-03 0.  1.
</event>
<event>
 8    1  0.1094829E+005  0.1043930E+01  0.7957747E-01            NaN
         13   -1    0    0    0    0  0.00000000000E+00  0.00000000000E+00  0.74505805969E-08  0.10566000000E+00  0.10566000000E+00 0.  1.
     999900   -1    0    0    0    0 -0.00000000000E+00 -0.00000000000E+00 -0.74505805969E-08  0.93827000000E+00  0.93827000000E+00 0. -1.
     999902    2    1    2    0    0 -0.43039126157E-02  0.76697092728E-02  0.20903317237E-01  0.10212518877E+01  0.10210000595E+01 0.  0.
     999903    2    3    3    0    0  0.99586452942E-01  0.16570616426E-01 -0.78270240567E-01  0.12956369741E+00  0.21644264606E-01 0.  0.
         14    1    1    2    0    0  0.43039126157E-02 -0.76697092728E-02 -0.20903317237E-01  0.22678112259E-01  0.00000000000E+00 0. -1.
     999901    1    3    3    0    0 -0.10389036556E+00 -0.89009071532E-02  0.99173557804E-01  0.89168819033E+00  0.88000000000E+00 0.  1.
        -11    1    4    4    0    0  0.68133864350E-01  0.14661575402E-02 -0.55560488700E-01  0.87929529254E-01  0.51100000000E-03 0. -1.
         11    1    4    4    0    0  0.31452588592E-01  0.15104458886E-01 -0.22709751867E-01  0.41634168159E-01  0.51100000000E-03 0.  1.
</event>
<event>
 8    1  0.1094829E+005  0.1043930E+01  0.7957747E-01            NaN
         13   -1    0    0    0    0  0.00000000000E+00  0.00000000000E+00  0.74505805969E-08  0.10566000000E+00  0.10566000000E+00 0.  1.
     999900   -1    0    0    0    0 -0.00000000000E+00 -0.00000000000E+00 -0.74505805969E-08  0.93827000000E+00  0.93827000000E+00 0. -1.
     999902    2    1    2    0    0 -0.22317691002E-01 -0.85877018754E-02  0.40451159057E-02  0.10196773524E+01  0.10193888914E+01 0.  0.
     999903    2    3    3    0    0 -0.11471665702E-01  0.78597807199E-01 -0.10012516397E+00  0.12918849983E+00  0.18852204622E-01 0.  0.
         14    1    1    2    0    0  0.22317691002E-01  0.85877018754E-02 -0.40451159057E-02  0.24252647646E-01  0.00000000000E+00 0. -1.
     999901    1    3    3    0    0 -0.10846025300E-01 -0.87185509075E-01  0.10417027987E+00  0.89048885252E+00  0.88000000000E+00 0.  1.
        -11    1    4    4    0    0  0.10616759964E-03  0.54429510733E-01 -0.60898452776E-01  0.81679040039E-01  0.51100000000E-03 0. -1.
         11    1    4    4    0    0 -0.11577833302E-01  0.24168296467E-01 -0.39226711190E-01  0.47509459793E-01  0.51100000000E-03 0.  1.
</event>
<event>
 8    1  0.1309022E+005  0.1043930E+01  0.7957747E-01            NaN
         13   -1    0    0    0    0  0.00000000000E+00  0.00000000000E+00  0.74505805969E-08  0.10566000000E+00  0.10566000000E+00 0. -1.
     999900   -1    0    0    0    0 -0.00000000000E+00 -0.00000000000E+00 -0.74505805969E-08  0.93827000000E+00  0.93827000000E+00 0.  1.
     999902    2    1    2    0    0 -0.15495108512E-01  0.15918867193E-01 -0.97056802060E-02  0.10196872908E+01  0.10193990691E+01 0.  0.
     999903    2    3    3    0    0  0.21261783398E-02  0.25581249237E-01 -0.12751514237E+00  0.13160906185E+00  0.20047760008E-01 0.  0.
         14    1    1    2    0    0  0.15495108512E-01 -0.15918867193E-01  0.97056802060E-02  0.24242709187E-01  0.00000000000E+00 0.  1.
     999901    1    3    3    0    0 -0.17621286851E-01 -0.96623820442E-02  0.11780946216E+00  0.88807822896E+00  0.88000000000E+00 0. -1.
        -11    1    4    4    0    0 -0.66412644811E-02  0.18510645203E-01 -0.59557540732E-01  0.62722501216E-01  0.51100000000E-03 0.  1.
         11    1    4    4    0    0  0.87674428209E-02  0.70706040343E-02 -0.67957601638E-01  0.68886560637E-01  0.51100000000E-03 0. -1.
</event>
<event>
 8    1  0.1094829E+005  0.1043930E+01  0.7957747E-01            NaN
         13   -1    0    0    0    0  0.00000000000E+00  0.00000000000E+00  0.74505805969E-08  0.10566000000E+00  0.10566000000E+00 0.  1.
     999900   -1    0    0    0    0 -0.00000000000E+00 -0.00000000000E+00 -0.74505805969E-08  0.93827000000E+00  0.93827000000E+00 0.  1.
     999902    2    1    2    0    0  0.15467480224E-01 -0.11557920219E-01 -0.13804800554E-01  0.10201939308E+01  0.10199177689E+01 0.  0.
     999903    2    3    3    0    0 -0.30910533141E-01 -0.11259903760E+00  0.54419547243E-01  0.13057896397E+00  0.21339502830E-01 0.  0.
         14    1    1    2    0    0 -0.15467480224E-01  0.11557920219E-01  0.13804800554E-01  0.23736069232E-01  0.00000000000E+00 0.  1.
     999901    1    3    3    0    0  0.46378013366E-01  0.10104111738E+00 -0.68224347797E-01  0.88961496680E+00  0.88000000000E+00 0.  1.
        -11    1    4    4    0    0 -0.12084457140E-01 -0.50415646752E-01  0.35750636574E-01  0.62977302881E-01  0.51100000000E-03 0.  1.
         11    1    4    4    0    0 -0.18826076001E-01 -0.62183390847E-01  0.18668910670E-01  0.67601661085E-01  0.51100000000E-03 0. -1.
</event>
<event>
 8    1  0.1094829E+005  0.1043930E+01  0.7957747E-01            NaN
         13   -1    0    0    0    0  0.00000000000E+00  0.00000000000E+00  0.74505805969E-08  0.10566000000E+00  0.10566000000E+00 0. -1.
     999900   -1    0    0    0    0 -0.00000000000E+00 -0.00000000000E+00 -0.74505805969E-08  0.93827000000E+00  0.93827000000E+00 0.  1.
     999902    2    1    2    0    0 -0.19270115655E-01  0.98599943364E-02 -0.10928654184E-01  0.10196814469E+01  0.10193930845E+01 0.  0.
     999903    2    3    3    0    0 -0.40395102868E-01  0.67136003936E-01 -0.10509140278E+00  0.13255494544E+00  0.19687642355E-01 0.  0.
         14    1    1    2    0    0  0.19270115655E-01 -0.98599943364E-02  0.10928654184E-01  0.24248553110E-01  0.00000000000E+00 0.  1.
     999901    1    3    3    0    0  0.21124987213E-01 -0.57276009600E-01  0.94162748593E-01  0.88712650145E+00  0.88000000000E+00 0. -1.
        -11    1    4    4    0    0 -0.27632386474E-01  0.33808057960E-01 -0.69990541069E-01  0.82495275777E-01  0.51100000000E-03 0.  1.
         11    1    4    4    0    0 -0.12762716394E-01  0.33327945975E-01 -0.35100861707E-01  0.50059669658E-01  0.51100000000E-03 0. -1.
</event>
<event>
 8    1  0.1094829E+005  0.1043930E+01  0.7957747E-01            NaN
         13   -1    0    0    0    0  0.00000000000E+00  0.00000000000E+00  0.74505805969E-08  0.10566000000E+00  0.10566000000E+00 0. -1.
     999900   -1    0    0    0    0 -0.00000000000E+00 -0.00000000000E+00 -0.74505805969E-08  0.93827000000E+00  0.93827000000E+00 0.  1.
     999902    2    1    2    0    0  0.33065323180E-02 -0.24030205932E-01 -0.18611930142E-02  0.10196020738E+01  0.10193117977E+01 0.  0.
     999903    2    3    3    0    0 -0.76940246777E-01 -0.89775544816E-01  0.54502497035E-01  0.13171758769E+00  0.19988764423E-01 0.  0.
         14    1    1    2    0    0 -0.33065323180E-02  0.24030205932E-01  0.18611930142E-02  0.24327926187E-01  0.00000000000E+00 0. -1.
     999901    1    3    3    0    0  0.80246779095E-01  0.65745338884E-01 -0.56363690049E-01  0.88788448612E+00  0.88000000000E+00 0.  1.
        -11    1    4    4    0    0 -0.20521714492E-01 -0.17030965192E-01  0.48146922087E-02  0.27104186450E-01  0.51100000000E-03 0. -1.
         11    1    4    4    0    0 -0.56418532285E-01 -0.72744579624E-01  0.49687804826E-01  0.10461340124E+00  0.51100000000E-03 0.  1.
</event>
<event>
 8    1  0.1094829E+005  0.1043930E+01  0.7957747E-01            NaN
         13   -1    0    0    0    0  0.00000000000E+00  0.00000000000E+00  0.74505805969E-08  0.10566000000E+00  0.10566000000E+00 0.  1.
     999900   -1    0    0    0    0 -0.00000000000E+00 -0.00000000000E+00 -0.74505805969E-08  0.93827000000E+00  0.93827000000E+00 0.  1.
     999902    2    1    2    0    0 -0.50664669763E-02  0.13498144649E-01  0.18811706861E-01  0.10202287487E+01  0.10199534060E+01 0.  0.
     999903    2    3    3    0    0 -0.10715863680E-01  0.12678764298E+00  0.31822821683E-01  0.13285300238E+00  0.21149281630E-01 0.  0.
         14    1    1    2    0    0  0.50664669763E-02 -0.13498144649E-01 -0.18811706861E-01  0.23701251267E-01  0.00000000000E+00 0. -1.
     999901    1    3    3    0    0  0.56493967035E-02 -0.11328949833E+00 -0.13011114822E-01  0.88737574636E+00  0.88000000000E+00 0. -1.
        -11    1    4    4    0    0 -0.19823011239E-03  0.16624160428E-01  0.11792293905E-01  0.20389245245E-01  0.51100000000E-03 0.  1.
         11    1    4    4    0    0 -0.10517633567E-01  0.11016348255E+00  0.20030527778E-01  0.11246375713E+00  0.51100000000E-03 0. -1.
</event>
<event>
 8    1  0.1094829E+005  0.1043930E+01  0.7957747E-01            NaN
         13   -1    0    0    0    0  0.00000000000E+00  0.00000000000E+00  0.74505805969E-08  0.10566000000E+00  0.10566000000E+00 0.  1.
     999900   -1    0    0    0    0 -0.00000000000E+00 -0.00000000000E+00 -0.74505805969E-08  0.93827000000E+00  0.93827000000E+00 0. -1.
     999902    2    1    2    0    0 -0.25710167506E-02  0.12344004402E-01  0.20440311335E-01  0.10199135286E+01  0.10196307248E+01 0.  0.
     999903    2    3    3    0    0 -0.96597698551E-01 -0.13668584948E-01  0.86670860420E-01  0.13204858540E+00  0.20175363229E-01 0.  0.
         14    1    1    2    0    0  0.25710167506E-02 -0.12344004402E-01 -0.20440311335E-01  0.24016471416E-01  0.00000000000E+00 0. -1.
     999901    1    3    3    0    0  0.94026681801E-01  0.26012589350E-01 -0.66230549086E-01  0.88786494318E+00  0.88000000000E+00 0. -1.
        -11    1    4    4    0    0 -0.46111670565E-01  0.25636319555E-02  0.46299983205E-01  0.65397308331E-01  0.51100000000E-03 0. -1.
         11    1    4    4    0    0 -0.50486027986E-01 -0.16232216903E-01  0.40370877215E-01  0.66651277074E-01  0.51100000000E-03 0.  1.
</event>
<event>
 8    1  0.1094829E+005  0.1043930E+01  0.7957747E-01            NaN
         13   -1    0    0    0    0  0.00000000000E+00  0.00000000000E+00  0.74505805969E-08  0.10566000000E+00  0.10566000000E+00 0.  1.
     999900   -1    0    0    0    0 -0.00000000000E+00 -0.00000000000E+00 -0.74505805969E-08  0.93827000000E+00  0.93827000000E+00 0. -1.
     999902    2    1    2    0    0 -0.27919865862E-02 -0.14853848675E-01  0.18660763831E-01  0.10199163348E+01  0.10196335979E+01 0.  0.
     999903    2    3    3    0    0 -0.18593941635E-01 -0.20007619430E-01  0.12836433515E+00  0.13294895282E+00  0.21259868690E-01 0.  0.
         14    1    1    2    0    0  0.27919865862E-02  0.14853848675E-01 -0.18660763831E-01  0.24013665199E-01  0.00000000000E+00 0. -1.
     999901    1    3    3    0    0  0.15801955049E-01  0.51537707552E-02 -0.10970357132E+00  0.88696738198E+00  0.88000000000E+00 0. -1.
        -11    1    4    4    0    0 -0.91448272812E-02 -0.21724507310E-01  0.71768465597E-01  0.75541749113E-01  0.51100000000E-03 0.  1.
         11    1    4    4    0    0 -0.94491143540E-02  0.17168878797E-02  0.56595869553E-01  0.57407203708E-01  0.51100000000E-03 0. -1.
</event>
<event>
 8    1  0.1094829E+005  0.1043930E+01  0.7957747E-01            NaN
         13   -1    0    0    0    0  0.00000000000E+00  0.00000000000E+00  0.74505805969E-08  0.10566000000E+00  0.10566000000E+00 0.  1.
     999900   -1    0    0    0    0 -0.00000000000E+00 -0.00000000000E+00 -0.74505805969E-08  0.93827000000E+00  0.93827000000E+00 0.  1.
     999902    2    1    2    0    0  0.11447941953E-01  0.52758758608E-02 -0.15448893992E-01  0.10239911293E+01  0.10237969888E+01 0.  0.
     999903    2    3    3    0    0 -0.12598336855E+00  0.33691756829E-01  0.11838507031E-01  0.13245345218E+00  0.19920419564E-01 0.  0.
         14    1    1    2    0    0 -0.11447941953E-01 -0.52758758608E-02  0.15448893992E-01  0.19938870746E-01  0.00000000000E+00 0.  1.
     999901    1    3    3    0    0  0.13743131050E+00 -0.28415880968E-01 -0.27287401023E-01  0.89153767708E+00  0.88000000000E+00 0. -1.
        -11    1    4    4    0    0 -0.71801776756E-01  0.26172332185E-01 -0.27385001948E-03  0.76425272209E-01  0.51100000000E-03 0.  1.
         11    1    4    4    0    0 -0.54181591791E-01  0.75194246433E-02  0.12112357050E-01  0.56028179966E-01  0.51100000000E-03 0. -1.
</event>
<event>
 8    1  0.1094829E+005  0.1043930E+01  0.7957747E-01            NaN
         13   -1    0    0    0    0  0.00000000000E+00  0.00000000000E+00  0.74505805969E-08  0.10566000000E+00  0.10566000000E+00 0.  1.
     999900   -1    0    0    0    0 -0.00000000000E+00 -0.00000000000E+00 -0.74505805969E-08  0.93827000000E+00  0.93827000000E+00 0. -1.
     999902    2    1    2    0    0  0.29247114671E-01  0.71070573424E-02 -0.44006160997E-02  0.10135117587E+01  0.10130551888E+01 0.  0.
     999903    2    3    3    0    0 -0.16315196918E-01 -0.27964914587E-02  0.12110330089E+00  0.12338522968E+00  0.16849314594E-01 0.  0.
         14    1    1    2    0    0 -0.29247114671E-01 -0.71070573424E-02  0.44006160997E-02  0.30418241283E-01  0.00000000000E+00 0. -1.
     999901    1    3    3    0    0  0.45562311590E-01  0.99035488012E-02 -0.12550391699E+00  0.89012652904E+00  0.88000000000E+00 0. -1.
        -11    1    4    4    0    0  0.18744304501E-02  0.50203442906E-03  0.45814063072E-01  0.45857987573E-01  0.51100000000E-03 0.  1.
         11    1    4    4    0    0 -0.18189627368E-01 -0.32985258878E-02  0.75289237817E-01  0.77527242108E-01  0.51100000000E-03 0. -1.
</event>
<event>
 8    1  0.1094829E+005  0.1043930E+01  0.7957747E-01            NaN
         13   -1    0    0    0    0  0.00000000000E+00  0.00000000000E+00  0.74505805969E-08  0.10566000000E+00  0.10566000000E+00 0. -1.
     999900   -1    0    0    0    0 -0.00000000000E+00 -0.00000000000E+00 -0.74505805969E-08  0.93827000000E+00  0.93827000000E+00 0. -1.
     999902    2    1    2    0    0 -0.10240343925E-01  0.21842709526E-01 -0.17369062527E-02  0.10197435276E+01  0.10194566576E+01 0.  0.
     999903    2    3    3    0    0 -0.88143497647E-01  0.16966326823E-01  0.93559121745E-01  0.13116375437E+00  0.19836551493E-01 0.  0.
         14    1    1    2    0    0  0.10240343925E-01 -0.21842709526E-01  0.17369062527E-02  0.24186472386E-01  0.00000000000E+00 0. -1.
     999901    1    3    3    0    0  0.77903153722E-01  0.48763827027E-02 -0.95296027998E-01  0.88857977325E+00  0.88000000000E+00 0. -1.
        -11    1    4    4    0    0 -0.76572287107E-01  0.10845834175E-01  0.70530542624E-01  0.10466979428E+00  0.51100000000E-03 0.  1.
         11    1    4    4    0    0 -0.11571210541E-01  0.61204926484E-02  0.23028579122E-01  0.26493960085E-01  0.51100000000E-03 0. -1.
</event>
<event>
 8    1  0.1094829E+005  0.1043930E+01  0.7957747E-01            NaN
         13   -1    0    0    0    0  0.00000000000E+00  0.00000000000E+00  0.74505805969E-08  0.10566000000E+00  0.10566000000E+00 0.  1.
     999900   -1    0    0    0    0 -0.00000000000E+00 -0.00000000000E+00 -0.74505805969E-08  0.93827000000E+00  0.93827000000E+00 0.  1.
     999902    2    1    2    0    0 -0.17519854045E-02 -0.15716130848E-01  0.20386214421E-01  0.10181295357E+01  0.10178025778E+01 0.  0.
     999903    2    3    3    0    0 -0.42639773517E-01 -0.59599484244E-02 -0.11731943288E+00  0.12642900319E+00  0.19151298778E-01 0.  0.
         14    1    1    2    0    0  0.17519854045E-02  0.15716130848E-01 -0.20386214421E-01  0.25800464339E-01  0.00000000000E+00 0. -1.
     999901    1    3    3    0    0  0.40887788112E-01 -0.97561824234E-02  0.13770564730E+00  0.89170053247E+00  0.88000000000E+00 0. -1.
        -11    1    4    4    0    0 -0.20246657937E-01 -0.73514612011E-02 -0.80280968766E-01  0.83121995924E-01  0.51100000000E-03 0.  1.
         11    1    4    4    0    0 -0.22393115580E-01  0.13915127768E-02 -0.37038464115E-01  0.43307007264E-01  0.51100000000E-03 0. -1.
</event>
<event>
 8    1  0.1094829E+005  0.1043930E+01  0.7957747E-01            NaN
         13   -1    0    0    0    0  0.00000000000E+00  0.00000000000E+00  0.74505805969E-08  0.10566000000E+00  0.10566000000E+00 0. -1.
     999900   -1    0    0    0    0 -0.00000000000E+00 -0.00000000000E+00 -0.74505805969E-08  0.93827000000E+00  0.93827000000E+00 0.  1.
     999902    2    1    2    0    0 -0.19102193676E-01 -0.12595355164E-01  0.97652754490E-02  0.10190523518E+01  0.10187486434E+01 0.  0.
     999903    2    3    3    0    0 -0.50678435673E-01 -0.10981689198E+00  0.49236366097E-01  0.13225640387E+00  0.20963850109E-01 0.  0.
         14    1    1    2    0    0  0.19102193676E-01  0.12595355164E-01 -0.97652754490E-02  0.24877648191E-01  0.00000000000E+00 0. -1.
     999901    1    3    3    0    0  0.31576241997E-01  0.97221536820E-01 -0.39471090648E-01  0.88679594794E+00  0.88000000000E+00 0. -1.
        -11    1    4    4    0    0 -0.47141387660E-01 -0.85742105897E-01  0.44359975502E-01  0.10743410865E+00  0.51100000000E-03 0. -1.
         11    1    4    4    0    0 -0.35370480128E-02 -0.24074786087E-01  0.48763905949E-02  0.24822295220E-01  0.51100000000E-03 0.  1.
</event>
<event>
 8    1  0.1094829E+005  0.1043930E+01  0.7957747E-01            NaN
         13   -1    0    0    0    0  0.00000000000E+00  0.00000000000E+00  0.74505805969E-08  0.10566000000E+00  0.10566000000E+00 0. -1.
     999900   -1    0    0    0    0 -0.00000000000E+00 -0.00000000000E+00 -0.74505805969E-08  0.93827000000E+00  0.93827000000E+00 0.  1.
     999902    2    1    2    0    0  0.91073527692E-02  0.17656889201E-01 -0.13694894020E-01  0.10197999413E+01  0.10195144239E+01 0.  0.
     999903    2    3    3    0    0  0.10969911190E+00 -0.55054853573E-01 -0.40290689720E-01  0.13069194117E+00  0.19801811909E-01 0.  0.
         14    1    1    2    0    0 -0.91073527692E-02 -0.17656889201E-01  0.13694894020E-01  0.24130058702E-01  0.00000000000E+00 0. -1.
     999901    1    3    3    0    0 -0.10059175913E+00  0.72711742774E-01  0.26595795700E-01  0.88910800013E+00  0.88000000000E+00 0.  1.
        -11    1    4    4    0    0  0.23086544281E-01 -0.19887771587E-01 -0.14306200292E-01  0.33666607690E-01  0.51100000000E-03 0.  1.
         11    1    4    4    0    0  0.86612567620E-01 -0.35167081985E-01 -0.25984489429E-01  0.97025333481E-01  0.51100000000E-03 0. -1.
</event>
<event>
 8    1  0.1094829E+005  0.1043930E+01  0.7957747E-01            NaN
         13   -1    0    0    0    0  0.00000000000E+00  0.00000000000E+00  0.74505805969E-08  0.10566000000E+00  0.10566000000E+00 0. -1.
     999900   -1    0    0    0    0 -0.00000000000E+00 -0.00000000000E+00 -0.74505805969E-08  0.93827000000E+00  0.93827000000E+00 0. -1.
     999902    2    1    2    0    0  0.35639847226E-02  0.18859271114E-02 -0.22533749036E-01  0.10210383300E+01  0.10207816823E+01 0.  0.
     999903    2    3    3    0    0 -0.67504091943E-01  0.96270031161E-01 -0.56527593885E-01  0.13249198228E+00  0.23109200972E-01 0.  0.
         14    1    1    2    0    0 -0.35639847226E-02 -0.18859271114E-02  0.22533749036E-01  0.22891669965E-01  0.00000000000E+00 0. -1.
     999901    1    3    3    0    0  0.71068076666E-01 -0.94384104050E-01  0.33993844849E-01  0.88854634775E+00  0.88000000000E+00 0. -1.
        -11    1    4    4    0    0 -0.25055830047E-01  0.33616029222E-01 -0.82789360369E-02  0.42739138303E-01  0.51100000000E-03 0.  1.
         11    1    4    4    0    0 -0.42448261896E-01  0.62654001939E-01 -0.48248657849E-01  0.89752843978E-01  0.51100000000E-03 0. -1.
</event>
<event>
 8    1  0.1094829E+005  0.1043930E+01  0.7957747E-01            NaN
         13   -1    0    0    0    0  0.00000000000E+00  0.00000000000E+00  0.74505805969E-08  0.10566000000E+00  0.10566000000E+00 0.  1.
     999900   -1    0    0    0    0 -0.00000000000E+00 -0.00000000000E+00 -0.74505805969E-08  0.93827000000E+00  0.93827000000E+00 0. -1.
     999902    2    1    2    0    0 -0.68038968706E-02 -0.12795056310E-01  0.18650162536E-01  0.10203114683E+01  0.10200380666E+01 0.  0.
     999903    2    3    3    0    0 -0.32903080768E-01  0.68668619421E-01  0.10578227390E+00  0.13188054653E+00  0.20114598325E-01 0.  0.
         14    1    1    2    0    0  0.68038968706E-02  0.12795056310E-01 -0.18650162536E-01  0.23618531733E-01  0.00000000000E+00 0. -1.
     999901    1    3    3    0    0  0.26099183898E-01 -0.81463675731E-01 -0.87132111360E-01  0.88843092173E+00  0.88000000000E+00 0. -1.
        -11    1    4    4    0    0 -0.11400727236E-01  0.68827777825E-02  0.18566115713E-01  0.22854124030E-01  0.51100000000E-03 0.  1.
         11    1    4    4    0    0 -0.21502353532E-01  0.61785841638E-01  0.87216158184E-01  0.10902642250E+00  0.51100000000E-03 0. -1.
</event>
<event>
 8    1  0.1094829E+005  0.1043930E+01  0.7957747E-01            NaN
         13   -1    0    0    0    0  0.00000000000E+00  0.00000000000E+00  0.74505805969E-08  0.10566000000E+00  0.10566000000E+00 0.  1.
     999900   -1    0    0    0    0 -0.00000000000E+00 -0.00000000000E+00 -0.74505805969E-08  0.93827000000E+00  0.93827000000E+00 0. -1.
     999902    2    1    2    0    0 -0.15729390794E-01 -0.10495079649E-01  0.13649928736E-01  0.10206087439E+01  0.10203422598E+01 0.  0.
     999903    2    3    3    0    0  0.11230002022E+00 -0.49610783536E-01 -0.33300952151E-01  0.12924689056E+00  0.22875334338E-01 0.  0.
         14    1    1    2    0    0  0.15729390794E-01  0.10495079649E-01 -0.13649928736E-01  0.23321256100E-01  0.00000000000E+00 0.  1.
     999901    1    3    3    0    0 -0.12802941101E+00  0.39115703886E-01  0.46950880887E-01  0.89136185334E+00  0.88000000000E+00 0.  1.
        -11    1    4    4    0    0  0.66632216663E-01 -0.19727312267E-01 -0.11323686474E-01  0.70409560026E-01  0.51100000000E-03 0.  1.
         11    1    4    4    0    0  0.45667803555E-01 -0.29883471269E-01 -0.21977265677E-01  0.58837330533E-01  0.51100000000E-03 0. -1.
</event>
<event>
 8    1  0.1094829E+005  0.1043930E+01  0.7957747E-01            NaN
         13   -1    0    0    0    0  0.00000000000E+00  0.00000000000E+00  0.74505805969E-08  0.10566000000E+00  0.10566000000E+00 0. -1.
     999900   -1    0    0    0    0 -0.00000000000E+00 -0.00000000000E+00 -0.74505805969E-08  0.93827000000E+00  0.93827000000E+00 0. -1.
     999902    2    1    2    0    0  0.21799048908E-02  0.11721181175E-01  0.19334068029E-01  0.10212155936E+01  0.10209629495E+01 0.  0.
     999903    2    3    3    0    0 -0.76591911795E-01 -0.86080878697E-01  0.59819393999E-01  0.13137892111E+00  0.20145033711E-01 0.  0.
         14    1    1    2    0    0 -0.21799048908E-02 -0.11721181175E-01 -0.19334068029E-01  0.22714406443E-01  0.00000000000E+00 0.  1.
     999901    1    3    3    0    0  0.78771816685E-01  0.97802059872E-01 -0.40485325970E-01  0.88983667245E+00  0.88000000000E+00 0.  1.
        -11    1    4    4    0    0 -0.60095036472E-02 -0.90524307683E-02  0.12831233578E-01  0.16821483675E-01  0.51100000000E-03 0.  1.
         11    1    4    4    0    0 -0.70582408147E-01 -0.77028447928E-01  0.46988160421E-01  0.11455743743E+00  0.51100000000E-03 0. -1.
</event>
<event>
 8    1  0.1094829E+005  0.1043930E+01  0.7957747E-01            NaN
         13   -1    0    0    0    0  0.00000000000E+00  0.00000000000E+00  0.74505805969E-08  0.10566000000E+00  0.10566000000E+00 0. -1.
     999900   -1    0    0    0    0 -0.00000000000E+00 -0.00000000000E+00 -0.74505805969E-08  0.93827000000E+00  0.93827000000E+00 0.  1.
     999902    2    1    2    0    0  0.14744948531E-01  0.13691133369E-01 -0.11206822294E-01  0.10208984237E+01  0.10206385933E+01 0.  0.
     999903    2    3    3    0    0 -0.13883931148E-01 -0.10658364881E+00  0.67728247414E-01  0.12875696565E+00  0.20938074561E-01 0.  0.
         14    1    1    2    0    0 -0.14744948531E-01 -0.13691133369E-01  0.11206822294E-01  0.23031576282E-01  0.00000000000E+00 0. -1.
     999901    1    3    3    0    0  0.28628879679E-01  0.12027478218E+00 -0.78935069708E-01  0.89214145807E+00  0.88000000000E+00 0.  1.
        -11    1    4    4    0    0 -0.10052279879E-01 -0.27235315448E-01  0.10615301191E-01  0.30915311396E-01  0.51100000000E-03 0.  1.
         11    1    4    4    0    0 -0.38316512690E-02 -0.79348333364E-01  0.57112946223E-01  0.97841654250E-01  0.51100000000E-03 0. -1.
</event>
<event>
 8    1  0.1094829E+005  0.1043930E+01  0.7957747E-01            NaN
         13   -1    0    0    0    0  0.00000000000E+00  0.00000000000E+00  0.74505805969E-08  0.10566000000E+00  0.10566000000E+00 0. -1.
     999900   -1    0    0    0    0 -0.00000000000E+00 -0.00000000000E+00 -0.74505805969E-08  0.93827000000E+00  0.93827000000E+00 0. -1.
     999902    2    1    2    0    0 -0.20117021803E-01  0.10194340762E-02 -0.10673730534E-01  0.10211338965E+01  0.10208794112E+01 0.  0.
     999903    2    3    3    0    0  0.26382720980E-01  0.88877507359E-01 -0.91584333175E-01  0.13184890688E+00  0.20029600111E-01 0.  0.
         14    1    1    2    0    0  0.20117021803E-01 -0.10194340762E-02  0.10673730534E-01  0.22796103517E-01  0.00000000000E+00 0. -1.
     999901    1    3    3    0    0 -0.46499742783E-01 -0.87858073283E-01  0.80910602642E-01  0.88928498961E+00  0.88000000000E+00 0.  1.
        -11    1    4    4    0    0  0.71124073734E-02  0.46114223663E-01 -0.56468856840E-01  0.73253674833E-01  0.51100000000E-03 0. -1.
         11    1    4    4    0    0  0.19270313606E-01  0.42763283696E-01 -0.35115476335E-01  0.58595232043E-01  0.51100000000E-03 0.  1.
</event>
<event>
 8    1  0.1094829E+005  0.1043930E+01  0.7957747E-01            NaN
         13   -1    0    0    0    0  0.00000000000E+00  0.00000000000E+00  0.74505805969E-08  0.10566000000E+00  0.10566000000E+00 0. -1.
     999900   -1    0    0    0    0 -0.00000000000E+00 -0.00000000000E+00 -0.74505805969E-08  0.93827000000E+00  0.93827000000E+00 0.  1.
     999902    2    1    2    0    0  0.49159967675E-02 -0.78843399834E-02  0.21996164952E-01  0.10200519533E+01  0.10197724385E+01 0.  0.
     999903    2    3    3    0    0 -0.99262980618E-01  0.16779035713E-01  0.82260317707E-01  0.13151759295E+00  0.19885724167E-01 0.  0.
         14    1    1    2    0    0 -0.49159967675E-02  0.78843399834E-02 -0.21996164952E-01  0.23878046691E-01  0.00000000000E+00 0.  1.
     999901    1    3    3    0    0  0.10417897739E+00 -0.24663375696E-01 -0.60264152755E-01  0.88853436036E+00  0.88000000000E+00 0.  1.
        -11    1    4    4    0    0 -0.87965853396E-01  0.18350689824E-01  0.78985333191E-01  0.11963980592E+00  0.51100000000E-03 0. -1.
         11    1    4    4    0    0 -0.11297127223E-01 -0.15716541110E-02  0.32749845153E-02  0.11877787029E-01  0.51100000000E-03 0.  1.
</event>
<event>
 8    1  0.1094829E+005  0.1043930E+01  0.7957747E-01            NaN
         13   -1    0    0    0    0  0.00000000000E+00  0.00000000000E+00  0.74505805969E-08  0.10566000000E+00  0.10566000000E+00 0.  1.
     999900   -1    0    0    0    0 -0.00000000000E+00 -0.00000000000E+00 -0.74505805969E-08  0.93827000000E+00  0.93827000000E+00 0.  1.
     999902    2    1    2    0    0  0.52845822297E-02  0.98845500567E-02 -0.72342754250E-02  0.10305896147E+01  0.10305032693E+01 0.  0.
     999903    2    3    3    0    0 -0.12607571394E+00 -0.31980990257E-01 -0.45605814169E-01  0.13902883389E+00  0.18200466610E-01 0.  0.
         14    1    1    2    0    0 -0.52845822297E-02 -0.98845500567E-02  0.72342754250E-02  0.13340385305E-01  0.00000000000E+00 0. -1.
     999901    1    3    3    0    0  0.13136029617E+00  0.41865540313E-01  0.38371538744E-01  0.89156078080E+00  0.88000000000E+00 0. -1.
        -11    1    4    4    0    0 -0.76803439335E-01 -0.27834187253E-01 -0.24734743169E-01  0.85355602712E-01  0.51100000000E-03 0. -1.
         11    1    4    4    0    0 -0.49272274605E-01 -0.41468030039E-02 -0.20871071000E-01  0.53673231183E-01  0.51100000000E-03 0.  1.
</event>
<event>
 8    1  0.1094829E+005  0.1043930E+01  0.7957747E-01            NaN
         13   -1    0    0    0    0  0.00000000000E+00  0.00000000000E+00  0.74505805969E-08  0.10566000000E+00  0.10566000000E+00 0. -1.
     999900   -1    0    0    0    0 -0.00000000000E+00 -0.00000000000E+00 -0.74505805969E-08  0.93827000000E+00  0.93827000000E+00 0.  1.
     999902    2    1    2    0    0 -0.16098103336E-01 -0.41902050737E-03  0.23618676979E-01  0.10153438773E+01  0.10149413888E+01 0.  0.
     999903    2    3    3    0    0  0.62850265764E-01 -0.76098911039E-01 -0.71538811571E-01  0.12348332853E+00  0.19726395912E-01 0.  0.
         14    1    1    2    0    0  0.16098103336E-01  0.41902050737E-03 -0.23618676979E-01  0.28586122707E-01  0.00000000000E+00 0.  1.
     999901    1    3    3    0    0 -0.78948369100E-01  0.75679890532E-01  0.95157488550E-01  0.89186054876E+00  0.88000000000E+00 0.  1.
        -11    1    4    4    0    0  0.32083702942E-01 -0.44534148022E-01 -0.50708813537E-01  0.74728168892E-01  0.51100000000E-03 0. -1.
         11    1    4    4    0    0  0.30766562822E-01 -0.31564763017E-01 -0.20829998034E-01  0.48755159638E-01  0.51100000000E-03 0.  1.
</event>
<event>
 8    1  0.1094829E+005  0.1043930E+01  0.7957747E-01            NaN
         13   -1    0    0    0    0  0.00000000000E+00  0.00000000000E+00  0.74505805969E-08  0.10566000000E+00  0.10566000000E+00 0.  1.
     999900   -1    0    0    0    0 -0.00000000000E+00 -0.00000000000E+00 -0.74505805969E-08  0.93827000000E+00  0.93827000000E+00 0.  1.
     999902    2    1    2    0    0 -0.19828114361E-01  0.33536817854E-02 -0.11467357204E-01  0.10207804518E+01  0.10205179220E+01 0.  0.
     999903    2    3    3    0    0  0.12487454068E+00  0.18048126607E-01 -0.75495296801E-02  0.12883306857E+00  0.24931473584E-01 0.  0.
         14    1    1    2    0    0  0.19828114361E-01 -0.33536817854E-02  0.11467357204E-01  0.23149548201E-01  0.00000000000E+00 0.  1.
     999901    1    3    3    0    0 -0.14470265504E+00 -0.14694444821E-01 -0.39178275240E-02  0.89194738323E+00  0.88000000000E+00 0.  1.
        -11    1    4    4    0    0  0.38382062289E-01  0.89345867446E-02 -0.13493307105E-01  0.41657412347E-01  0.51100000000E-03 0. -1.
         11    1    4    4    0    0  0.86492478386E-01  0.91135398619E-02  0.59437774246E-02  0.87175656220E-01  0.51100000000E-03 0.  1.
</event>
<event>
 8    1  0.1094829E+005  0.1043930E+01  0.7957747E-01            NaN
         13   -1    0    0    0    0  0.00000000000E+00  0.00000000000E+00  0.74505805969E-08  0.10566000000E+00  0.10566000000E+00 0. -1.
     999900   -1    0    0    0    0 -0.00000000000E+00 -0.00000000000E+00 -0.74505805969E-08  0.93827000000E+00  0.93827000000E+00 0.  1.
     999902    2    1    2    0    0 -0.10471758962E-01  0.12156766715E-01  0.17093169670E-01  0.10204859994E+01  0.10202166701E+01 0.  0.
     999903    2    3    3    0    0  0.36564059286E-01  0.12465350997E+00  0.13161936183E-01  0.13206980191E+00  0.19843589207E-01 0.  0.
         14    1    1    2    0    0  0.10471758962E-01 -0.12156766715E-01 -0.17093169670E-01  0.23444000557E-01  0.00000000000E+00 0. -1.
     999901    1    3    3    0    0 -0.47035818248E-01 -0.11249674326E+00  0.39312334872E-02  0.88841619753E+00  0.88000000000E+00 0. -1.
        -11    1    4    4    0    0  0.33556800133E-01  0.81708930632E-01  0.10100361077E-01  0.88908304421E-01  0.51100000000E-03 0. -1.
         11    1    4    4    0    0  0.30072591523E-02  0.42944579341E-01  0.30615751063E-02  0.43161497489E-01  0.51100000000E-03 0.  1.
</event>
<event>
 8    1  0.1094829E+005  0.1043930E+01  0.7957747E-01            NaN
         13   -1    0    0    0    0  0.00000000000E+00  0.00000000000E+00  0.74505805969E-08  0.10566000000E+00  0.10566000000E+00 0.  1.
     999900   -1    0    0    0    0 -0.00000000000E+00 -0.00000000000E+00 -0.74505805969E-08  0.93827000000E+00  0.93827000000E+00 0. -1.
     999902    2    1    2    0    0 -0.17937356395E-01 -0.74993602455E-02  0.14258637837E-01  0.10198198795E+01  0.10195348394E+01 0.  0.
     999903    2    3    3    0    0  0.13546687348E-01  0.11346912427E+00  0.58422865783E-01  0.12989005175E+00  0.19985979995E-01 0.  0.
         14    1    1    2    0    0  0.17937356395E-01  0.74993602455E-02 -0.14258637837E-01  0.24110120520E-01  0.00000000000E+00 0. -1.
     999901    1    3    3    0    0 -0.31484043743E-01 -0.12096848451E+00 -0.44164227945E-01  0.88992982773E+00  0.88000000000E+00 0. -1.
        -11    1    4    4    0    0  0.13119050883E-01  0.96112982023E-01  0.41080783391E-01  0.10534565342E+00  0.51100000000E-03 0.  1.
         11    1    4    4    0    0  0.42763646479E-03  0.17356142246E-01  0.17342082392E-01  0.24544398328E-01  0.51100000000E-03 0. -1.
</event>
<event>
 8    1  0.1094829E+005  0.1043930E+01  0.7957747E-01            NaN
         13   -1    0    0    0    0  0.00000000000E+00  0.00000000000E+00  0.74505805969E-08  0.10566000000E+00  0.10566000000E+00 0. -1.
     999900   -1    0    0    0    0 -0.00000000000E+00 -0.00000000000E+00 -0.74505805969E-08  0.93827000000E+00  0.93827000000E+00 0.  1.
     999902    2    1    2    0    0  0.20477648858E-01  0.21602850523E-01  0.15096855966E-01  0.10105543755E+01  0.10100030760E+01 0.  0.
     999903    2    3    3    0    0 -0.83177237265E-01  0.76304289290E-02 -0.81969041103E-01  0.11906048745E+00  0.21904331258E-01 0.  0.
         14    1    1    2    0    0 -0.20477648858E-01 -0.21602850523E-01 -0.15096855966E-01  0.33375624542E-01  0.00000000000E+00 0.  1.
     999901    1    3    3    0    0  0.10365488612E+00  0.13972421594E-01  0.97065897069E-01  0.89149388801E+00  0.88000000000E+00 0.  1.
        -11    1    4    4    0    0 -0.20973056755E-01 -0.45251200241E-02 -0.11756075144E-01  0.24470640463E-01  0.51100000000E-03 0.  1.
         11    1    4    4    0    0 -0.62204180510E-01  0.12155548953E-01 -0.70212965960E-01  0.94589846987E-01  0.51100000000E-03 0. -1.
</event>
<event>
 8    1  0.1094829E+005  0.1043930E+01  0.7957747E-01            NaN
         13   -1    0    0    0    0  0.00000000000E+00  0.00000000000E+00  0.74505805969E-08  0.10566000000E+00  0.10566000000E+00 0.  1.
     999900   -1    0    0    0    0 -0.00000000000E+00 -0.00000000000E+00 -0.74505805969E-08  0.93827000000E+00  0.93827000000E+00 0. -1.
     999902    2    1    2    0    0 -0.68280920610E-02  0.31811262974E-02 -0.22855293569E-01  0.10198653610E+01  0.10195814081E+01 0.  0.
     999903    2    3    3    0    0  0.36270513273E-01  0.59551440411E-01  0.10475391695E+00  0.12783441272E+00  0.22501772606E-01 0.  0.
         14    1    1    2    0    0  0.68280920610E-02 -0.31811262974E-02  0.22855293569E-01  0.24064638993E-01  0.00000000000E+00 0.  1.
     999901    1    3    3    0    0 -0.43098605334E-01 -0.56370314113E-01 -0.12760921052E+00  0.89203094829E+00  0.88000000000E+00 0. -1.
        -11    1    4    4    0    0  0.30370240202E-01  0.29790533009E-01  0.67453990962E-01  0.79750419213E-01  0.51100000000E-03 0.  1.
         11    1    4    4    0    0  0.59002730709E-02  0.29760907402E-01  0.37299925989E-01  0.48083993506E-01  0.51100000000E-03 0. -1.
</event>
<event>
 8    1  0.1094829E+005  0.1043930E+01  0.7957747E-01            NaN
         13   -1    0    0    0    0  0.00000000000E+00  0.00000000000E+00  0.74505805969E-08  0.10566000000E+00  0.10566000000E+00 0.  1.
     999900   -1    0    0    0    0 -0.00000000000E+00 -0.00000000000E+00 -0.74505805969E-08  0.93827000000E+00  0.93827000000E+00 0.  1.
     999902    2    1    2    0    0  0.20776557079E-02  0.21487761199E-01 -0.73745170729E-02  0.10211171958E+01  0.10208623333E+01 0.  0.
     999903    2    3    3    0    0  0.60726444695E-01  0.54773079414E-01 -0.10220434999E+00  0.13345718762E+00  0.26024996811E-01 0.  0.
         14    1    1    2    0    0 -0.20776557079E-02 -0.21487761199E-01  0.73745170729E-02  0.22812804226E-01  0.00000000000E+00 0.  1.
     999901    1    3    3    0    0 -0.58648788987E-01 -0.33285318215E-01  0.94829832913E-01  0.88766000815E+00  0.88000000000E+00 0. -1.
        -11    1    4    4    0    0  0.54780415167E-01  0.35235958082E-01 -0.73251884095E-01  0.98023294539E-01  0.51100000000E-03 0.  1.
         11    1    4    4    0    0  0.59460295280E-02  0.19537121332E-01 -0.28952465891E-01  0.35433893086E-01  0.51100000000E-03 0. -1.
</event>
<event>
 8    1  0.1094829E+005  0.1043930E+01  0.7957747E-01            NaN
         13   -1    0    0    0    0  0.00000000000E+00  0.00000000000E+00  0.74505805969E-08  0.10566000000E+00  0.10566000000E+00 0.  1.
     999900   -1    0    0    0    0 -0.00000000000E+00 -0.00000000000E+00 -0.74505805969E-08  0.93827000000E+00  0.93827000000E+00 0.  1.
     999902    2    1    2    0    0  0.18275495205E-02 -0.70159367074E-02 -0.23778692430E-01  0.10190706050E+01  0.10187673476E+01 0.  0.
     999903    2    3    3    0    0  0.68200600225E-01 -0.18503392514E-01  0.10421791343E+00  0.12726318488E+00  0.18462051345E-01 0.  0.
         14    1    1    2    0    0 -0.18275495205E-02  0.70159367074E-02  0.23778692430E-01  0.24859394980E-01  0.00000000000E+00 0.  1.
     999901    1    3    3    0    0 -0.66373050705E-01  0.11487455807E-01 -0.12799660586E+00  0.89180742014E+00  0.88000000000E+00 0.  1.
        -11    1    4    4    0    0  0.19484713653E-01  0.14122376376E-02  0.20083619689E-01  0.28022515627E-01  0.51100000000E-03 0. -1.
         11    1    4    4    0    0  0.48715886572E-01 -0.19915630152E-01  0.84134293746E-01  0.99240669254E-01  0.51100000000E-03 0.  1.
</event>
<event>
 8    1  0.1094829E+005  0.1043930E+01  0.7957747E-01            NaN
         13   -1    0    0    0    0  0.00000000000E+00  0.00000000000E+00  0.74505805969E-08  0.10566000000E+00  0.10566000000E+00 0.  1.
     999900   -1    0    0    0    0 -0.00000000000E+00 -0.00000000000E+00 -0.74505805969E-08  0.93827000000E+00  0.93827000000E+00 0.  1.
     999902    2    1    2    0    0  0.92770586402E-02  0.74735747634E-02 -0.22751352839E-01  0.10182484464E+01  0.10179245338E+01 0.  0.
     999903    2    3    3    0    0  0.29212981827E-01 -0.12045770146E+00  0.20145250845E-01  0.12774074234E+00  0.23418154813E-01 0.  0.
         14    1    1    2    0    0 -0.92770586402E-02 -0.74735747634E-02  0.22751352839E-01  0.25681553550E-01  0.00000000000E+00 0.  1.
     999901    1    3    3    0    0 -0.19935923186E-01  0.12793127622E+00 -0.42896603684E-01  0.89050770411E+00  0.88000000000E+00 0.  1.
        -11    1    4    4    0    0  0.31017375220E-01 -0.86652518508E-01  0.11164195223E-01  0.92712657740E-01  0.51100000000E-03 0. -1.
         11    1    4    4    0    0 -0.18043933933E-02 -0.33805182949E-01  0.89810556218E-02  0.35028084601E-01  0.51100000000E-03 0.  1.
</event>
<event>
 8    1  0.1094829E+005  0.1043930E+01  0.7957747E-01            NaN
         13   -1    0    0    0    0  0.00000000000E+00  0.00000000000E+00  0.74505805969E-08  0.10566000000E+00  0.10566000000E+00 0.  1.
     999900   -1    0    0    0    0 -0.00000000000E+00 -0.00000000000E+00 -0.74505805969E-08  0.93827000000E+00  0.93827000000E+00 0. -1.
     999902    2    1    2    0    0  0.85804464697E-02  0.21800203168E-01  0.18458488203E-02  0.10204293601E+01  0.10201587126E+01 0.  0.
     999903    2    3    3    0    0  0.26293146078E-01 -0.28576483319E-01  0.12298713570E+00  0.13052669029E+00  0.20085726319E-01 0.  0.
         14    1    1    2    0    0 -0.85804464697E-02 -0.21800203168E-01 -0.18458488203E-02  0.23500639941E-01  0.00000000000E+00 0.  1.
     999901    1    3    3    0    0 -0.17712699609E-01  0.50376686486E-01 -0.12114128688E+00  0.88990266977E+00  0.88000000000E+00 0. -1.
        -11    1    4    4    0    0  0.40596828939E-02 -0.17223760137E-01  0.37519263283E-01  0.41486084134E-01  0.51100000000E-03 0. -1.
         11    1    4    4    0    0  0.22233463184E-01 -0.11352723181E-01  0.85467872416E-01  0.89040606159E-01  0.51100000000E-03 0.  1.
</event>
<event>
 8    1  0.1094829E+005  0.1043930E+01  0.7957747E-01            NaN
         13   -1    0    0    0    0  0.00000000000E+00  0.00000000000E+00  0.74505805969E-08  0.10566000000E+00  0.10566000000E+00 0.  1.
     999900   -1    0    0    0    0 -0.00000000000E+00 -0.00000000000E+00 -0.74505805969E-08  0.93827000000E+00  0.93827000000E+00 0. -1.
     999902    2    1    2    0    0  0.14099347459E-01 -0.16860100788E-01 -0.85421254855E-02  0.10203498705E+01  0.10200773676E+01 0.  0.
     999903    2    3    3    0    0  0.86861746150E-01  0.40296316481E-01  0.86232903005E-01  0.13043778010E+00  0.20227329280E-01 0.  0.
         14    1    1    2    0    0 -0.14099347459E-01  0.16860100788E-01  0.85421254855E-02  0.23580129456E-01  0.00000000000E+00 0.  1.
     999901    1    3    3    0    0 -0.72762398691E-01 -0.57156417269E-01 -0.94775028491E-01  0.88991209045E+00  0.88000000000E+00 0. -1.
        -11    1    4    4    0    0  0.15376946124E-01  0.13914223667E-01  0.26279288902E-01  0.33480117063E-01  0.51100000000E-03 0.  1.
         11    1    4    4    0    0  0.71484800026E-01  0.26382092814E-01  0.59953614103E-01  0.96957663034E-01  0.51100000000E-03 0. -1.
</event>
<event>
 8    1  0.1094829E+005  0.1043930E+01  0.7957747E-01            NaN
         13   -1    0    0    0    0  0.00000000000E+00  0.00000000000E+00  0.74505805969E-08  0.10566000000E+00  0.10566000000E+00 0. -1.
     999900   -1    0    0    0    0 -0.00000000000E+00 -0.00000000000E+00 -0.74505805969E-08  0.93827000000E+00  0.93827000000E+00 0. -1.
     999902    2    1    2    0    0 -0.16771672280E-01  0.56202259229E-02 -0.20529751661E-01  0.10168311691E+01  0.10164700094E+01 0.  0.
     999903    2    3    3    0    0 -0.39481251991E-01  0.12086021100E+00 -0.62218231954E-02  0.12891186201E+00  0.20337089744E-01 0.  0.
         14    1    1    2    0    0  0.16771672280E-01 -0.56202259229E-02  0.20529751661E-01  0.27098830856E-01  0.00000000000E+00 0.  1.
     999901    1    3    3    0    0  0.22709579711E-01 -0.11523998508E+00 -0.14307928466E-01  0.88791930714E+00  0.88000000000E+00 0.  1.
        -11    1    4    4    0    0 -0.12925168708E-01  0.20793800281E-01 -0.66641687005E-02  0.25379408617E-01  0.51100000000E-03 0. -1.
         11    1    4    4    0    0 -0.26556083283E-01  0.10006641072E+00  0.44234550512E-03  0.10353245339E+00  0.51100000000E-03 0.  1.
</event>
<event>
 8    1  0.1094829E+005  0.1043930E+01  0.7957747E-01            NaN
         13   -1    0    0    0    0  0.00000000000E+00  0.00000000000E+00  0.74505805969E-08  0.10566000000E+00  0.10566000000E+00 0.  1.
     999900   -1    0    0    0    0 -0.00000000000E+00 -0.00000000000E+00 -0.74505805969E-08  0.93827000000E+00  0.93827000000E+00 0.  1.
     999902    2    1    2    0    0  0.16503632148E-01 -0.35785507868E-02  0.18822392772E-01  0.10186424859E+01  0.10183285598E+01 0.  0.
     999903    2    3    3    0    0 -0.53598064457E-01  0.94014406255E-01  0.67474112163E-01  0.12914508684E+00  0.20352801907E-01 0.  0.
         14    1    1    2    0    0 -0.16503632148E-01  0.35785507868E-02 -0.18822392772E-01  0.25287514102E-01  0.00000000000E+00 0. -1.
     999901    1    3    3    0    0  0.70101696605E-01 -0.97592957042E-01 -0.48651719391E-01  0.88949739906E+00  0.88000000000E+00 0.  1.
        -11    1    4    4    0    0 -0.28758744840E-01  0.37776848738E-01  0.38745032279E-01  0.61282904245E-01  0.51100000000E-03 0. -1.
         11    1    4    4    0    0 -0.24839319618E-01  0.56237557517E-01  0.28729079884E-01  0.67862182595E-01  0.51100000000E-03 0.  1.
</event>
<event>
 8    1  0.1094829E+005  0.1043930E+01  0.7957747E-01            NaN
         13   -1    0    0    0    0  0.00000000000E+00  0.00000000000E+00  0.74505805969E-08  0.10566000000E+00  0.10566000000E+00 0. -1.
     999900   -1    0    0    0    0 -0.00000000000E+00 -0.00000000000E+00 -0.74505805969E-08  0.93827000000E+00  0.93827000000E+00 0.  1.
     999902    2    1    2    0    0 -0.17635362216E-01 -0.18556718131E-01 -0.22882007387E-02  0.10182279835E+01  0.10179035479E+01 0.  0.
     999903    2    3    3    0    0  0.13998608054E-01  0.10092903449E+00 -0.72907844184E-01  0.12678831243E+00  0.19418841240E-01 0.  0.
         14    1    1    2    0    0  0.17635362216E-01  0.18556718131E-01  0.22882007387E-02  0.25702016475E-01  0.00000000000E+00 0. -1.
     999901    1    3    3    0    0 -0.31633970270E-01 -0.11948575262E+00  0.70619643445E-01  0.89143967109E+00  0.88000000000E+00 0. -1.
        -11    1    4    4    0    0  0.11024367649E-01  0.31285265251E-01 -0.31277749863E-01  0.45594552979E-01  0.51100000000E-03 0. -1.
         11    1    4    4    0    0  0.29742404056E-02  0.69643769241E-01 -0.41630094321E-01  0.81193759454E-01  0.51100000000E-03 0.  1.
</event>
<event>
 8    1  0.1094829E+005  0.1043930E+01  0.7957747E-01            NaN
         13   -1    0    0    0    0  0.00000000000E+00  0.00000000000E+00  0.74505805969E-08  0.10566000000E+00  0.10566000000E+00 0. -1.
     999900   -1    0    0    0    0 -0.00000000000E+00 -0.00000000000E+00 -0.74505805969E-08  0.93827000000E+00  0.93827000000E+00 0.  1.
     999902    2    1    2    0    0 -0.79705758462E-02  0.82673748930E-02  0.22949784797E-01  0.10182673386E+01  0.10179439084E+01 0.  0.
     999903    2    3    3    0    0 -0.68966663969E-01 -0.13634550159E-01  0.10922159310E+00  0.13167665403E+00  0.21612105863E-01 0.  0.
         14    1    1    2    0    0  0.79705758462E-02 -0.82673748930E-02 -0.22949784797E-01  0.25662661381E-01  0.00000000000E+00 0.  1.
     999901    1    3    3    0    0  0.60996088123E-01  0.21901925052E-01 -0.86271808307E-01  0.88659068459E+00  0.88000000000E+00 0.  1.
        -11    1    4    4    0    0 -0.57561180909E-01 -0.25258248101E-02  0.85675852730E-01  0.10324864261E+00  0.51100000000E-03 0. -1.
         11    1    4    4    0    0 -0.11405483060E-01 -0.11108725349E-01  0.23545740374E-01  0.28428011423E-01  0.51100000000E-03 0.  1.
</event>
<event>
 8    1  0.1094829E+005  0.1043930E+01  0.7957747E-01            NaN
         13   -1    0    0    0    0  0.00000000000E+00  0.00000000000E+00  0.74505805969E-08  0.10566000000E+00  0.10566000000E+00 0. -1.
     999900   -1    0    0    0    0 -0.00000000000E+00 -0.00000000000E+00 -0.74505805969E-08  0.93827000000E+00  0.93827000000E+00 0. -1.
     999902    2    1    2    0    0 -0.43895908513E-02  0.37382236948E-02  0.24103545925E-01  0.10191464621E+01  0.10188450753E+01 0.  0.
     999903    2    3    3    0    0  0.63707236424E-01 -0.57565615706E-01  0.97349097542E-01  0.13136256417E+00  0.20170879713E-01 0.  0.
         14    1    1    2    0    0  0.43895908513E-02 -0.37382236948E-02 -0.24103545925E-01  0.24783537891E-01  0.00000000000E+00 0.  1.
     999901    1    3    3    0    0 -0.68096827275E-01  0.61303839401E-01 -0.73245551617E-01  0.88778389794E+00  0.88000000000E+00 0. -1.
        -11    1    4    4    0    0  0.39087099962E-01 -0.21748117771E-01  0.49053940460E-01  0.66387741382E-01  0.51100000000E-03 0. -1.
         11    1    4    4    0    0  0.24620136461E-01 -0.35817497935E-01  0.48295157082E-01  0.64974822787E-01  0.51100000000E-03 0.  1.
</event>
<event>
 8    1  0.1094829E+005  0.1043930E+01  0.7957747E-01            NaN
         13   -1    0    0    0    0  0.00000000000E+00  0.00000000000E+00  0.74505805969E-08  0.10566000000E+00  0.10566000000E+00 0.  1.
     999900   -1    0    0    0    0 -0.00000000000E+00 -0.00000000000E+00 -0.74505805969E-08  0.93827000000E+00  0.93827000000E+00 0.  1.
     999902    2    1    2    0    0 -0.52239488586E-02 -0.12201570164E-01  0.18918791445E-01  0.10208196425E+01  0.10205580110E+01 0.  0.
     999903    2    3    3    0    0  0.45148570387E-01  0.11955587444E+00  0.88608119577E-02  0.12952924205E+00  0.19165334206E-01 0.  0.
         14    1    1    2    0    0  0.52239488586E-02  0.12201570164E-01 -0.18918791445E-01  0.23110357545E-01  0.00000000000E+00 0. -1.
     999901    1    3    3    0    0 -0.50372519245E-01 -0.13175744461E+00  0.10057979487E-01  0.89129040041E+00  0.88000000000E+00 0. -1.
        -11    1    4    4    0    0  0.22508391606E-01  0.66829150745E-01 -0.43159777790E-02  0.70651623245E-01  0.51100000000E-03 0.  1.
         11    1    4    4    0    0  0.22640178781E-01  0.52726723699E-01  0.13176789737E-01  0.58877618804E-01  0.51100000000E-03 0. -1.
</event>
<event>
 8    1  0.1094829E+005  0.1043930E+01  0.7957747E-01            NaN
         13   -1    0    0    0    0  0.00000000000E+00  0.00000000000E+00  0.74505805969E-08  0.10566000000E+00  0.10566000000E+00 0.  1.
     999900   -1    0    0    0    0 -0.00000000000E+00 -0.00000000000E+00 -0.74505805969E-08  0.93827000000E+00  0.93827000000E+00 0. -1.
     999902    2    1    2    0    0  0.65099782535E-02  0.23698947151E-01  0.21227455991E-01  0.10114550127E+01  0.10109335378E+01 0.  0.
     999903    2    3    3    0    0  0.89327781655E-01  0.39805387866E-01 -0.71654314131E-01  0.12255387690E+00  0.17921789261E-01 0.  0.
         14    1    1    2    0    0 -0.65099782535E-02 -0.23698947151E-01 -0.21227455991E-01  0.32474987310E-01  0.00000000000E+00 0. -1.
     999901    1    3    3    0    0 -0.82817803402E-01 -0.16106440714E-01  0.92881770122E-01  0.88890113579E+00  0.88000000000E+00 0.  1.
        -11    1    4    4    0    0  0.54857318155E-01  0.19602951646E-01 -0.32975242962E-01  0.66941981131E-01  0.51100000000E-03 0.  1.
         11    1    4    4    0    0  0.34470463500E-01  0.20202436220E-01 -0.38679071169E-01  0.55611895766E-01  0.51100000000E-03 0. -1.
</event>
<event>
 8    1  0.1094829E+005  0.1043930E+01  0.7957747E-01            NaN
         13   -1    0    0    0    0  0.00000000000E+00  0.00000000000E+00  0.74505805969E-08  0.10566000000E+00  0.10566000000E+00 0. -1.
     999900   -1    0    0    0    0 -0.00000000000E+00 -0.00000000000E+00 -0.74505805969E-08  0.93827000000E+00  0.93827000000E+00 0. -1.
     999902    2    1    2    0    0 -0.78959659503E-02  0.21289753274E-01 -0.82084936188E-02  0.10197850370E+01  0.10194991625E+01 0.  0.
     999903    2    3    3    0    0 -0.12287296496E+00 -0.13257575782E-01 -0.39033423214E-01  0.13109870054E+00  0.19741639319E-01 0.  0.
         14    1    1    2    0    0  0.78959659503E-02 -0.21289753274E-01  0.82084936188E-02  0.24144963041E-01  0.00000000000E+00 0.  1.
     999901    1    3    3    0    0  0.11497699901E+00  0.34547329056E-01  0.30824929595E-01  0.88868633641E+00  0.88000000000E+00 0.  1.
        -11    1    4    4    0    0 -0.37560446898E-01  0.50232403499E-02 -0.11338933506E-01  0.39558218474E-01  0.51100000000E-03 0.  1.
         11    1    4    4    0    0 -0.85312518062E-01 -0.18280816132E-01 -0.27694489708E-01  0.91540482070E-01  0.51100000000E-03 0. -1.
</event>
<event>
 8    1  0.1094829E+005  0.1043930E+01  0.7957747E-01            NaN
         13   -1    0    0    0    0  0.00000000000E+00  0.00000000000E+00  0.74505805969E-08  0.10566000000E+00  0.10566000000E+00 0. -1.
     999900   -1    0    0    0    0 -0.00000000000E+00 -0.00000000000E+00 -0.74505805969E-08  0.93827000000E+00  0.93827000000E+00 0.  1.
     999902    2    1    2    0    0 -0.19907657626E-01  0.10469375816E-01 -0.43421170646E-02  0.10210219961E+01  0.10207649778E+01 0.  0.
     999903    2    3    3    0    0 -0.12698024917E+00 -0.18566245549E-01 -0.31582329463E-01  0.13363840579E+00  0.19826517971E-01 0.  0.
         14    1    1    2    0    0  0.19907657626E-01 -0.10469375816E-01  0.43421170646E-02  0.22908003901E-01  0.00000000000E+00 0. -1.
     999901    1    3    3    0    0  0.10707259155E+00  0.29035621365E-01  0.27240212399E-01  0.88738359030E+00  0.88000000000E+00 0.  1.
        -11    1    4    4    0    0 -0.92804710073E-01 -0.22357377628E-01 -0.22829617480E-01  0.98153039186E-01  0.51100000000E-03 0.  1.
         11    1    4    4    0    0 -0.34175539101E-01  0.37911320790E-02 -0.87527119836E-02  0.35485366609E-01  0.51100000000E-03 0. -1.
</event>
<event>
 8    1  0.1094829E+005  0.1043930E+01  0.7957747E-01            NaN
         13   -1    0    0    0    0  0.00000000000E+00  0.00000000000E+00  0.74505805969E-08  0.10566000000E+00  0.10566000000E+00 0. -1.
     999900   -1    0    0    0    0 -0.00000000000E+00 -0.00000000000E+00 -0.74505805969E-08  0.93827000000E+00  0.93827000000E+00 0.  1.
     999902    2    1    2    0    0 -0.18128420479E-02  0.16536136065E-01 -0.96996708964E-02  0.10246734736E+01  0.10244925152E+01 0.  0.
     999903    2    3    3    0    0 -0.11515237174E+00 -0.15025083170E-02 -0.68225385362E-01  0.13529363299E+00  0.19680896115E-01 0.  0.
         14    1    1    2    0    0  0.18128420479E-02 -0.16536136065E-01  0.96996708964E-02  0.19256526368E-01  0.00000000000E+00 0. -1.
     999901    1    3    3    0    0  0.11333952969E+00  0.18038644382E-01  0.58525714465E-01  0.88937984064E+00  0.88000000000E+00 0. -1.
        -11    1    4    4    0    0 -0.76227973341E-01  0.67444488586E-02 -0.38783100493E-01  0.85793831450E-01  0.51100000000E-03 0.  1.
         11    1    4    4    0    0 -0.38924398399E-01 -0.82469571757E-02 -0.29442284869E-01  0.49499801542E-01  0.51100000000E-03 0. -1.
</event>
<event>
 8    1  0.1094829E+005  0.1043930E+01  0.7957747E-01            NaN
         13   -1    0    0    0    0  0.00000000000E+00  0.00000000000E+00  0.74505805969E-08  0.10566000000E+00  0.10566000000E+00 0.  1.
     999900   -1    0    0    0    0 -0.00000000000E+00 -0.00000000000E+00 -0.74505805969E-08  0.93827000000E+00  0.93827000000E+00 0.  1.
     999902    2    1    2    0    0 -0.60361779461E-02 -0.18272291223E-01 -0.11898918757E-01  0.10213048737E+01  0.10210542340E+01 0.  0.
     999903    2    3    3    0    0  0.49896163213E-01  0.11318827292E+00 -0.33591645282E-01  0.12951965235E+00  0.18593802228E-01 0.  0.
         14    1    1    2    0    0  0.60361779461E-02  0.18272291223E-01  0.11898918757E-01  0.22625126261E-01  0.00000000000E+00 0.  1.
     999901    1    3    3    0    0 -0.55932341159E-01 -0.13146056414E+00  0.21692726525E-01  0.89178522139E+00  0.88000000000E+00 0. -1.
        -11    1    4    4    0    0  0.42446267712E-01  0.76515887059E-01 -0.26517738895E-01  0.91432041496E-01  0.51100000000E-03 0.  1.
         11    1    4    4    0    0  0.74498955006E-02  0.36672385860E-01 -0.70739063870E-02  0.38087610849E-01  0.51100000000E-03 0. -1.
</event>
<event>
 8    1  0.1094829E+005  0.1043930E+01  0.7957747E-01            NaN
         13   -1    0    0    0    0  0.00000000000E+00  0.00000000000E+00  0.74505805969E-08  0.10566000000E+00  0.10566000000E+00 0.  1.
     999900   -1    0    0    0    0 -0.00000000000E+00 -0.00000000000E+00 -0.74505805969E-08  0.93827000000E+00  0.93827000000E+00 0. -1.
     999902    2    1    2    0    0  0.22874182286E-01  0.47523310226E-02 -0.29443901754E-02  0.10203825522E+01  0.10201108128E+01 0.  0.
     999903    2    3    3    0    0 -0.52428990357E-02 -0.84474986222E-01 -0.97104677929E-01  0.13042848359E+00  0.20463615732E-01 0.  0.
         14    1    1    2    0    0 -0.22874182286E-01 -0.47523310226E-02  0.29443901754E-02  0.23547447822E-01  0.00000000000E+00 0. -1.
     999901    1    3    3    0    0  0.28117081322E-01  0.89227317244E-01  0.94160287753E-01  0.88995406859E+00  0.88000000000E+00 0.  1.
        -11    1    4    4    0    0  0.21460056409E-02 -0.22451844472E-01 -0.14316269809E-01  0.26719044943E-01  0.51100000000E-03 0. -1.
         11    1    4    4    0    0 -0.73889046767E-02 -0.62023141750E-01 -0.82788408119E-01  0.10370943865E+00  0.51100000000E-03 0.  1.
</event>
<event>
 8    1  0.1094829E+005  0.1043930E+01  0.7957747E-01            NaN
         13   -1    0    0    0    0  0.00000000000E+00  0.00000000000E+00  0.74505805969E-08  0.10566000000E+00  0.10566000000E+00 0.  1.
     999900   -1    0    0    0    0 -0.00000000000E+00 -0.00000000000E+00 -0.74505805969E-08  0.93827000000E+00  0.93827000000E+00 0.  1.
     999902    2    1    2    0    0 -0.16819635061E-03 -0.22234057941E-01 -0.53273693561E-02  0.10210660002E+01  0.10208099795E+01 0.  0.
     999903    2    3    3    0    0  0.11950613781E+00 -0.40849706949E-01 -0.34187486371E-01  0.13230202985E+00  0.19611918439E-01 0.  0.
         14    1    1    2    0    0  0.16819635061E-03  0.22234057941E-01  0.53273693561E-02  0.22863999798E-01  0.00000000000E+00 0. -1.
     999901    1    3    3    0    0 -0.11967433416E+00  0.18615649008E-01  0.28860117015E-01  0.88876397035E+00  0.88000000000E+00 0. -1.
        -11    1    4    4    0    0  0.43576768830E-01 -0.24241771892E-01 -0.96392525452E-02  0.50791481538E-01  0.51100000000E-03 0.  1.
         11    1    4    4    0    0  0.75929368982E-01 -0.16607935056E-01 -0.24548233826E-01  0.81510548310E-01  0.51100000000E-03 0. -1.
</event>
<event>
 8    1  0.1094829E+005  0.1043930E+01  0.7957747E-01            NaN
         13   -1    0    0    0    0  0.00000000000E+00  0.00000000000E+00  0.74505805969E-08  0.10566000000E+00  0.10566000000E+00 0.  1.
     999900   -1    0    0    0    0 -0.00000000000E+00 -0.00000000000E+00 -0.74505805969E-08  0.93827000000E+00  0.93827000000E+00 0. -1.
     999902    2    1    2    0    0  0.17442095031E-01  0.56102104137E-02 -0.15819313504E-01  0.10197235583E+01  0.10194362087E+01 0.  0.
     999903    2    3    3    0    0 -0.11845428763E+00 -0.36925112713E-01  0.23648237031E-01  0.12740367839E+00  0.16660610628E-01 0.  0.
         14    1    1    2    0    0 -0.17442095031E-01 -0.56102104137E-02  0.15819313504E-01  0.24206441698E-01  0.00000000000E+00 0. -1.
     999901    1    3    3    0    0  0.13589638266E+00  0.42535323127E-01 -0.39467550535E-01  0.89231987991E+00  0.88000000000E+00 0. -1.
        -11    1    4    4    0    0 -0.50692252581E-01 -0.23339847167E-01  0.14710734743E-01  0.57715853760E-01  0.51100000000E-03 0. -1.
         11    1    4    4    0    0 -0.67762035050E-01 -0.13585265546E-01  0.89375022882E-02  0.69687824634E-01  0.51100000000E-03 0.  1.
</event>
<event>
 8    1  0.1094829E+005  0.1043930E+01  0.7957747E-01            NaN
         13   -1    0    0    0    0  0.00000000000E+00  0.00000000000E+00  0.74505805969E-08  0.10566000000E+00  0.10566000000E+00 0. -1.
     999900   -1    0    0    0    0 -0.00000000000E+00 -0.00000000000E+00 -0.74505805969E-08  0.93827000000E+00  0.93827000000E+00 0. -1.
     999902    2    1    2    0    0 -0.45424788396E-02  0.22143246015E-02 -0.22611278389E-01  0.10207608986E+01  0.10204979201E+01 0.  0.
     999903    2    3    3    0    0  0.11218091682E+00  0.17025538961E-01  0.58476591415E-01  0.12923469835E+00  0.20190800852E-01 0.  0.
         14    1    1    2    0    0  0.45424788396E-02 -0.22143246015E-02  0.22611278389E-01  0.23169101360E-01  0.00000000000E+00 0. -1.
     999901    1    3    3    0    0 -0.11672339566E+00 -0.14811214359E-01 -0.81087869804E-01  0.89152620029E+00  0.88000000000E+00 0. -1.
        -11    1    4    4    0    0  0.91130573290E-02  0.25103144273E-02  0.11891116757E-01  0.15198989149E-01  0.51100000000E-03 0. -1.
         11    1    4    4    0    0  0.10306785949E+00  0.14515224533E-01  0.46585474658E-01  0.11403570921E+00  0.51100000000E-03 0.  1.
</event>
<event>
 8    1  0.1094829E+005  0.1043930E+01  0.7957747E-01            NaN
         13   -1    0    0    0    0  0.00000000000E+00  0.00000000000E+00  0.74505805969E-08  0.10566000000E+00  0.10566000000E+00 0. -1.
     999900   -1    0    0    0    0 -0.00000000000E+00 -0.00000000000E+00 -0.74505805969E-08  0.93827000000E+00  0.93827000000E+00 0. -1.
     999902    2    1    2    0    0  0.16315269033E-01 -0.17972353233E-01 -0.48258584766E-02  0.10191816183E+01  0.10188810965E+01 0.  0.
     999903    2    3    3    0    0  0.10824361889E+00 -0.59512024312E-01 -0.43859853588E-01  0.13255880195E+00  0.19743027868E-01 0.  0.
         14    1    1    2    0    0 -0.16315269033E-01  0.17972353233E-01  0.48258584766E-02  0.24748381652E-01  0.00000000000E+00 0. -1.
     999901    1    3    3    0    0 -0.91928349859E-01  0.41539671080E-01  0.39033995112E-01  0.88662281640E+00  0.88000000000E+00 0.  1.
        -11    1    4    4    0    0  0.39246855341E-01 -0.12857532251E-01 -0.20167664531E-01  0.45963328898E-01  0.51100000000E-03 0. -1.
         11    1    4    4    0    0  0.68996763551E-01 -0.46654492062E-01 -0.23692189058E-01  0.86595473054E-01  0.51100000000E-03 0.  1.
</event>
<event>
 8    1  0.1094829E+005  0.1043930E+01  0.7957747E-01            NaN
         13   -1    0    0    0    0  0.00000000000E+00  0.00000000000E+00  0.74505805969E-08  0.10566000000E+00  0.10566000000E+00 0.  1.
     999900   -1    0    0    0    0 -0.00000000000E+00 -0.00000000000E+00 -0.74505805969E-08  0.93827000000E+00  0.93827000000E+00 0.  1.
     999902    2    1    2    0    0 -0.17409306204E-01  0.29146942984E-02  0.15253972498E-01  0.10206005537E+01  0.10203338803E+01 0.  0.
     999903    2    3    3    0    0  0.98514478320E-01  0.81233895170E-01  0.92423904581E-02  0.12952908627E+00  0.19705690667E-01 0.  0.
         14    1    1    2    0    0  0.17409306204E-01 -0.29146942984E-02 -0.15253972498E-01  0.23329446250E-01  0.00000000000E+00 0.  1.
     999901    1    3    3    0    0 -0.11592378452E+00 -0.78319200872E-01  0.60115820402E-02  0.89107146748E+00  0.88000000000E+00 0.  1.
        -11    1    4    4    0    0  0.45537475412E-01  0.25945183934E-01  0.11690033569E-03  0.52412679983E-01  0.51100000000E-03 0. -1.
         11    1    4    4    0    0  0.52977002907E-01  0.55288711236E-01  0.91254901225E-02  0.77116406284E-01  0.51100000000E-03 0.  1.
</event>
<event>
 8    1  0.1094829E+005  0.1043930E+01  0.7957747E-01            NaN
         13   -1    0    0    0    0  0.00000000000E+00  0.00000000000E+00  0.74505805969E-08  0.10566000000E+00  0.10566000000E+00 0.  1.
     999900   -1    0    0    0    0 -0.00000000000E+00 -0.00000000000E+00 -0.74505805969E-08  0.93827000000E+00  0.93827000000E+00 0. -1.
     999902    2    1    2    0    0  0.21260277688E-01 -0.60000567234E-02  0.85886275980E-02  0.10202284260E+01  0.10199530756E+01 0.  0.
     999903    2    3    3    0    0  0.24567117431E-01 -0.93658037545E-01 -0.85794128246E-01  0.13084495333E+00  0.19606073383E-01 0.  0.
         14    1    1    2    0    0 -0.21260277688E-01  0.60000567234E-02 -0.85886275980E-02  0.23701574042E-01  0.00000000000E+00 0. -1.
     999901    1    3    3    0    0 -0.33068397424E-02  0.87657980822E-01  0.94382755844E-01  0.88938347263E+00  0.88000000000E+00 0.  1.
        -11    1    4    4    0    0  0.15110082556E-01 -0.30284591429E-01 -0.38113561232E-01  0.50974265504E-01  0.51100000000E-03 0.  1.
         11    1    4    4    0    0  0.94570348750E-02 -0.63373446117E-01 -0.47680567013E-01  0.79870687821E-01  0.51100000000E-03 0. -1.
</event>
<event>
 8    1  0.1094829E+005  0.1043930E+01  0.7957747E-01            NaN
         13   -1    0    0    0    0  0.00000000000E+00  0.00000000000E+00  0.74505805969E-08  0.10566000000E+00  0.10566000000E+00 0. -1.
     999900   -1    0    0    0    0 -0.00000000000E+00 -0.00000000000E+00 -0.74505805969E-08  0.93827000000E+00  0.93827000000E+00 0. -1.
     999902    2    1    2    0    0 -0.22177320327E-01  0.55945036328E-02  0.45000587959E-02  0.10206194329E+01  0.10203531959E+01 0.  0.
     999903    2    3    3    0    0 -0.11973816300E+00 -0.48945288701E-01  0.22998594615E-01  0.13335684339E+00  0.22852644516E-01 0.  0.
         14    1    1    2    0    0  0.22177320327E-01 -0.55945036328E-02 -0.45000587959E-02  0.23310567066E-01  0.00000000000E+00 0.  1.
     999901    1    3    3    0    0  0.97560842672E-01  0.54539792334E-01 -0.18498535819E-01  0.88726258954E+00  0.88000000000E+00 0.  1.
        -11    1    4    4    0    0 -0.40362846960E-01 -0.60254217561E-02  0.11409835313E-01  0.42378185249E-01  0.51100000000E-03 0.  1.
         11    1    4    4    0    0 -0.79375316038E-01 -0.42919866945E-01  0.11588759302E-01  0.90978658145E-01  0.51100000000E-03 0. -1.
</event>
<event>
 8    1  0.1094829E+005  0.1043930E+01  0.7957747E-01            NaN
         13   -1    0    0    0    0  0.00000000000E+00  0.00000000000E+00  0.74505805969E-08  0.10566000000E+00  0.10566000000E+00 0.  1.
     999900   -1    0    0    0    0 -0.00000000000E+00 -0.00000000000E+00 -0.74505805969E-08  0.93827000000E+00  0.93827000000E+00 0. -1.
     999902    2    1    2    0    0 -0.20436808894E-01 -0.11704850946E-01  0.58856448533E-03  0.10203712840E+01  0.10200992815E+01 0.  0.
     999903    2    3    3    0    0 -0.66756853612E-01 -0.75411407077E-01  0.84363964642E-01  0.13289036050E+00  0.19980279302E-01 0.  0.
         14    1    1    2    0    0  0.20436808894E-01  0.11704850946E-01 -0.58856448533E-03  0.23558716043E-01  0.00000000000E+00 0. -1.
     999901    1    3    3    0    0  0.46320044718E-01  0.63706556130E-01 -0.83775400157E-01  0.88748092346E+00  0.88000000000E+00 0. -1.
        -11    1    4    4    0    0 -0.42070051994E-01 -0.57139144218E-01  0.50035656472E-01  0.86825106486E-01  0.51100000000E-03 0. -1.
         11    1    4    4    0    0 -0.24686801618E-01 -0.18272262859E-01  0.34328308171E-01  0.46065254010E-01  0.51100000000E-03 0.  1.
</event>
<event>
 8    1  0.1094829E+005  0.1043930E+01  0.7957747E-01            NaN
         13   -1    0    0    0    0  0.00000000000E+00  0.00000000000E+00  0.74505805969E-08  0.10566000000E+00  0.10566000000E+00 0. -1.
     999900   -1    0    0    0    0 -0.00000000000E+00 -0.00000000000E+00 -0.74505805969E-08  0.93827000000E+00  0.93827000000E+00 0. -1.
     999902    2    1    2    0    0  0.11106610028E-02 -0.13474179156E-01  0.19721224720E-01  0.10200194631E+01  0.10197391781E+01 0.  0.
     999903    2    3    3    0    0 -0.90011509729E-01 -0.49521743725E-01  0.81245664394E-01  0.13244527823E+00  0.19657536939E-01 0.  0.
         14    1    1    2    0    0 -0.11106610028E-02  0.13474179156E-01 -0.19721224720E-01  0.23910536930E-01  0.00000000000E+00 0.  1.
     999901    1    3    3    0    0  0.91122170732E-01  0.36047564568E-01 -0.61524439674E-01  0.88757418484E+00  0.88000000000E+00 0. -1.
        -11    1    4    4    0    0 -0.25863277498E-01 -0.18020744627E-01  0.36029865287E-01  0.47875554028E-01  0.51100000000E-03 0. -1.
         11    1    4    4    0    0 -0.64148232231E-01 -0.31500999098E-01  0.45215799106E-01  0.84569724206E-01  0.51100000000E-03 0.  1.
</event>
<event>
 8    1  0.1094829E+005  0.1043930E+01  0.7957747E-01            NaN
         13   -1    0    0    0    0  0.00000000000E+00  0.00000000000E+00  0.74505805969E-08  0.10566000000E+00  0.10566000000E+00 0. -1.
     999900   -1    0    0    0    0 -0.00000000000E+00 -0.00000000000E+00 -0.74505805969E-08  0.93827000000E+00  0.93827000000E+00 0. -1.
     999902    2    1    2    0    0 -0.12073863675E-02  0.15913492748E-03 -0.20814271889E-01  0.10230801314E+01  0.10228676543E+01 0.  0.
     999903    2    3    3    0    0  0.87036195337E-01 -0.42308490398E-01  0.86376720046E-01  0.13118308710E+00  0.19564174291E-01 0.  0.
         14    1    1    2    0    0  0.12073863675E-02 -0.15913492748E-03  0.20814271889E-01  0.20849868585E-01  0.00000000000E+00 0. -1.
     999901    1    3    3    0    0 -0.88243581705E-01  0.42467625326E-01 -0.10719099193E+00  0.89189704432E+00  0.88000000000E+00 0. -1.
        -11    1    4    4    0    0  0.59495414192E-01 -0.25563008156E-01  0.45589256262E-01  0.79194779521E-01  0.51100000000E-03 0. -1.
         11    1    4    4    0    0  0.27540781145E-01 -0.16745482242E-01  0.40787463784E-01  0.51988307575E-01  0.51100000000E-03 0.  1.
</event>
<event>
 8    1  0.1094829E+005  0.1043930E+01  0.7957747E-01            NaN
         13   -1    0    0    0    0  0.00000000000E+00  0.00000000000E+00  0.74505805969E-08  0.10566000000E+00  0.10566000000E+00 0.  1.
     999900   -1    0    0    0    0 -0.00000000000E+00 -0.00000000000E+00 -0.74505805969E-08  0.93827000000E+00  0.93827000000E+00 0. -1.
     999902    2    1    2    0    0  0.24900243077E-01 -0.73424114813E-03 -0.10227651381E-03  0.10190187239E+01  0.10187141837E+01 0.  0.
     999903    2    3    3    0    0 -0.63899413770E-02 -0.12547762077E+00  0.23856612776E-01  0.12934799001E+00  0.19398450476E-01 0.  0.
         14    1    1    2    0    0 -0.24900243077E-01  0.73424114813E-03  0.10227651381E-03  0.24911276078E-01  0.00000000000E+00 0. -1.
     999901    1    3    3    0    0  0.31290184454E-01  0.12474337962E+00 -0.23958889289E-01  0.88967073391E+00  0.88000000000E+00 0. -1.
        -11    1    4    4    0    0  0.46100100207E-02 -0.27832445558E-01  0.10833850640E-01  0.30224669706E-01  0.51100000000E-03 0.  1.
         11    1    4    4    0    0 -0.10999951398E-01 -0.97645175214E-01  0.13022762135E-01  0.99123320304E-01  0.51100000000E-03 0. -1.
</event>
<event>
 8    1  0.1094829E+005  0.1043930E+01  0.7957747E-01            NaN
         13   -1    0    0    0    0  0.00000000000E+00  0.00000000000E+00  0.74505805969E-08  0.10566000000E+00  0.10566000000E+00 0.  1.
     999900   -1    0    0    0    0 -0.00000000000E+00 -0.00000000000E+00 -0.74505805969E-08  0.93827000000E+00  0.93827000000E+00 0.  1.
     999902    2    1    2    0    0  0.19518765912E-01 -0.13232852163E-01 -0.38295257234E-02  0.10200395026E+01  0.10197596928E+01 0.  0.
     999903    2    3    3    0    0 -0.97609626020E-01  0.15652974195E-01  0.78686434711E-01  0.12798438384E+00  0.20390998191E-01 0.  0.
         14    1    1    2    0    0 -0.19518765912E-01  0.13232852163E-01  0.38295257234E-02  0.23890497407E-01  0.00000000000E+00 0.  1.
     999901    1    3    3    0    0  0.11712839193E+00 -0.28885826358E-01 -0.82515960434E-01  0.89205511875E+00  0.88000000000E+00 0.  1.
        -11    1    4    4    0    0 -0.16454526062E-01 -0.39147374344E-02  0.18478278393E-01  0.25055627920E-01  0.51100000000E-03 0. -1.
         11    1    4    4    0    0 -0.81155099959E-01  0.19567711629E-01  0.60208156318E-01  0.10292875592E+00  0.51100000000E-03 0.  1.
</event>
<event>
 8    1  0.1094829E+005  0.1043930E+01  0.7957747E-01            NaN
         13   -1    0    0    0    0  0.00000000000E+00  0.00000000000E+00  0.74505805969E-08  0.10566000000E+00  0.10566000000E+00 0. -1.
     999900   -1    0    0    0    0 -0.00000000000E+00 -0.00000000000E+00 -0.74505805969E-08  0.93827000000E+00  0.93827000000E+00 0.  1.
     999902    2    1    2    0    0 -0.14225478365E-01  0.65544461794E-03  0.19153059842E-01  0.10200630030E+01  0.10197837499E+01 0.  0.
     999903    2    3    3    0    0 -0.39693526498E-01 -0.11730975454E+00  0.39779854659E-01  0.13158685010E+00  0.19887376079E-01 0.  0.
         14    1    1    2    0    0  0.14225478365E-01 -0.65544461794E-03 -0.19153059842E-01  0.23866996956E-01  0.00000000000E+00 0.  1.
     999901    1    3    3    0    0  0.25468048132E-01  0.11796519915E+00 -0.20626794817E-01  0.88847615294E+00  0.88000000000E+00 0. -1.
        -11    1    4    4    0    0  0.22515257231E-03 -0.22742005402E-01  0.60769711398E-02  0.23546553943E-01  0.51100000000E-03 0.  1.
         11    1    4    4    0    0 -0.39918679070E-01 -0.94567749134E-01  0.33702883519E-01  0.10804029616E+00  0.51100000000E-03 0. -1.
</event>
<event>
 8    1  0.1094829E+005  0.1043930E+01  0.7957747E-01            NaN
         13   -1    0    0    0    0  0.00000000000E+00  0.00000000000E+00  0.74505805969E-08  0.10566000000E+00  0.10566000000E+00 0. -1.
     999900   -1    0    0    0    0 -0.00000000000E+00 -0.00000000000E+00 -0.74505805969E-08  0.93827000000E+00  0.93827000000E+00 0.  1.
     999902    2    1    2    0    0 -0.11714124327E-01  0.19204559665E-01 -0.58496994080E-02  0.10206866181E+01  0.10204219311E+01 0.  0.
     999903    2    3    3    0    0  0.44769524379E-01  0.10286198448E+00  0.66650122705E-01  0.13195426718E+00  0.19616105789E-01 0.  0.
         14    1    1    2    0    0  0.11714124327E-01 -0.19204559665E-01  0.58496994080E-02  0.23243381936E-01  0.00000000000E+00 0.  1.
     999901    1    3    3    0    0 -0.56483648705E-01 -0.83657424817E-01 -0.72499822113E-01  0.88873235088E+00  0.88000000000E+00 0. -1.
        -11    1    4    4    0    0  0.15774127864E-01  0.45207475830E-01  0.38946983112E-01  0.61722504772E-01  0.51100000000E-03 0.  1.
         11    1    4    4    0    0  0.28995396515E-01  0.57654508652E-01  0.27703139592E-01  0.70231762410E-01  0.51100000000E-03 0. -1.
</event>
<event>
 8    1  0.1094829E+005  0.1043930E+01  0.7957747E-01            NaN
         13   -1    0    0    0    0  0.00000000000E+00  0.00000000000E+00  0.74505805969E-08  0.10566000000E+00  0.10566000000E+00 0.  1.
     999900   -1    0    0    0    0 -0.00000000000E+00 -0.00000000000E+00 -0.74505805969E-08  0.93827000000E+00  0.93827000000E+00 0. -1.
     999902    2    1    2    0    0  0.13150879668E-01 -0.19491643266E-01  0.42304196499E-02  0.10200392854E+01  0.10197594704E+01 0.  0.
     999903    2    3    3    0    0 -0.67770529170E-01 -0.80851696176E-01  0.75925981953E-01  0.13130221284E+00  0.18592336133E-01 0.  0.
         14    1    1    2    0    0 -0.13150879668E-01  0.19491643266E-01 -0.42304196499E-02  0.23890714591E-01  0.00000000000E+00 0.  1.
     999901    1    3    3    0    0  0.80921408839E-01  0.61360052910E-01 -0.71695562303E-01  0.88873707257E+00  0.88000000000E+00 0. -1.
        -11    1    4    4    0    0 -0.22819963541E-01 -0.41456688373E-01  0.32117621211E-01  0.57194496764E-01  0.51100000000E-03 0. -1.
         11    1    4    4    0    0 -0.44950565630E-01 -0.39395007803E-01  0.43808360742E-01  0.74107716077E-01  0.51100000000E-03 0.  1.
</event>
<event>
 8    1  0.1094829E+005  0.1043930E+01  0.7957747E-01            NaN
         13   -1    0    0    0    0  0.00000000000E+00  0.00000000000E+00  0.74505805969E-08  0.10566000000E+00  0.10566000000E+00 0. -1.
     999900   -1    0    0    0    0 -0.00000000000E+00 -0.00000000000E+00 -0.74505805969E-08  0.93827000000E+00  0.93827000000E+00 0. -1.
     999902    2    1    2    0    0  0.16285616658E-01 -0.45209948530E-02  0.16342162526E-01  0.10204198537E+01  0.10201489846E+01 0.  0.
     999903    2    3    3    0    0  0.11025807804E+00  0.68356807289E-01 -0.13314075795E-01  0.13192590883E+00  0.19942014247E-01 0.  0.
         14    1    1    2    0    0 -0.16285616658E-01  0.45209948530E-02 -0.16342162526E-01  0.23510146329E-01  0.00000000000E+00 0.  1.
     999901    1    3    3    0    0 -0.93972461378E-01 -0.72877802142E-01  0.29656238321E-01  0.88849394484E+00  0.88000000000E+00 0.  1.
        -11    1    4    4    0    0  0.67171319237E-01  0.32362794901E-01 -0.16455208082E-02  0.74580865385E-01  0.51100000000E-03 0.  1.
         11    1    4    4    0    0  0.43086758799E-01  0.35994012388E-01 -0.11668554987E-01  0.57345043448E-01  0.51100000000E-03 0. -1.
</event>
<event>
 8    1  0.1094829E+005  0.1043930E+01  0.7957747E-01            NaN
         13   -1    0    0    0    0  0.00000000000E+00  0.00000000000E+00  0.74505805969E-08  0.10566000000E+00  0.10566000000E+00 0.  1.
     999900   -1    0    0    0    0 -0.00000000000E+00 -0.00000000000E+00 -0.74505805969E-08  0.93827000000E+00  0.93827000000E+00 0.  1.
     999902    2    1    2    0    0 -0.27652348549E-02 -0.22455881347E-01  0.40336826439E-02  0.10209477519E+01  0.10206890459E+01 0.  0.
     999903    2    3    3    0    0 -0.23702301106E-01 -0.87078225553E-01 -0.95803074808E-01  0.13270128486E+00  0.16940643969E-01 0.  0.
         14    1    1    2    0    0  0.27652348549E-02  0.22455881347E-01 -0.40336826439E-02  0.22982248074E-01  0.00000000000E+00 0. -1.
     999901    1    3    3    0    0  0.20937066251E-01  0.64622344206E-01  0.99836757452E-01  0.88824646706E+00  0.88000000000E+00 0. -1.
        -11    1    4    4    0    0 -0.12055341616E-01 -0.41731279863E-01 -0.33995833949E-01  0.55161660847E-01  0.51100000000E-03 0. -1.
         11    1    4    4    0    0 -0.11646959489E-01 -0.45346945690E-01 -0.61807240858E-01  0.77539624015E-01  0.51100000000E-03 0.  1.
</event>
<event>
 8    1  0.1094829E+005  0.1043930E+01  0.7957747E-01            NaN
         13   -1    0    0    0    0  0.00000000000E+00  0.00000000000E+00  0.74505805969E-08  0.10566000000E+00  0.10566000000E+00 0. -1.
     999900   -1    0    0    0    0 -0.00000000000E+00 -0.00000000000E+00 -0.74505805969E-08  0.93827000000E+00  0.93827000000E+00 0. -1.
     999902    2    1    2    0    0  0.36201615702E-03  0.19828351029E-01 -0.12871685957E-01  0.10202873508E+01  0.10200133839E+01 0.  0.
     999903    2    3    3    0    0  0.35644959657E-01  0.83462339069E-01  0.92427885960E-01  0.13102801274E+00  0.19720568666E-01 0.  0.
         14    1    1    2    0    0 -0.36201615702E-03 -0.19828351029E-01  0.12871685957E-01  0.23642649166E-01  0.00000000000E+00 0. -1.
     999901    1    3    3    0    0 -0.35282943500E-01 -0.63633988040E-01 -0.10529957192E+00  0.88925933809E+00  0.88000000000E+00 0. -1.
        -11    1    4    4    0    0  0.18783131169E-01  0.23849685005E-01  0.23850196748E-01  0.38609668443E-01  0.51100000000E-03 0. -1.
         11    1    4    4    0    0  0.16861828488E-01  0.59612654064E-01  0.68577689212E-01  0.92418344300E-01  0.51100000000E-03 0.  1.
</event>
<event>
 8    1  0.1094829E+005  0.1043930E+01  0.7957747E-01            NaN
         13   -1    0    0    0    0  0.00000000000E+00  0.00000000000E+00  0.74505805969E-08  0.10566000000E+00  0.10566000000E+00 0.  1.
     999900   -1    0    0    0    0 -0.00000000000E+00 -0.00000000000E+00 -0.74505805969E-08  0.93827000000E+00  0.93827000000E+00 0.  1.
     999902    2    1    2    0    0  0.91162947485E-03  0.12810123254E-01  0.18214569664E-01  0.10216432130E+01  0.10214000949E+01 0.  0.
     999903    2    3    3    0    0  0.12724638363E+00  0.70281525656E-02 -0.25139244189E-01  0.13154577202E+00  0.20767076410E-01 0.  0.
         14    1    1    2    0    0 -0.91162947485E-03 -0.12810123254E-01 -0.18214569664E-01  0.22286786986E-01  0.00000000000E+00 0. -1.
     999901    1    3    3    0    0 -0.12633475415E+00  0.57819706883E-02  0.43353813854E-01  0.89009744100E+00  0.88000000000E+00 0. -1.
        -11    1    4    4    0    0  0.13682336613E-02  0.22788652988E-02 -0.22381795710E-02  0.35122441820E-02  0.51100000000E-03 0. -1.
         11    1    4    4    0    0  0.12587814997E+00  0.47492872668E-02 -0.22901064618E-01  0.12803352784E+00  0.51100000000E-03 0.  1.
</event>
<event>
 8    1  0.1094829E+005  0.1043930E+01  0.7957747E-01            NaN
         13   -1    0    0    0    0  0.00000000000E+00  0.00000000000E+00  0.74505805969E-08  0.10566000000E+00  0.10566000000E+00 0.  1.
     999900   -1    0    0    0    0 -0.00000000000E+00 -0.00000000000E+00 -0.74505805969E-08  0.93827000000E+00  0.93827000000E+00 0. -1.
     999902    2    1    2    0    0 -0.78589823090E-02  0.15531449178E-02 -0.22198073694E-01  0.10203306284E+01  0.10200576753E+01 0.  0.
     999903    2    3    3    0    0  0.95759205528E-01  0.16641701805E-01  0.80985472397E-01  0.12813600978E+00  0.20332697302E-01 0.  0.
         14    1    1    2    0    0  0.78589823090E-02 -0.15531449178E-02  0.22198073694E-01  0.23599371555E-01  0.00000000000E+00 0.  1.
     999901    1    3    3    0    0 -0.10361818784E+00 -0.15088556887E-01 -0.10318354609E+00  0.89219461867E+00  0.88000000000E+00 0. -1.
        -11    1    4    4    0    0  0.29656461646E-01  0.98258533842E-02  0.15664259974E-01  0.34952586080E-01  0.51100000000E-03 0.  1.
         11    1    4    4    0    0  0.66102743881E-01  0.68158484207E-02  0.65321212422E-01  0.93183423696E-01  0.51100000000E-03 0. -1.
</event>
<event>
 8    1  0.1094829E+005  0.1043930E+01  0.7957747E-01            NaN
         13   -1    0    0    0    0  0.00000000000E+00  0.00000000000E+00  0.74505805969E-08  0.10566000000E+00  0.10566000000E+00 0.  1.
     999900   -1    0    0    0    0 -0.00000000000E+00 -0.00000000000E+00 -0.74505805969E-08  0.93827000000E+00  0.93827000000E+00 0.  1.
     999902    2    1    2    0    0  0.10968842186E-01 -0.11330833128E-01  0.18122415395E-01  0.10199065694E+01  0.10196235997E+01 0.  0.
     999903    2    3    3    0    0 -0.72355707162E-01  0.15766824898E-01  0.10641247780E+00  0.13115891189E+00  0.19877213392E-01 0.  0.
         14    1    1    2    0    0 -0.10968842186E-01  0.11330833128E-01 -0.18122415395E-01  0.24023430605E-01  0.00000000000E+00 0. -1.
     999901    1    3    3    0    0  0.83324549348E-01 -0.27097658026E-01 -0.88290062402E-01  0.88874765750E+00  0.88000000000E+00 0.  1.
        -11    1    4    4    0    0 -0.14967854842E-01  0.49654646866E-02  0.38399931050E-01  0.41515158000E-01  0.51100000000E-03 0. -1.
         11    1    4    4    0    0 -0.57387852320E-01  0.10801360211E-01  0.68012546746E-01  0.89643753894E-01  0.51100000000E-03 0.  1.
</event>
<event>
 8    1  0.1094829E+005  0.1043930E+01  0.7957747E-01            NaN
         13   -1    0    0    0    0  0.00000000000E+00  0.00000000000E+00  0.74505805969E-08  0.10566000000E+00  0.10566000000E+00 0.  1.
     999900   -1    0    0    0    0 -0.00000000000E+00 -0.00000000000E+00 -0.74505805969E-08  0.93827000000E+00  0.93827000000E+00 0.  1.
     999902    2    1    2    0    0 -0.75655113697E-02  0.11688364991E-01 -0.19116343769E-01  0.10202806990E+01  0.10200065761E+01 0.  0.
     999903    2    3    3    0    0  0.12713619282E+00 -0.13913316104E-01 -0.15263716765E-02  0.12948925186E+00  0.20197639626E-01 0.  0.
         14    1    1    2    0    0  0.75655113697E-02 -0.11688364991E-01  0.19116343769E-01  0.23649300995E-01  0.00000000000E+00 0.  1.
     999901    1    3    3    0    0 -0.13470170419E+00  0.25601681095E-01 -0.17589972092E-01  0.89079144714E+00  0.88000000000E+00 0.  1.
        -11    1    4    4    0    0  0.51431839916E-01 -0.81954229140E-02 -0.10203622959E-01  0.53073290423E-01  0.51100000000E-03 0. -1.
         11    1    4    4    0    0  0.75704352907E-01 -0.57178931898E-02  0.86772512821E-02  0.76415961438E-01  0.51100000000E-03 0.  1.
</event>
<event>
 8    1  0.1094829E+005  0.1043930E+01  0.7957747E-01            NaN
         13   -1    0    0    0    0  0.00000000000E+00  0.00000000000E+00  0.74505805969E-08  0.10566000000E+00  0.10566000000E+00 0. -1.
     999900   -1    0    0    0    0 -0.00000000000E+00 -0.00000000000E+00 -0.74505805969E-08  0.93827000000E+00  0.93827000000E+00 0. -1.
     999902    2    1    2    0    0 -0.21443182494E-01  0.97921023682E-02  0.55657550371E-02  0.10197086670E+01  0.10194209594E+01 0.  0.
     999903    2    3    3    0    0 -0.10779172085E+00 -0.53623007568E-01 -0.49228732063E-01  0.13151950804E+00  0.19478986363E-01 0.  0.
         14    1    1    2    0    0  0.21443182494E-01 -0.97921023682E-02 -0.55657550371E-02  0.24221333023E-01  0.00000000000E+00 0.  1.
     999901    1    3    3    0    0  0.86348538353E-01  0.63415109936E-01  0.54794487100E-01  0.88818915894E+00  0.88000000000E+00 0.  1.
        -11    1    4    4    0    0 -0.81610288530E-01 -0.36975885136E-01 -0.27806602758E-01  0.93813237623E-01  0.51100000000E-03 0.  1.
         11    1    4    4    0    0 -0.26181432318E-01 -0.16647122432E-01 -0.21422129305E-01  0.37706270413E-01  0.51100000000E-03 0. -1.
</event>
<event>
 8    1  0.1094829E+005  0.1043930E+01  0.7957747E-01            NaN
         13   -1    0    0    0    0  0.00000000000E+00  0.00000000000E+00  0.74505805969E-08  0.10566000000E+00  0.10566000000E+00 0. -1.
     999900   -1    0    0    0    0 -0.00000000000E+00 -0.00000000000E+00 -0.74505805969E-08  0.93827000000E+00  0.93827000000E+00 0.  1.
     999902    2    1    2    0    0  0.11515264399E-01  0.19869101814E-01 -0.45475708872E-02  0.10205192563E+01  0.10202506993E+01 0.  0.
     999903    2    3    3    0    0  0.10522040620E+00 -0.10019614125E-01  0.75505402787E-01  0.13142844677E+00  0.20016099083E-01 0.  0.
         14    1    1    2    0    0 -0.11515264399E-01 -0.19869101814E-01  0.45475708872E-02  0.23410743732E-01  0.00000000000E+00 0. -1.
     999901    1    3    3    0    0 -0.93705141800E-01  0.29888715940E-01 -0.80052973674E-01  0.88909080950E+00  0.88000000000E+00 0.  1.
        -11    1    4    4    0    0  0.67963441340E-01 -0.14753622062E-01  0.54768058082E-01  0.88524008211E-01  0.51100000000E-03 0.  1.
         11    1    4    4    0    0  0.37256964859E-01  0.47340079364E-02  0.20737344705E-01  0.42904438559E-01  0.51100000000E-03 0. -1.
</event>
<event>
 8    1  0.1094829E+005  0.1043930E+01  0.7957747E-01            NaN
         13   -1    0    0    0    0  0.00000000000E+00  0.00000000000E+00  0.74505805969E-08  0.10566000000E+00  0.10566000000E+00 0.  1.
     999900   -1    0    0    0    0 -0.00000000000E+00 -0.00000000000E+00 -0.74505805969E-08  0.93827000000E+00  0.93827000000E+00 0.  1.
     999902    2    1    2    0    0  0.18089217545E-01  0.10029675827E-01  0.10887464643E-01  0.10205558460E+01  0.10202881376E+01 0.  0.
     999903    2    3    3    0    0  0.11758651538E-01  0.12619572130E+00 -0.30871915950E-01  0.13191729628E+00  0.19633438403E-01 0.  0.
         14    1    1    2    0    0 -0.18089217545E-01 -0.10029675827E-01 -0.10887464643E-01  0.23374153994E-01  0.00000000000E+00 0. -1.
     999901    1    3    3    0    0  0.63305660077E-02 -0.11616604547E+00  0.41759380593E-01  0.88863854972E+00  0.88000000000E+00 0. -1.
        -11    1    4    4    0    0  0.73404353875E-02  0.95646702112E-01 -0.14643401373E-01  0.97040527314E-01  0.51100000000E-03 0.  1.
         11    1    4    4    0    0  0.44182161501E-02  0.30549019188E-01 -0.16228514576E-01  0.34876768968E-01  0.51100000000E-03 0. -1.
</event>
<event>
 8    1  0.1094829E+005  0.1043930E+01  0.7957747E-01            NaN
         13   -1    0    0    0    0  0.00000000000E+00  0.00000000000E+00  0.74505805969E-08  0.10566000000E+00  0.10566000000E+00 0. -1.
     999900   -1    0    0    0    0 -0.00000000000E+00 -0.00000000000E+00 -0.74505805969E-08  0.93827000000E+00  0.93827000000E+00 0. -1.
     999902    2    1    2    0    0  0.16079570015E-01  0.31508810692E-02  0.15739701265E-01  0.10212095506E+01  0.10209567706E+01 0.  0.
     999903    2    3    3    0    0  0.49918666320E-01  0.11449064096E+00 -0.37411926095E-01  0.13195889865E+00  0.20335156832E-01 0.  0.
         14    1    1    2    0    0 -0.16079570015E-01 -0.31508810692E-02 -0.15739701265E-01  0.22720449364E-01  0.00000000000E+00 0.  1.
     999901    1    3    3    0    0 -0.33839096305E-01 -0.11133975989E+00  0.53151627360E-01  0.88925065199E+00  0.88000000000E+00 0. -1.
        -11    1    4    4    0    0  0.46246377269E-01  0.84534318270E-01 -0.28667434359E-01  0.10053288661E+00  0.51100000000E-03 0.  1.
         11    1    4    4    0    0  0.36722890506E-02  0.29956322691E-01 -0.87444917360E-02  0.31426012040E-01  0.51100000000E-03 0. -1.
</event>
<event>
 8    1  0.1094829E+005  0.1043930E+01  0.7957747E-01            NaN
         13   -1    0    0    0    0  0.00000000000E+00  0.00000000000E+00  0.74505805969E-08  0.10566000000E+00  0.10566000000E+00 0. -1.
     999900   -1    0    0    0    0 -0.00000000000E+00 -0.00000000000E+00 -0.74505805969E-08  0.93827000000E+00  0.93827000000E+00 0.  1.
     999902    2    1    2    0    0 -0.77216605041E-02  0.19684075948E-01 -0.10957460054E-01  0.10201150295E+01  0.10198370069E+01 0.  0.
     999903    2    3    3    0    0 -0.54889107975E-01  0.82866996697E-01 -0.86638872781E-01  0.13335433702E+00  0.19933178619E-01 0.  0.
         14    1    1    2    0    0  0.77216605041E-02 -0.19684075948E-01  0.10957460054E-01  0.23814970454E-01  0.00000000000E+00 0. -1.
     999901    1    3    3    0    0  0.47167447471E-01 -0.63182920748E-01  0.75681412727E-01  0.88676069253E+00  0.88000000000E+00 0. -1.
        -11    1    4    4    0    0  0.15472705532E-02  0.44277768620E-02 -0.46684555059E-02  0.66373829116E-02  0.51100000000E-03 0.  1.
         11    1    4    4    0    0 -0.56436378528E-01  0.78439219835E-01 -0.81970417275E-01  0.12671695411E+00  0.51100000000E-03 0. -1.
</event>
<event>
 8    1  0.1094829E+005  0.1043930E+01  0.7957747E-01            NaN
         13   -1    0    0    0    0  0.00000000000E+00  0.00000000000E+00  0.74505805969E-08  0.10566000000E+00  0.10566000000E+00 0. -1.
     999900   -1    0    0    0    0 -0.00000000000E+00 -0.00000000000E+00 -0.74505805969E-08  0.93827000000E+00  0.93827000000E+00 0.  1.
     999902    2    1    2    0    0 -0.22646669597E-01  0.42528952049E-02  0.54559728209E-02  0.10202503378E+01  0.10199755024E+01 0.  0.
     999903    2    3    3    0    0  0.73722671264E-01 -0.78570140368E-01  0.68004650287E-01  0.12892601855E+00  0.19722742751E-01 0.  0.
         14    1    1    2    0    0  0.22646669597E-01 -0.42528952049E-02 -0.54559728209E-02  0.23679662178E-01  0.00000000000E+00 0. -1.
     999901    1    3    3    0    0 -0.96369340861E-01  0.82823035573E-01 -0.62548677467E-01  0.89132431928E+00  0.88000000000E+00 0.  1.
        -11    1    4    4    0    0  0.39248213718E-02 -0.12449535860E-01  0.11511752457E-01  0.17411970927E-01  0.51100000000E-03 0.  1.
         11    1    4    4    0    0  0.69797849893E-01 -0.66120604508E-01  0.56492897830E-01  0.11151404762E+00  0.51100000000E-03 0. -1.
</event>
<event>
 8    1  0.1094829E+005  0.1043930E+01  0.7957747E-01            NaN
         13   -1    0    0    0    0  0.00000000000E+00  0.00000000000E+00  0.74505805969E-08  0.10566000000E+00  0.10566000000E+00 0. -1.
     999900   -1    0    0    0    0 -0.00000000000E+00 -0.00000000000E+00 -0.74505805969E-08  0.93827000000E+00  0.93827000000E+00 0.  1.
     999902    2    1    2    0    0  0.11380612363E-01 -0.45128494767E-02 -0.20208231296E-01  0.10203025422E+01  0.10200289314E+01 0.  0.
     999903    2    3    3    0    0  0.44305258473E-01 -0.69478727113E-01  0.98033534520E-01  0.12941213778E+00  0.18619292786E-01 0.  0.
         14    1    1    2    0    0 -0.11380612363E-01  0.45128494767E-02  0.20208231296E-01  0.23627457762E-01  0.00000000000E+00 0. -1.
     999901    1    3    3    0    0 -0.32924646110E-01  0.64965877636E-01 -0.11824176582E+00  0.89089040446E+00  0.88000000000E+00 0.  1.
        -11    1    4    4    0    0  0.20094749994E-01 -0.45536349543E-01  0.50190981432E-01  0.70687720611E-01  0.51100000000E-03 0. -1.
         11    1    4    4    0    0  0.24210508479E-01 -0.23942377570E-01  0.47842553087E-01  0.58724417166E-01  0.51100000000E-03 0.  1.
</event>
<event>
 8    1  0.1094829E+005  0.1043930E+01  0.7957747E-01            NaN
         13   -1    0    0    0    0  0.00000000000E+00  0.00000000000E+00  0.74505805969E-08  0.10566000000E+00  0.10566000000E+00 0. -1.
     999900   -1    0    0    0    0 -0.00000000000E+00 -0.00000000000E+00 -0.74505805969E-08  0.93827000000E+00  0.93827000000E+00 0.  1.
     999902    2    1    2    0    0  0.21412593536E-01 -0.74117024709E-02  0.91195011879E-02  0.10195046485E+01  0.10192120145E+01 0.  0.
     999903    2    3    3    0    0 -0.39074600061E-01 -0.82962599931E-01  0.89956961500E-01  0.13051570946E+00  0.23075487762E-01 0.  0.
         14    1    1    2    0    0 -0.21412593536E-01  0.74117024709E-02 -0.91195011879E-02  0.24425351530E-01  0.00000000000E+00 0.  1.
     999901    1    3    3    0    0  0.60487193597E-01  0.75550897460E-01 -0.80837460313E-01  0.88898893901E+00  0.88000000000E+00 0.  1.
        -11    1    4    4    0    0 -0.53648392787E-02 -0.27318251928E-01  0.38768878158E-01  0.47732121507E-01  0.51100000000E-03 0. -1.
         11    1    4    4    0    0 -0.33709760782E-01 -0.55644348003E-01  0.51188083342E-01  0.82783587951E-01  0.51100000000E-03 0.  1.
</event>
<event>
 8    1  0.1094829E+005  0.1043930E+01  0.7957747E-01            NaN
         13   -1    0    0    0    0  0.00000000000E+00  0.00000000000E+00  0.74505805969E-08  0.10566000000E+00  0.10566000000E+00 0. -1.
     999900   -1    0    0    0    0 -0.00000000000E+00 -0.00000000000E+00 -0.74505805969E-08  0.93827000000E+00  0.93827000000E+00 0.  1.
     999902    2    1    2    0    0  0.12863310526E-01 -0.21899745906E-02  0.14735519902E-01  0.10242476146E+01  0.10240584846E+01 0.  0.
     999903    2    3    3    0    0  0.22577512516E-01  0.86789945071E-02 -0.12814626440E+00  0.13260435387E+00  0.24028744592E-01 0.  0.
         14    1    1    2    0    0 -0.12863310526E-01  0.21899745906E-02 -0.14735519902E-01  0.19682385353E-01  0.00000000000E+00 0. -1.
     999901    1    3    3    0    0 -0.97142019898E-02 -0.10868969098E-01  0.14288178431E+00  0.89164326078E+00  0.88000000000E+00 0. -1.
        -11    1    4    4    0    0  0.55111182764E-02  0.14883866081E-01 -0.56253267758E-01  0.58451630847E-01  0.51100000000E-03 0.  1.
         11    1    4    4    0    0  0.17066394240E-01 -0.62048715736E-02 -0.71892996645E-01  0.74152723019E-01  0.51100000000E-03 0. -1.
</event>
<event>
 8    1  0.1094829E+005  0.1043930E+01  0.7957747E-01            NaN
         13   -1    0    0    0    0  0.00000000000E+00  0.00000000000E+00  0.74505805969E-08  0.10566000000E+00  0.10566000000E+00 0. -1.
     999900   -1    0    0    0    0 -0.00000000000E+00 -0.00000000000E+00 -0.74505805969E-08  0.93827000000E+00  0.93827000000E+00 0. -1.
     999902    2    1    2    0    0 -0.31659821443E-02 -0.15272052810E-01 -0.17520455923E-01  0.10204731158E+01  0.10202034869E+01 0.  0.
     999903    2    3    3    0    0 -0.23513156824E-02 -0.30769083443E-01  0.12372727836E+00  0.12907435876E+00  0.19987133293E-01 0.  0.
         14    1    1    2    0    0  0.31659821443E-02  0.15272052810E-01  0.17520455923E-01  0.23456884186E-01  0.00000000000E+00 0. -1.
     999901    1    3    3    0    0 -0.81466646190E-03  0.15497030633E-01 -0.14124773428E+00  0.89139875706E+00  0.88000000000E+00 0. -1.
        -11    1    4    4    0    0  0.30262816211E-02 -0.10807845715E-01  0.79037311924E-01  0.79831858970E-01  0.51100000000E-03 0.  1.
         11    1    4    4    0    0 -0.53775973035E-02 -0.19961237728E-01  0.44689966435E-01  0.49242499788E-01  0.51100000000E-03 0. -1.
</event>
<event>
 8    1  0.1094829E+005  0.1043930E+01  0.7957747E-01            NaN
         13   -1    0    0    0    0  0.00000000000E+00  0.00000000000E+00  0.74505805969E-08  0.10566000000E+00  0.10566000000E+00 0. -1.
     999900   -1    0    0    0    0 -0.00000000000E+00 -0.00000000000E+00 -0.74505805969E-08  0.93827000000E+00  0.93827000000E+00 0.  1.
     999902    2    1    2    0    0  0.26111321830E-02  0.33152068432E-02  0.23424520203E-01  0.10201283876E+01  0.10198506804E+01 0.  0.
     999903    2    3    3    0    0  0.75787439066E-01  0.53020842882E-01  0.93611734857E-01  0.13291270508E+00  0.18646301767E-01 0.  0.
         14    1    1    2    0    0 -0.26111321830E-02 -0.33152068432E-02 -0.23424520203E-01  0.23801612433E-01  0.00000000000E+00 0.  1.
     999901    1    3    3    0    0 -0.73176306884E-01 -0.49705636039E-01 -0.70187214654E-01  0.88721568248E+00  0.88000000000E+00 0.  1.
        -11    1    4    4    0    0  0.64498707296E-01  0.35912009687E-01  0.71970856372E-01  0.10310102313E+00  0.51100000000E-03 0. -1.
         11    1    4    4    0    0  0.11288731770E-01  0.17108833196E-01  0.21640878484E-01  0.29811681953E-01  0.51100000000E-03 0.  1.
</event>
<event>
 7    1  0.1094829E+005  0.1043930E+01  0.7957747E-01            NaN
         13   -1    0    0    0    0  0.00000000000E+00  0.00000000000E+00  0.74505805969E-08  0.10566000000E+00  0.10566000000E+00 0.  1.
     999900   -1    0    0    0    0 -0.00000000000E+00 -0.00000000000E+00 -0.74505805969E-08  0.93827000000E+00  0.93827000000E+00 0. -1.
     999903    2    1    2    0    0  0.56291176307E-01 -0.86107942067E-01 -0.43600588023E-01  0.11344278688E+00  0.19620917460E-01 0.  0.
         14    1    1    2    0    0  0.51066847456E-02 -0.36161026686E-01 -0.11288763431E-01  0.38224785937E-01  0.00000000000E+00 0.  1.
     999901    1    1    2    0    0 -0.61397861052E-01  0.12226896875E+00  0.54889351454E-01  0.89226242718E+00  0.88000000000E+00 0. -1.
        -11    1    3    3    0    0  0.26074083834E-01 -0.43360384049E-01 -0.31850564056E-01  0.59788797482E-01  0.51100000000E-03 0. -1.
         11    1    3    3    0    0  0.30217092473E-01 -0.42747558018E-01 -0.11750023967E-01  0.53653989397E-01  0.51100000000E-03 0.  1.
</event>
<event>
 8    1  0.1094829E+005  0.1043930E+01  0.7957747E-01            NaN
         13   -1    0    0    0    0  0.00000000000E+00  0.00000000000E+00  0.74505805969E-08  0.10566000000E+00  0.10566000000E+00 0.  1.
     999900   -1    0    0    0    0 -0.00000000000E+00 -0.00000000000E+00 -0.74505805969E-08  0.93827000000E+00  0.93827000000E+00 0. -1.
     999902    2    1    2    0    0  0.46436615069E-02 -0.11128322464E-01  0.20244723901E-01  0.10203662142E+01  0.10200940933E+01 0.  0.
     999903    2    3    3    0    0 -0.10307979120E+00  0.41505104737E-01  0.64977302133E-01  0.13111055727E+00  0.24896010928E-01 0.  0.
         14    1    1    2    0    0 -0.46436615069E-02  0.11128322464E-01 -0.20244723901E-01  0.23563785750E-01  0.00000000000E+00 0. -1.
     999901    1    3    3    0    0  0.10772345271E+00 -0.52633427202E-01 -0.44732578232E-01  0.88925565698E+00  0.88000000000E+00 0.  1.
        -11    1    4    4    0    0 -0.40531943850E-01  0.42869838175E-02  0.28167568307E-01  0.49546843773E-01  0.51100000000E-03 0. -1.
         11    1    4    4    0    0 -0.62547847354E-01  0.37218120920E-01  0.36809733826E-01  0.81563713493E-01  0.51100000000E-03 0.  1.
</event>
<event>
 8    1  0.1094829E+005  0.1043930E+01  0.7957747E-01            NaN
         13   -1    0    0    0    0  0.00000000000E+00  0.00000000000E+00  0.74505805969E-08  0.10566000000E+00  0.10566000000E+00 0. -1.
     999900   -1    0    0    0    0 -0.00000000000E+00 -0.00000000000E+00 -0.74505805969E-08  0.93827000000E+00  0.93827000000E+00 0.  1.
     999902    2    1    2    0    0  0.13656781518E-01  0.19207509285E-01  0.32680524167E-02  0.10201368022E+01  0.10198592937E+01 0.  0.
     999903    2    3    3    0    0 -0.27112101599E-01  0.12830858121E+00 -0.37441976715E-02  0.13243509703E+00  0.18079763373E-01 0.  0.
         14    1    1    2    0    0 -0.13656781518E-01 -0.19207509285E-01 -0.32680524167E-02  0.23793197787E-01  0.00000000000E+00 0.  1.
     999901    1    3    3    0    0  0.40768883117E-01 -0.10910107193E+00  0.70122500882E-02  0.88770170518E+00  0.88000000000E+00 0.  1.
        -11    1    4    4    0    0 -0.78394386820E-02  0.75487788366E-01  0.19317515029E-02  0.75920061750E-01  0.51100000000E-03 0.  1.
         11    1    4    4    0    0 -0.19272662917E-01  0.52820792849E-01 -0.56759491745E-02  0.56515035284E-01  0.51100000000E-03 0. -1.
</event>
<event>
 7    1  0.1094829E+005  0.1043930E+01  0.7957747E-01            NaN
         13   -1    0    0    0    0  0.00000000000E+00  0.00000000000E+00  0.74505805969E-08  0.10566000000E+00  0.10566000000E+00 0.  1.
     999900   -1    0    0    0    0 -0.00000000000E+00 -0.00000000000E+00 -0.74505805969E-08  0.93827000000E+00  0.93827000000E+00 0. -1.
     999903    2    1    2    0    0 -0.53671705726E-01 -0.38570783669E-01  0.95998565942E-01  0.11822318085E+00  0.19815107333E-01 0.  0.
         14    1    1    2    0    0  0.69865693239E-02 -0.26608827823E-01 -0.28307103147E-01  0.39473205566E-01  0.00000000000E+00 0. -1.
     999901    1    1    2    0    0  0.46685136402E-01  0.65179611492E-01 -0.67691462794E-01  0.88623361359E+00  0.88000000000E+00 0.  1.
        -11    1    3    3    0    0 -0.90950799213E-02 -0.15070550334E-01  0.16717295486E-01  0.24281084315E-01  0.51100000000E-03 0.  1.
         11    1    3    3    0    0 -0.44576625804E-01 -0.23500233334E-01  0.79281270456E-01  0.93942096533E-01  0.51100000000E-03 0. -1.
</event>
<event>
 8    1  0.1094829E+005  0.1043930E+01  0.7957747E-01            NaN
         13   -1    0    0    0    0  0.00000000000E+00  0.00000000000E+00  0.74505805969E-08  0.10566000000E+00  0.10566000000E+00 0. -1.
     999900   -1    0    0    0    0 -0.00000000000E+00 -0.00000000000E+00 -0.74505805969E-08  0.93827000000E+00  0.93827000000E+00 0.  1.
     999902    2    1    2    0    0 -0.18907680306E-02  0.21242343877E-01  0.94182380181E-02  0.10206165836E+01  0.10203502807E+01 0.  0.
     999903    2    3    3    0    0  0.63253918207E-01 -0.10988265905E+00 -0.19387333191E-02  0.12844699359E+00  0.20484495243E-01 0.  0.
         14    1    1    2    0    0  0.18907680306E-02 -0.21242343877E-01 -0.94182380181E-02  0.23313416406E-01  0.00000000000E+00 0.  1.
     999901    1    3    3    0    0 -0.65144686238E-01  0.13112500293E+00  0.11356971337E-01  0.89216959001E+00  0.88000000000E+00 0. -1.
        -11    1    4    4    0    0  0.46198426708E-01 -0.77601577670E-01  0.78215205748E-02  0.90651733532E-01  0.51100000000E-03 0.  1.
         11    1    4    4    0    0  0.17055491499E-01 -0.32281081382E-01 -0.97602538939E-02  0.37795260053E-01  0.51100000000E-03 0. -1.
</event>
<event>
 8    1  0.1094829E+005  0.1043930E+01  0.7957747E-01            NaN
         13   -1    0    0    0    0  0.00000000000E+00  0.00000000000E+00  0.74505805969E-08  0.10566000000E+00  0.10566000000E+00 0. -1.
     999900   -1    0    0    0    0 -0.00000000000E+00 -0.00000000000E+00 -0.74505805969E-08  0.93827000000E+00  0.93827000000E+00 0.  1.
     999902    2    1    2    0    0 -0.12087744503E-01 -0.17637786947E-01 -0.41333302533E-02  0.10221518110E+01  0.10219197793E+01 0.  0.
     999903    2    3    3    0    0  0.10107519266E+00 -0.72981004395E-01  0.38335279462E-01  0.13216737023E+00  0.21358804486E-01 0.  0.
         14    1    1    2    0    0  0.12087744503E-01  0.17637786947E-01  0.41333302533E-02  0.21778188964E-01  0.00000000000E+00 0.  1.
     999901    1    3    3    0    0 -0.11316293716E+00  0.55343217449E-01 -0.42468609716E-01  0.88998444081E+00  0.88000000000E+00 0.  1.
        -11    1    4    4    0    0  0.25798919941E-01 -0.18455632445E-01  0.19771095752E-01  0.37381171562E-01  0.51100000000E-03 0. -1.
         11    1    4    4    0    0  0.75276272716E-01 -0.54525371951E-01  0.18564183710E-01  0.94786198669E-01  0.51100000000E-03 0.  1.
</event>
<event>
 8    1  0.1094829E+005  0.1043930E+01  0.7957747E-01            NaN
         13   -1    0    0    0    0  0.00000000000E+00  0.00000000000E+00  0.74505805969E-08  0.10566000000E+00  0.10566000000E+00 0.  1.
     999900   -1    0    0    0    0 -0.00000000000E+00 -0.00000000000E+00 -0.74505805969E-08  0.93827000000E+00  0.93827000000E+00 0. -1.
     999902    2    1    2    0    0  0.20520687674E-01  0.10727861742E-01 -0.45428470615E-02  0.10203329006E+01  0.10200600007E+01 0.  0.
     999903    2    3    3    0    0  0.63997262852E-01  0.35839922462E-01  0.10763552718E+00  0.13179206540E+00  0.20089601699E-01 0.  0.
         14    1    1    2    0    0 -0.20520687674E-01 -0.10727861742E-01  0.45428470615E-02  0.23597099389E-01  0.00000000000E+00 0.  1.
     999901    1    3    3    0    0 -0.43476575178E-01 -0.25112060720E-01 -0.11217837425E+00  0.88854083521E+00  0.88000000000E+00 0. -1.
        -11    1    4    4    0    0  0.59509534992E-01  0.27908115508E-01  0.85481253300E-01  0.10783113397E+00  0.51100000000E-03 0. -1.
         11    1    4    4    0    0  0.44877278606E-02  0.79318069543E-02  0.22154273884E-01  0.23960931435E-01  0.51100000000E-03 0.  1.
</event>
<event>
 8    1  0.1094829E+005  0.1043930E+01  0.7957747E-01            NaN
         13   -1    0    0    0    0  0.00000000000E+00  0.00000000000E+00  0.74505805969E-08  0.10566000000E+00  0.10566000000E+00 0.  1.
     999900   -1    0    0    0    0 -0.00000000000E+00 -0.00000000000E+00 -0.74505805969E-08  0.93827000000E+00  0.93827000000E+00 0.  1.
     999902    2    1    2    0    0 -0.89022668508E-02 -0.18067248977E-01  0.11465385648E-01  0.10207539152E+01  0.10204907762E+01 0.  0.
     999903    2    3    3    0    0  0.54711225457E-01  0.68385496716E-01  0.94828768851E-01  0.13032131956E+00  0.17923631817E-01 0.  0.
         14    1    1    2    0    0  0.89022668508E-02  0.18067248977E-01 -0.11465385648E-01  0.23176084845E-01  0.00000000000E+00 0. -1.
     999901    1    3    3    0    0 -0.63613492308E-01 -0.86452745694E-01 -0.83363383202E-01  0.89043259560E+00  0.88000000000E+00 0.  1.
        -11    1    4    4    0    0  0.17505881810E-01  0.15696536292E-01  0.36117394776E-01  0.43099471875E-01  0.51100000000E-03 0.  1.
         11    1    4    4    0    0  0.37205343647E-01  0.52688960425E-01  0.58711374075E-01  0.87221847683E-01  0.51100000000E-03 0. -1.
</event>
<event>
 8    1  0.1094829E+005  0.1043930E+01  0.7957747E-01            NaN
         13   -1    0    0    0    0  0.00000000000E+00  0.00000000000E+00  0.74505805969E-08  0.10566000000E+00  0.10566000000E+00 0.  1.
     999900   -1    0    0    0    0 -0.00000000000E+00 -0.00000000000E+00 -0.74505805969E-08  0.93827000000E+00  0.93827000000E+00 0. -1.
     999902    2    1    2    0    0  0.21429473859E-01 -0.12091311090E-03 -0.93901884897E-02  0.10205331496E+01  0.10202649150E+01 0.  0.
     999903    2    3    3    0    0 -0.97320141641E-01 -0.15581455959E-02 -0.83198710717E-01  0.12949373700E+00  0.19312293227E-01 0.  0.
         14    1    1    2    0    0 -0.21429473859E-01  0.12091311090E-03  0.93901884897E-02  0.23396850423E-01  0.00000000000E+00 0.  1.
     999901    1    3    3    0    0  0.11874961550E+00  0.14372324850E-02  0.73808522227E-01  0.89103941258E+00  0.88000000000E+00 0. -1.
        -11    1    4    4    0    0 -0.15539384913E-01  0.34341623275E-02 -0.62948908278E-02  0.17121703359E-01  0.51100000000E-03 0. -1.
         11    1    4    4    0    0 -0.81780756727E-01 -0.49923079234E-02 -0.76903819889E-01  0.11237203364E+00  0.51100000000E-03 0.  1.
</event>
<event>
 8    1  0.1094829E+005  0.1043930E+01  0.7957747E-01            NaN
         13   -1    0    0    0    0  0.00000000000E+00  0.00000000000E+00  0.74505805969E-08  0.10566000000E+00  0.10566000000E+00 0.  1.
     999900   -1    0    0    0    0 -0.00000000000E+00 -0.00000000000E+00 -0.74505805969E-08  0.93827000000E+00  0.93827000000E+00 0. -1.
     999902    2    1    2    0    0  0.21013767756E-01  0.76351759254E-02 -0.56414788639E-02  0.10208713654E+01  0.10206109171E+01 0.  0.
     999903    2    3    3    0    0  0.12424550292E+00 -0.17381340857E-01 -0.42411237297E-01  0.13372164161E+00  0.18539373735E-01 0.  0.
         14    1    1    2    0    0 -0.21013767756E-01 -0.76351759254E-02  0.56414788639E-02  0.23058634618E-01  0.00000000000E+00 0. -1.
     999901    1    3    3    0    0 -0.10323173517E+00  0.25016516782E-01  0.36769758433E-01  0.88714972377E+00  0.88000000000E+00 0. -1.
        -11    1    4    4    0    0  0.93627948551E-01 -0.20636072013E-01 -0.34838243255E-01  0.10200982566E+00  0.51100000000E-03 0. -1.
         11    1    4    4    0    0  0.30617554372E-01  0.32547311564E-02 -0.75729940423E-02  0.31711815943E-01  0.51100000000E-03 0.  1.
</event>
<event>
 8    1  0.1094829E+005  0.1043930E+01  0.7957747E-01            NaN
         13   -1    0    0    0    0  0.00000000000E+00  0.00000000000E+00  0.74505805969E-08  0.10566000000E+00  0.10566000000E+00 0.  1.
     999900   -1    0    0    0    0 -0.00000000000E+00 -0.00000000000E+00 -0.74505805969E-08  0.93827000000E+00  0.93827000000E+00 0.  1.
     999902    2    1    2    0    0 -0.16069310692E-01 -0.51138444897E-02  0.16074639667E-01  0.10206326141E+01  0.10203666815E+01 0.  0.
     999903    2    3    3    0    0  0.75110057259E-01 -0.11454730359E-01  0.10507795806E+00  0.13143326933E+00  0.21461487987E-01 0.  0.
         14    1    1    2    0    0  0.16069310692E-01  0.51138444897E-02 -0.16074639667E-01  0.23297385948E-01  0.00000000000E+00 0. -1.
     999901    1    3    3    0    0 -0.91179367951E-01  0.63408858691E-02 -0.89003318395E-01  0.88919934472E+00  0.88000000000E+00 0.  1.
        -11    1    4    4    0    0 -0.92116153834E-03  0.11424461602E-02  0.42414788694E-02  0.45171878208E-02  0.51100000000E-03 0. -1.
         11    1    4    4    0    0  0.76031218797E-01 -0.12597176519E-01  0.10083647919E+00  0.12691608151E+00  0.51100000000E-03 0.  1.
</event>
<event>
 8    1  0.1094829E+005  0.1043930E+01  0.7957747E-01            NaN
         13   -1    0    0    0    0  0.00000000000E+00  0.00000000000E+00  0.74505805969E-08  0.10566000000E+00  0.10566000000E+00 0.  1.
     999900   -1    0    0    0    0 -0.00000000000E+00 -0.00000000000E+00 -0.74505805969E-08  0.93827000000E+00  0.93827000000E+00 0. -1.
     999902    2    1    2    0    0  0.18284741960E-01  0.17874624552E-02  0.14867554466E-01  0.10202958936E+01  0.10200221269E+01 0.  0.
     999903    2    3    3    0    0 -0.44491614164E-02 -0.82431601604E-01 -0.97020859766E-01  0.12893250059E+00  0.19894182539E-01 0.  0.
         14    1    1    2    0    0 -0.18284741960E-01 -0.17874624552E-02 -0.14867554466E-01  0.23634106423E-01  0.00000000000E+00 0. -1.
     999901    1    3    3    0    0  0.22733903377E-01  0.84219064060E-01  0.11188841423E+00  0.89136339298E+00  0.88000000000E+00 0.  1.
        -11    1    4    4    0    0 -0.10086547989E-01 -0.22383982753E-01 -0.29979411705E-01  0.38753159632E-01  0.51100000000E-03 0. -1.
         11    1    4    4    0    0  0.56373865723E-02 -0.60047618851E-01 -0.67041448061E-01  0.90179340961E-01  0.51100000000E-03 0.  1.
</event>
<event>
 8    1  0.1094829E+005  0.1043930E+01  0.7957747E-01            NaN
         13   -1    0    0    0    0  0.00000000000E+00  0.00000000000E+00  0.74505805969E-08  0.10566000000E+00  0.10566000000E+00 0.  1.
     999900   -1    0    0    0    0 -0.00000000000E+00 -0.00000000000E+00 -0.74505805969E-08  0.93827000000E+00  0.93827000000E+00 0.  1.
     999902    2    1    2    0    0 -0.13162467821E-01 -0.16631005994E-01  0.42885208367E-02  0.10222913233E+01  0.10220622864E+01 0.  0.
     999903    2    3    3    0    0 -0.15022644855E-01  0.12591157386E+00  0.24945134901E-01  0.13058030336E+00  0.18696298535E-01 0.  0.
         14    1    1    2    0    0  0.13162467821E-01  0.16631005994E-01 -0.42885208367E-02  0.21638676727E-01  0.00000000000E+00 0.  1.
     999901    1    3    3    0    0  0.18601770341E-02 -0.14254257986E+00 -0.20656614064E-01  0.89171101991E+00  0.88000000000E+00 0.  1.
        -11    1    4    4    0    0 -0.13364334929E-02  0.79520322645E-01  0.11377691408E-01  0.80342894837E-01  0.51100000000E-03 0. -1.
         11    1    4    4    0    0 -0.13686211362E-01  0.46391251220E-01  0.13567443493E-01  0.50237408523E-01  0.51100000000E-03 0.  1.
</event>
<event>
 8    1  0.1094829E+005  0.1043930E+01  0.7957747E-01            NaN
         13   -1    0    0    0    0  0.00000000000E+00  0.00000000000E+00  0.74505805969E-08  0.10566000000E+00  0.10566000000E+00 0.  1.
     999900   -1    0    0    0    0 -0.00000000000E+00 -0.00000000000E+00 -0.74505805969E-08  0.93827000000E+00  0.93827000000E+00 0. -1.
     999902    2    1    2    0    0 -0.11321841060E-01  0.11740816420E-01  0.15466195027E-01  0.10214525881E+01  0.10212052466E+01 0.  0.
     999903    2    3    3    0    0  0.95099079873E-01 -0.84785193066E-01  0.17193435728E-01  0.12979925513E+00  0.17884866310E-01 0.  0.
         14    1    1    2    0    0  0.11321841060E-01 -0.11740816420E-01 -0.15466195027E-01  0.22477411858E-01  0.00000000000E+00 0. -1.
     999901    1    3    3    0    0 -0.10642092093E+00  0.96526009486E-01 -0.17272407016E-02  0.89165333302E+00  0.88000000000E+00 0.  1.
        -11    1    4    4    0    0  0.52502662622E-01 -0.46227293829E-01  0.46996391827E-03  0.69956945790E-01  0.51100000000E-03 0. -1.
         11    1    4    4    0    0  0.42596417251E-01 -0.38557899237E-01  0.16723471810E-01  0.59842309335E-01  0.51100000000E-03 0.  1.
</event>
<event>
 8    1  0.1094829E+005  0.1043930E+01  0.7957747E-01            NaN
         13   -1    0    0    0    0  0.00000000000E+00  0.00000000000E+00  0.74505805969E-08  0.10566000000E+00  0.10566000000E+00 0. -1.
     999900   -1    0    0    0    0 -0.00000000000E+00 -0.00000000000E+00 -0.74505805969E-08  0.93827000000E+00  0.93827000000E+00 0.  1.
     999902    2    1    2    0    0  0.21183294257E-01  0.60886441208E-03 -0.18592660440E-01  0.10157379853E+01  0.10153466724E+01 0.  0.
     999903    2    3    3    0    0 -0.10415020917E+00  0.63348246196E-01 -0.16854882243E-01  0.12464442287E+00  0.19795927106E-01 0.  0.
         14    1    1    2    0    0 -0.21183294257E-01 -0.60886441208E-03  0.18592660440E-01  0.28192014715E-01  0.00000000000E+00 0.  1.
     999901    1    3    3    0    0  0.12533350343E+00 -0.62739381784E-01 -0.17377781969E-02  0.89109356242E+00  0.88000000000E+00 0. -1.
        -11    1    4    4    0    0 -0.83141235497E-01  0.55903465461E-01 -0.75107759063E-02  0.10047056965E+00  0.51100000000E-03 0. -1.
         11    1    4    4    0    0 -0.21008973675E-01  0.74447807350E-02 -0.93441063369E-02  0.24173853216E-01  0.51100000000E-03 0.  1.
</event>
<event>
 8    1  0.1094829E+005  0.1043930E+01  0.7957747E-01            NaN
         13   -1    0    0    0    0  0.00000000000E+00  0.00000000000E+00  0.74505805969E-08  0.10566000000E+00  0.10566000000E+00 0.  1.
     999900   -1    0    0    0    0 -0.00000000000E+00 -0.00000000000E+00 -0.74505805969E-08  0.93827000000E+00  0.93827000000E+00 0. -1.
     999902    2    1    2    0    0  0.20439142890E-01 -0.61218675960E-02 -0.95949662528E-02  0.10205355733E+01  0.10202673949E+01 0.  0.
     999903    2    3    3    0    0 -0.85459771608E-01 -0.36920776853E-01  0.86318583350E-01  0.12848032727E+00  0.19742855359E-01 0.  0.
         14    1    1    2    0    0 -0.20439142890E-01  0.61218675960E-02  0.95949662528E-02  0.23394426737E-01  0.00000000000E+00 0.  1.
     999901    1    3    3    0    0  0.10589891450E+00  0.30798909257E-01 -0.95913549603E-01  0.89205524599E+00  0.88000000000E+00 0. -1.
        -11    1    4    4    0    0 -0.33387307769E-01 -0.21714162039E-01  0.46251776202E-01  0.61038554013E-01  0.51100000000E-03 0.  1.
         11    1    4    4    0    0 -0.52072463839E-01 -0.15206614813E-01  0.40066807148E-01  0.67441773260E-01  0.51100000000E-03 0. -1.
</event>
<event>
 8    1  0.1094829E+005  0.1043930E+01  0.7957747E-01            NaN
         13   -1    0    0    0    0  0.00000000000E+00  0.00000000000E+00  0.74505805969E-08  0.10566000000E+00  0.10566000000E+00 0.  1.
     999900   -1    0    0    0    0 -0.00000000000E+00 -0.00000000000E+00 -0.74505805969E-08  0.93827000000E+00  0.93827000000E+00 0. -1.
     999902    2    1    2    0    0  0.18245088723E-01  0.40664827349E-02 -0.12833140065E-01  0.10212560275E+01  0.10210042922E+01 0.  0.
     999903    2    3    3    0    0  0.37148391365E-01 -0.56371371669E-01  0.10991475870E+00  0.13048270295E+00  0.19665885801E-01 0.  0.
         14    1    1    2    0    0 -0.18245088723E-01 -0.40664827349E-02  0.12833140065E-01  0.22673972485E-01  0.00000000000E+00 0. -1.
     999901    1    3    3    0    0 -0.18903302643E-01  0.60437854404E-01 -0.12274789877E+00  0.89077332456E+00  0.88000000000E+00 0. -1.
        -11    1    4    4    0    0  0.24408726904E-01 -0.28380448487E-01  0.75856108300E-01  0.84591052085E-01  0.51100000000E-03 0. -1.
         11    1    4    4    0    0  0.12739664462E-01 -0.27990923181E-01  0.34058650405E-01  0.45891650870E-01  0.51100000000E-03 0.  1.
</event>
<event>
 8    1  0.1094829E+005  0.1043930E+01  0.7957747E-01            NaN
         13   -1    0    0    0    0  0.00000000000E+00  0.00000000000E+00  0.74505805969E-08  0.10566000000E+00  0.10566000000E+00 0. -1.
     999900   -1    0    0    0    0 -0.00000000000E+00 -0.00000000000E+00 -0.74505805969E-08  0.93827000000E+00  0.93827000000E+00 0.  1.
     999902    2    1    2    0    0 -0.21542407441E-02 -0.15329521063E-01 -0.18768855645E-01  0.10196009040E+01  0.10193105996E+01 0.  0.
     999903    2    3    3    0    0  0.93959189488E-01  0.84866437793E-01 -0.73312198870E-02  0.12864195931E+00  0.21549138190E-01 0.  0.
         14    1    1    2    0    0  0.21542407441E-02  0.15329521063E-01  0.18768855645E-01  0.24329095984E-01  0.00000000000E+00 0. -1.
     999901    1    3    3    0    0 -0.96113430233E-01 -0.10019595886E+00 -0.11437635758E-01  0.89095894471E+00  0.88000000000E+00 0. -1.
        -11    1    4    4    0    0  0.15575744726E-01  0.25994745077E-01  0.35071287380E-03  0.30310307090E-01  0.51100000000E-03 0.  1.
         11    1    4    4    0    0  0.78383444762E-01  0.58871692716E-01 -0.76819327608E-02  0.98331652218E-01  0.51100000000E-03 0. -1.
</event>
<event>
 7    1  0.1094829E+005  0.1043930E+01  0.7957747E-01            NaN
         13   -1    0    0    0    0  0.00000000000E+00  0.00000000000E+00  0.74505805969E-08  0.10566000000E+00  0.10566000000E+00 0. -1.
     999900   -1    0    0    0    0 -0.00000000000E+00 -0.00000000000E+00 -0.74505805969E-08  0.93827000000E+00  0.93827000000E+00 0. -1.
     999903    2    1    2    0    0  0.92426181081E-01  0.47555137901E-01  0.46906359520E-02  0.10592387378E+00  0.19843761741E-01 0.  0.
         14    1    1    2    0    0 -0.22731710695E-02 -0.51789064340E-01  0.12093561946E-01  0.53230900166E-01  0.00000000000E+00 0. -1.
     999901    1    1    2    0    0 -0.90153010012E-01  0.42339264396E-02 -0.16784197898E-01  0.88477522606E+00  0.88000000000E+00 0. -1.
        -11    1    3    3    0    0  0.30298907848E-01  0.20243493936E-01 -0.68532745540E-02  0.37081684922E-01  0.51100000000E-03 0. -1.
         11    1    3    3    0    0  0.62127273233E-01  0.27311643964E-01  0.11543910506E-01  0.68842188854E-01  0.51100000000E-03 0.  1.
</event>
<event>
 8    1  0.1094829E+005  0.1043930E+01  0.7957747E-01            NaN
         13   -1    0    0    0    0  0.00000000000E+00  0.00000000000E+00  0.74505805969E-08  0.10566000000E+00  0.10566000000E+00 0.  1.
     999900   -1    0    0    0    0 -0.00000000000E+00 -0.00000000000E+00 -0.74505805969E-08  0.93827000000E+00  0.93827000000E+00 0.  1.
     999902    2    1    2    0    0  0.17475742101E-01  0.94250575118E-02 -0.13721702120E-01  0.10197945825E+01  0.10195089367E+01 0.  0.
     999903    2    3    3    0    0  0.11257334972E+00  0.66950913802E-01 -0.78025039744E-02  0.13278397597E+00  0.20384339083E-01 0.  0.
         14    1    1    2    0    0 -0.17475742101E-01 -0.94250575118E-02  0.13721702120E-01  0.24135417547E-01  0.00000000000E+00 0. -1.
     999901    1    3    3    0    0 -0.95097607615E-01 -0.57525856290E-01 -0.59191981458E-02  0.88701060649E+00  0.88000000000E+00 0.  1.
        -11    1    4    4    0    0  0.32091634391E-01  0.10162558024E-01 -0.64213488201E-02  0.34273100606E-01  0.51100000000E-03 0.  1.
         11    1    4    4    0    0  0.80481715324E-01  0.56788355778E-01 -0.13811551543E-02  0.98510875360E-01  0.51100000000E-03 0. -1.
</event>
<event>
 8    1  0.1094829E+005  0.1043930E+01  0.7957747E-01            NaN
         13   -1    0    0    0    0  0.00000000000E+00  0.00000000000E+00  0.74505805969E-08  0.10566000000E+00  0.10566000000E+00 0.  1.
     999900   -1    0    0    0    0 -0.00000000000E+00 -0.00000000000E+00 -0.74505805969E-08  0.93827000000E+00  0.93827000000E+00 0. -1.
     999902    2    1    2    0    0  0.23371597037E-01  0.12169984982E-02  0.55987739030E-02  0.10198663572E+01  0.10195824281E+01 0.  0.
     999903    2    3    3    0    0  0.54771488780E-01 -0.97736439108E-02  0.11810712886E+00  0.13207985287E+00  0.20008836757E-01 0.  0.
         14    1    1    2    0    0 -0.23371597037E-01 -0.12169984982E-02 -0.55987739030E-02  0.24063642754E-01  0.00000000000E+00 0. -1.
     999901    1    3    3    0    0 -0.31399891743E-01  0.10990642409E-01 -0.11250835495E+00  0.88778650438E+00  0.88000000000E+00 0. -1.
        -11    1    4    4    0    0  0.12457974841E-01 -0.10544542500E-01  0.25816675845E-01  0.30547510313E-01  0.51100000000E-03 0. -1.
         11    1    4    4    0    0  0.42313513939E-01  0.77089858875E-03  0.92290453011E-01  0.10153234255E+00  0.51100000000E-03 0.  1.
</event>
<event>
 8    1  0.1094829E+005  0.1043930E+01  0.7957747E-01            NaN
         13   -1    0    0    0    0  0.00000000000E+00  0.00000000000E+00  0.74505805969E-08  0.10566000000E+00  0.10566000000E+00 0. -1.
     999900   -1    0    0    0    0 -0.00000000000E+00 -0.00000000000E+00 -0.74505805969E-08  0.93827000000E+00  0.93827000000E+00 0. -1.
     999902    2    1    2    0    0  0.16382014496E-01 -0.15386065613E-01  0.10527266126E-01  0.10191121688E+01  0.10188099370E+01 0.  0.
     999903    2    3    3    0    0 -0.29887969173E-01 -0.11940583547E+00  0.40971806244E-01  0.13125638437E+00  0.19962597138E-01 0.  0.
         14    1    1    2    0    0 -0.16382014496E-01  0.15386065613E-01 -0.10527266126E-01  0.24817831212E-01  0.00000000000E+00 0.  1.
     999901    1    3    3    0    0  0.46269983670E-01  0.10401976986E+00 -0.30444540119E-01  0.88785578442E+00  0.88000000000E+00 0.  1.
        -11    1    4    4    0    0 -0.19086378700E-01 -0.50298998643E-01  0.25867241767E-01  0.59696351933E-01  0.51100000000E-03 0.  1.
         11    1    4    4    0    0 -0.10801590473E-01 -0.69106836825E-01  0.15104564477E-01  0.71560032433E-01  0.51100000000E-03 0. -1.
</event>
<event>
 8    1  0.1420947E+005  0.1043930E+01  0.7957747E-01            NaN
         13   -1    0    0    0    0  0.00000000000E+00  0.00000000000E+00  0.74505805969E-08  0.10566000000E+00  0.10566000000E+00 0. -1.
     999900   -1    0    0    0    0 -0.00000000000E+00 -0.00000000000E+00 -0.74505805969E-08  0.93827000000E+00  0.93827000000E+00 0.  1.
     999902    2    1    2    0    0 -0.40935023873E-02 -0.85729182779E-02  0.21845486360E-01  0.10201082250E+01  0.10198300416E+01 0.  0.
     999903    2    3    3    0    0 -0.12354295256E+00  0.11465202608E-01 -0.37551520078E-01  0.12982866116E+00  0.71451101607E-02 0.  0.
         14    1    1    2    0    0  0.40935023873E-02  0.85729182779E-02 -0.21845486360E-01  0.23821774995E-01  0.00000000000E+00 0.  1.
     999901    1    3    3    0    0  0.11944945017E+00 -0.20038120886E-01  0.59397006438E-01  0.89027956385E+00  0.88000000000E+00 0. -1.
        -11    1    4    4    0    0 -0.53441386867E-01  0.49164539807E-02 -0.12591894023E-01  0.55126856124E-01  0.51100000000E-03 0.  1.
         11    1    4    4    0    0 -0.70101565693E-01  0.65487486272E-02 -0.24959626055E-01  0.74701805031E-01  0.51100000000E-03 0. -1.
</event>
<event>
 8    1  0.1094829E+005  0.1043930E+01  0.7957747E-01            NaN
         13   -1    0    0    0    0  0.00000000000E+00  0.00000000000E+00  0.74505805969E-08  0.10566000000E+00  0.10566000000E+00 0. -1.
     999900   -1    0    0    0    0 -0.00000000000E+00 -0.00000000000E+00 -0.74505805969E-08  0.93827000000E+00  0.93827000000E+00 0. -1.
     999902    2    1    2    0    0 -0.23453812093E-01 -0.26323824957E-02 -0.45563846026E-02  0.10198931246E+01  0.10196098343E+01 0.  0.
     999903    2    3    3    0    0  0.19366642901E-01 -0.12709440247E+00  0.34275470087E-02  0.13006835029E+00  0.19441544975E-01 0.  0.
         14    1    1    2    0    0  0.23453812093E-01  0.26323824957E-02  0.45563846026E-02  0.24036875420E-01  0.00000000000E+00 0.  1.
     999901    1    3    3    0    0 -0.42820454994E-01  0.12446201998E+00 -0.79839316113E-02  0.88982477429E+00  0.88000000000E+00 0. -1.
        -11    1    4    4    0    0  0.21970465418E-01 -0.90241943635E-01 -0.77236732654E-03  0.92882546337E-01  0.51100000000E-03 0.  1.
         11    1    4    4    0    0 -0.26038225173E-02 -0.36852458836E-01  0.41999143352E-02  0.37185803950E-01  0.51100000000E-03 0. -1.
</event>
<event>
 8    1  0.1094829E+005  0.1043930E+01  0.7957747E-01            NaN
         13   -1    0    0    0    0  0.00000000000E+00  0.00000000000E+00  0.74505805969E-08  0.10566000000E+00  0.10566000000E+00 0. -1.
     999900   -1    0    0    0    0 -0.00000000000E+00 -0.00000000000E+00 -0.74505805969E-08  0.93827000000E+00  0.93827000000E+00 0. -1.
     999902    2    1    2    0    0  0.18973289768E-02  0.22761000534E-01  0.79043807422E-02  0.10197609653E+01  0.10194745137E+01 0.  0.
     999903    2    3    3    0    0  0.10814323587E+00 -0.47627946493E-01  0.49559338205E-01  0.12960483740E+00  0.19439781928E-01 0.  0.
         14    1    1    2    0    0 -0.18973289768E-02 -0.22761000534E-01 -0.79043807422E-02  0.24169034683E-01  0.00000000000E+00 0.  1.
     999901    1    3    3    0    0 -0.10624590689E+00  0.70388947027E-01 -0.41654957463E-01  0.89015612792E+00  0.88000000000E+00 0.  1.
        -11    1    4    4    0    0  0.31080283580E-01 -0.10264814794E-01  0.51725094458E-02  0.33141611686E-01  0.51100000000E-03 0.  1.
         11    1    4    4    0    0  0.77062952290E-01 -0.37363131698E-01  0.44386828759E-01  0.96463225710E-01  0.51100000000E-03 0. -1.
</event>
<event>
 8    1  0.1094829E+005  0.1043930E+01  0.7957747E-01            NaN
         13   -1    0    0    0    0  0.00000000000E+00  0.00000000000E+00  0.74505805969E-08  0.10566000000E+00  0.10566000000E+00 0. -1.
     999900   -1    0    0    0    0 -0.00000000000E+00 -0.00000000000E+00 -0.74505805969E-08  0.93827000000E+00  0.93827000000E+00 0. -1.
     999902    2    1    2    0    0 -0.23022357992E-01  0.61028185837E-02 -0.12018790203E-01  0.10172518314E+01  0.10169019440E+01 0.  0.
     999903    2    3    3    0    0 -0.10297839523E+00  0.52262578100E-01 -0.58870050008E-01  0.13118257234E+00  0.20180623012E-01 0.  0.
         14    1    1    2    0    0  0.23022357992E-01 -0.61028185837E-02  0.12018790203E-01  0.26678168605E-01  0.00000000000E+00 0. -1.
     999901    1    3    3    0    0  0.79956037238E-01 -0.46159759517E-01  0.46851259805E-01  0.88606925905E+00  0.88000000000E+00 0. -1.
        -11    1    4    4    0    0 -0.60220235017E-01  0.23098685074E-01 -0.24230861222E-01  0.68901536370E-01  0.51100000000E-03 0. -1.
         11    1    4    4    0    0 -0.42758160213E-01  0.29163893026E-01 -0.34639188786E-01  0.62281035974E-01  0.51100000000E-03 0.  1.
</event>
<event>
 8    1  0.1094829E+005  0.1043930E+01  0.7957747E-01            NaN
         13   -1    0    0    0    0  0.00000000000E+00  0.00000000000E+00  0.74505805969E-08  0.10566000000E+00  0.10566000000E+00 0. -1.
     999900   -1    0    0    0    0 -0.00000000000E+00 -0.00000000000E+00 -0.74505805969E-08  0.93827000000E+00  0.93827000000E+00 0.  1.
     999902    2    1    2    0    0  0.22925703535E-01 -0.93576188799E-02  0.10403543925E-02  0.10191462301E+01  0.10188448376E+01 0.  0.
     999903    2    3    3    0    0  0.38293339682E-01  0.72682515853E-01 -0.98367243764E-01  0.12962466289E+00  0.19424484764E-01 0.  0.
         14    1    1    2    0    0 -0.22925703535E-01  0.93576188799E-02 -0.10403543925E-02  0.24783769909E-01  0.00000000000E+00 0. -1.
     999901    1    3    3    0    0 -0.15367636147E-01 -0.82040134733E-01  0.99407598157E-01  0.88952156720E+00  0.88000000000E+00 0. -1.
        -11    1    4    4    0    0  0.13554456974E-01  0.40911362579E-01 -0.60982153155E-01  0.74676281484E-01  0.51100000000E-03 0. -1.
         11    1    4    4    0    0  0.24738882708E-01  0.31771153274E-01 -0.37385090609E-01  0.54948381404E-01  0.51100000000E-03 0.  1.
</event>
<event>
 8    1  0.1094829E+005  0.1043930E+01  0.7957747E-01            NaN
         13   -1    0    0    0    0  0.00000000000E+00  0.00000000000E+00  0.74505805969E-08  0.10566000000E+00  0.10566000000E+00 0. -1.
     999900   -1    0    0    0    0 -0.00000000000E+00 -0.00000000000E+00 -0.74505805969E-08  0.93827000000E+00  0.93827000000E+00 0.  1.
     999902    2    1    2    0    0 -0.20856247920E-01  0.63698057042E-02  0.13628029568E-01  0.10182146215E+01  0.10178898441E+01 0.  0.
     999903    2    3    3    0    0  0.80799344077E-01 -0.69362280842E-01  0.68072869358E-01  0.12746580791E+00  0.16551635457E-01 0.  0.
         14    1    1    2    0    0  0.20856247920E-01 -0.63698057042E-02 -0.13628029568E-01  0.25715378510E-01  0.00000000000E+00 0. -1.
     999901    1    3    3    0    0 -0.10165559200E+00  0.75732086546E-01 -0.54444839790E-01  0.89074881358E+00  0.88000000000E+00 0.  1.
        -11    1    4    4    0    0  0.21788407862E-01 -0.21448017089E-01  0.11337787832E-01  0.32612247824E-01  0.51100000000E-03 0.  1.
         11    1    4    4    0    0  0.59010936214E-01 -0.47914263753E-01  0.56735081526E-01  0.94853560084E-01  0.51100000000E-03 0. -1.
</event>
<event>
 8    1  0.1094829E+005  0.1043930E+01  0.7957747E-01            NaN
         13   -1    0    0    0    0  0.00000000000E+00  0.00000000000E+00  0.74505805969E-08  0.10566000000E+00  0.10566000000E+00 0. -1.
     999900   -1    0    0    0    0 -0.00000000000E+00 -0.00000000000E+00 -0.74505805969E-08  0.93827000000E+00  0.93827000000E+00 0.  1.
     999902    2    1    2    0    0 -0.40378268722E-03 -0.22702025030E-01 -0.10851050599E-01  0.10187647406E+01  0.10184538804E+01 0.  0.
     999903    2    3    3    0    0 -0.10050008060E+00  0.33200570059E-01 -0.70637728955E-01  0.12931613844E+00  0.23031084596E-01 0.  0.
         14    1    1    2    0    0  0.40378268722E-03  0.22702025030E-01  0.10851050599E-01  0.25165259387E-01  0.00000000000E+00 0. -1.
     999901    1    3    3    0    0  0.10009629791E+00 -0.55902595089E-01  0.59786678355E-01  0.88944860217E+00  0.88000000000E+00 0. -1.
        -11    1    4    4    0    0 -0.29961847066E-01  0.20279048966E-01 -0.18392269219E-01  0.40589269451E-01  0.51100000000E-03 0.  1.
         11    1    4    4    0    0 -0.70538233531E-01  0.12921521093E-01 -0.52245459736E-01  0.88726868992E-01  0.51100000000E-03 0. -1.
</event>
<event>
 8    1  0.1094829E+005  0.1043930E+01  0.7957747E-01            NaN
         13   -1    0    0    0    0  0.00000000000E+00  0.00000000000E+00  0.74505805969E-08  0.10566000000E+00  0.10566000000E+00 0.  1.
     999900   -1    0    0    0    0 -0.00000000000E+00 -0.00000000000E+00 -0.74505805969E-08  0.93827000000E+00  0.93827000000E+00 0. -1.
     999902    2    1    2    0    0 -0.11786309622E-01 -0.30447231913E-03  0.19948281367E-01  0.10207579538E+01  0.10204949076E+01 0.  0.
     999903    2    3    3    0    0 -0.97322967678E-02  0.66368221875E-01  0.11341159109E+00  0.13329817585E+00  0.20168198181E-01 0.  0.
         14    1    1    2    0    0  0.11786309622E-01  0.30447231913E-03 -0.19948281367E-01  0.23172046250E-01  0.00000000000E+00 0. -1.
     999901    1    3    3    0    0 -0.20540128538E-02 -0.66672694194E-01 -0.93463309720E-01  0.88745977790E+00  0.88000000000E+00 0. -1.
        -11    1    4    4    0    0 -0.59908987574E-02  0.44563139133E-02  0.18036440859E-01  0.19527517033E-01  0.51100000000E-03 0. -1.
         11    1    4    4    0    0 -0.37413980104E-02  0.61911907961E-01  0.95375150228E-01  0.11377065882E+00  0.51100000000E-03 0.  1.
</event>
<event>
 8    1  0.1094829E+005  0.1043930E+01  0.7957747E-01            NaN
         13   -1    0    0    0    0  0.00000000000E+00  0.00000000000E+00  0.74505805969E-08  0.10566000000E+00  0.10566000000E+00 0.  1.
     999900   -1    0    0    0    0 -0.00000000000E+00 -0.00000000000E+00 -0.74505805969E-08  0.93827000000E+00  0.93827000000E+00 0.  1.
     999902    2    1    2    0    0  0.16917444160E-01 -0.14609805480E-01  0.91223965943E-02  0.10197874141E+01  0.10195015966E+01 0.  0.
     999903    2    3    3    0    0  0.12429184993E+00 -0.38504879753E-01 -0.15232576798E-01  0.13260456808E+00  0.20514637595E-01 0.  0.
         14    1    1    2    0    0 -0.16917444160E-01  0.14609805480E-01 -0.91223965943E-02  0.24142585874E-01  0.00000000000E+00 0.  1.
     999901    1    3    3    0    0 -0.10737440577E+00  0.23895074273E-01  0.24354973393E-01  0.88718284605E+00  0.88000000000E+00 0. -1.
        -11    1    4    4    0    0  0.99740279122E-01 -0.23599056104E-01 -0.70613937853E-02  0.10273832358E+00  0.51100000000E-03 0. -1.
         11    1    4    4    0    0  0.24551570809E-01 -0.14905823649E-01 -0.81711830131E-02  0.29866244502E-01  0.51100000000E-03 0.  1.
</event>
<event>
 7    1  0.1094829E+005  0.1043930E+01  0.7957747E-01            NaN
         13   -1    0    0    0    0  0.00000000000E+00  0.00000000000E+00  0.74505805969E-08  0.10566000000E+00  0.10566000000E+00 0.  1.
     999900   -1    0    0    0    0 -0.00000000000E+00 -0.00000000000E+00 -0.74505805969E-08  0.93827000000E+00  0.93827000000E+00 0.  1.
     999903    2    1    2    0    0 -0.28601506580E-01 -0.31975098471E-01 -0.43855870240E-01  0.64448003704E-01  0.19742206718E-01 0.  0.
         14    1    1    2    0    0 -0.84579910631E-02  0.90300241262E-01 -0.25039211997E-01  0.94088433520E-01  0.00000000000E+00 0. -1.
     999901    1    1    2    0    0  0.37059497644E-01 -0.58325142791E-01  0.68895082237E-01  0.88539356278E+00  0.88000000000E+00 0. -1.
        -11    1    3    3    0    0 -0.54048026440E-02 -0.11148925560E-01 -0.24895425722E-02  0.12647900062E-01  0.51100000000E-03 0. -1.
         11    1    3    3    0    0 -0.23196703936E-01 -0.20826172911E-01 -0.41366327668E-01  0.51800103642E-01  0.51100000000E-03 0.  1.
</event>
<event>
 8    1  0.1094829E+005  0.1043930E+01  0.7957747E-01            NaN
         13   -1    0    0    0    0  0.00000000000E+00  0.00000000000E+00  0.74505805969E-08  0.10566000000E+00  0.10566000000E+00 0. -1.
     999900   -1    0    0    0    0 -0.00000000000E+00 -0.00000000000E+00 -0.74505805969E-08  0.93827000000E+00  0.93827000000E+00 0. -1.
     999902    2    1    2    0    0  0.92908229608E-02 -0.13492691480E-01 -0.92091086821E-02  0.10251369216E+01  0.10249646473E+01 0.  0.
     999903    2    3    3    0    0  0.72635016585E-01  0.90382462694E-01  0.63632216180E-01  0.13378491863E+00  0.20112441892E-01 0.  0.
         14    1    1    2    0    0 -0.92908229608E-02  0.13492691480E-01  0.92091086821E-02  0.18793078444E-01  0.00000000000E+00 0. -1.
     999901    1    3    3    0    0 -0.63344193625E-01 -0.10387515417E+00 -0.72841324862E-01  0.89135200293E+00  0.88000000000E+00 0. -1.
        -11    1    4    4    0    0  0.11447710068E-01  0.27169398891E-01  0.12495456650E-01  0.32025362758E-01  0.51100000000E-03 0. -1.
         11    1    4    4    0    0  0.61187306517E-01  0.63213063803E-01  0.51136759530E-01  0.10175955587E+00  0.51100000000E-03 0.  1.
</event>
<event>
 8    1  0.1094829E+005  0.1043930E+01  0.7957747E-01            NaN
         13   -1    0    0    0    0  0.00000000000E+00  0.00000000000E+00  0.74505805969E-08  0.10566000000E+00  0.10566000000E+00 0.  1.
     999900   -1    0    0    0    0 -0.00000000000E+00 -0.00000000000E+00 -0.74505805969E-08  0.93827000000E+00  0.93827000000E+00 0. -1.
     999902    2    1    2    0    0  0.13412324374E-01  0.19945715754E-01 -0.31277282425E-03  0.10198921164E+01  0.10196088020E+01 0.  0.
     999903    2    3    3    0    0 -0.93667336543E-01 -0.75224125516E-01 -0.37325332776E-01  0.12753944951E+00  0.20997421767E-01 0.  0.
         14    1    1    2    0    0 -0.13412324374E-01 -0.19945715754E-01  0.31277282425E-03  0.24037883619E-01  0.00000000000E+00 0. -1.
     999901    1    3    3    0    0  0.10707966092E+00  0.95169841270E-01  0.37012559952E-01  0.89235266687E+00  0.88000000000E+00 0.  1.
        -11    1    4    4    0    0 -0.44695014390E-01 -0.45288296161E-01 -0.27436797841E-01  0.69294394270E-01  0.51100000000E-03 0.  1.
         11    1    4    4    0    0 -0.48972322154E-01 -0.29935829355E-01 -0.98885349353E-02  0.58245055245E-01  0.51100000000E-03 0. -1.
</event>
<event>
 8    1  0.1111735E+005  0.1043930E+01  0.7957747E-01            NaN
         13   -1    0    0    0    0  0.00000000000E+00  0.00000000000E+00  0.74505805969E-08  0.10566000000E+00  0.10566000000E+00 0. -1.
     999900   -1    0    0    0    0 -0.00000000000E+00 -0.00000000000E+00 -0.74505805969E-08  0.93827000000E+00  0.93827000000E+00 0.  1.
     999902    2    1    2    0    0  0.21582711714E-01  0.85923022504E-02  0.20384741138E-02  0.10206105558E+01  0.10203441135E+01 0.  0.
     999903    2    3    3    0    0 -0.25756702201E-01  0.10727993546E+00 -0.67778307995E-01  0.13108559708E+00  0.20424065865E-01 0.  0.
         14    1    1    2    0    0 -0.21582711714E-01 -0.85923022504E-02 -0.20384741138E-02  0.23319444238E-01  0.00000000000E+00 0.  1.
     999901    1    3    3    0    0  0.47339413914E-01 -0.98687633207E-01  0.69816782109E-01  0.88952495868E+00  0.88000000000E+00 0. -1.
        -11    1    4    4    0    0 -0.22372522505E-01  0.52280710863E-01 -0.30238914764E-01  0.64408505484E-01  0.51100000000E-03 0.  1.
         11    1    4    4    0    0 -0.33841796956E-02  0.54999224594E-01 -0.37539393231E-01  0.66677091593E-01  0.51100000000E-03 0. -1.
</event>
<event>
 8    1  0.1094829E+005  0.1043930E+01  0.7957747E-01            NaN
         13   -1    0    0    0    0  0.00000000000E+00  0.00000000000E+00  0.74505805969E-08  0.10566000000E+00  0.10566000000E+00 0.  1.
     999900   -1    0    0    0    0 -0.00000000000E+00 -0.00000000000E+00 -0.74505805969E-08  0.93827000000E+00  0.93827000000E+00 0. -1.
     999902    2    1    2    0    0 -0.13204313784E-01  0.19036606461E-01  0.78318249303E-02  0.10194742487E+01  0.10191808770E+01 0.  0.
     999903    2    3    3    0    0 -0.41164075429E-01 -0.98809056146E-01  0.69329059613E-01  0.12905229352E+00  0.19755132824E-01 0.  0.
         14    1    1    2    0    0  0.13204313784E-01 -0.19036606461E-01 -0.78318249303E-02  0.24455751262E-01  0.00000000000E+00 0. -1.
     999901    1    3    3    0    0  0.27959761646E-01  0.11784566261E+00 -0.61497234682E-01  0.89042195522E+00  0.88000000000E+00 0. -1.
        -11    1    4    4    0    0 -0.32962816787E-01 -0.92867653776E-01  0.60718296453E-01  0.11574938900E+00  0.51100000000E-03 0. -1.
         11    1    4    4    0    0 -0.82012586425E-02 -0.59414023698E-02  0.86107631595E-02  0.13302904519E-01  0.51100000000E-03 0.  1.
</event>
<event>
 8    1  0.1094829E+005  0.1043930E+01  0.7957747E-01            NaN
         13   -1    0    0    0    0  0.00000000000E+00  0.00000000000E+00  0.74505805969E-08  0.10566000000E+00  0.10566000000E+00 0.  1.
     999900   -1    0    0    0    0 -0.00000000000E+00 -0.00000000000E+00 -0.74505805969E-08  0.93827000000E+00  0.93827000000E+00 0. -1.
     999902    2    1    2    0    0 -0.13837190931E-01  0.17804271364E-01 -0.10705195633E-01  0.10189688072E+01  0.10186630301E+01 0.  0.
     999903    2    3    3    0    0 -0.59397813920E-01 -0.11122292151E+00 -0.11112689348E-01  0.12839373856E+00  0.21513290529E-01 0.  0.
         14    1    1    2    0    0  0.13837190931E-01 -0.17804271364E-01  0.10705195633E-01  0.24961192784E-01  0.00000000000E+00 0. -1.
     999901    1    3    3    0    0  0.45560622989E-01  0.12902719287E+00  0.40749371454E-03  0.89057506866E+00  0.88000000000E+00 0.  1.
        -11    1    4    4    0    0 -0.40946033908E-01 -0.60708052055E-01 -0.13918565867E-01  0.74538801130E-01  0.51100000000E-03 0. -1.
         11    1    4    4    0    0 -0.18451780012E-01 -0.50514869450E-01  0.28058765189E-02  0.53854937427E-01  0.51100000000E-03 0.  1.
</event>
<event>
 7    1  0.1094829E+005  0.1043930E+01  0.7957747E-01            NaN
         13   -1    0    0    0    0  0.00000000000E+00  0.00000000000E+00  0.74505805969E-08  0.10566000000E+00  0.10566000000E+00 0. -1.
     999900   -1    0    0    0    0 -0.00000000000E+00 -0.00000000000E+00 -0.74505805969E-08  0.93827000000E+00  0.93827000000E+00 0.  1.
     999902    2    1    2    0    0 -0.11143055174E-01 -0.11324098746E-01 -0.17540319739E-01  0.10202642926E+01  0.10199897848E+01 0.  0.
         14    1    1    2    0    0  0.11143055174E-01  0.11324098746E-01  0.17540319739E-01  0.23665707417E-01  0.00000000000E+00 0.  1.
     999901    1    3    3    0    0  0.59886393243E-01  0.50362227044E-01 -0.99742175959E-01  0.88908449299E+00  0.88000000000E+00 0.  1.
        -11    1    3    3    0    0 -0.37486308271E-01 -0.37046693202E-01  0.20078184915E-01  0.56401023177E-01  0.51100000000E-03 0. -1.
         11    1    3    3    0    0 -0.33543140146E-01 -0.24639632588E-01  0.62123671305E-01  0.74778776417E-01  0.51100000000E-03 0.  1.
</event>
<event>
 8    1  0.1094829E+005  0.1043930E+01  0.7957747E-01            NaN
         13   -1    0    0    0    0  0.00000000000E+00  0.00000000000E+00  0.74505805969E-08  0.10566000000E+00  0.10566000000E+00 0.  1.
     999900   -1    0    0    0    0 -0.00000000000E+00 -0.00000000000E+00 -0.74505805969E-08  0.93827000000E+00  0.93827000000E+00 0. -1.
     999902    2    1    2    0    0 -0.16543222365E-01  0.11370885023E-01 -0.11138846351E-01  0.10209724494E+01  0.10207143054E+01 0.  0.
     999903    2    3    3    0    0  0.11823798814E+00 -0.32390904401E-01  0.33353576700E-01  0.12852601142E+00  0.19418599495E-01 0.  0.
         14    1    1    2    0    0  0.16543222365E-01 -0.11370885023E-01  0.11138846351E-01  0.22957550620E-01  0.00000000000E+00 0.  1.
     999901    1    3    3    0    0 -0.13478121050E+00  0.43761789424E-01 -0.44492423051E-01  0.89244643796E+00  0.88000000000E+00 0.  1.
        -11    1    4    4    0    0  0.88312858636E-01 -0.31099930949E-01  0.30312098425E-01  0.98414689642E-01  0.51100000000E-03 0. -1.
         11    1    4    4    0    0  0.29925129502E-01 -0.12909734515E-02  0.30414782747E-02  0.30111321778E-01  0.51100000000E-03 0.  1.
</event>
<event>
 8    1  0.1094829E+005  0.1043930E+01  0.7957747E-01            NaN
         13   -1    0    0    0    0  0.00000000000E+00  0.00000000000E+00  0.74505805969E-08  0.10566000000E+00  0.10566000000E+00 0.  1.
     999900   -1    0    0    0    0 -0.00000000000E+00 -0.00000000000E+00 -0.74505805969E-08  0.93827000000E+00  0.93827000000E+00 0. -1.
     999902    2    1    2    0    0 -0.36922743400E-02  0.94189790747E-02 -0.13677366997E-01  0.10269176391E+01  0.10267767123E+01 0.  0.
     999903    2    3    3    0    0  0.12840545874E+00  0.34718382853E-01 -0.23867642984E-01  0.13664031562E+00  0.20188698065E-01 0.  0.
         14    1    1    2    0    0  0.36922743400E-02 -0.94189790747E-02  0.13677366997E-01  0.17012360935E-01  0.00000000000E+00 0.  1.
     999901    1    3    3    0    0 -0.13209773308E+00 -0.25299403779E-01  0.10190275987E-01  0.89027732345E+00  0.88000000000E+00 0. -1.
        -11    1    4    4    0    0  0.29946894937E-01  0.14370031316E-01 -0.12353042626E-01  0.35442532351E-01  0.51100000000E-03 0. -1.
         11    1    4    4    0    0  0.98458563801E-01  0.20348351537E-01 -0.11514600358E-01  0.10119778327E+00  0.51100000000E-03 0.  1.
</event>
<event>
 8    1  0.1094829E+005  0.1043930E+01  0.7957747E-01            NaN
         13   -1    0    0    0    0  0.00000000000E+00  0.00000000000E+00  0.74505805969E-08  0.10566000000E+00  0.10566000000E+00 0.  1.
     999900   -1    0    0    0    0 -0.00000000000E+00 -0.00000000000E+00 -0.74505805969E-08  0.93827000000E+00  0.93827000000E+00 0. -1.
     999902    2    1    2    0    0 -0.17176867109E-01  0.15115031542E-01 -0.11075637502E-01  0.10185099550E+01  0.10181926879E+01 0.  0.
     999903    2    3    3    0    0 -0.50792860772E-01 -0.95626416540E-01  0.64528957677E-01  0.12771830810E+00  0.20582847230E-01 0.  0.
         14    1    1    2    0    0  0.17176867109E-01 -0.15115031542E-01  0.11075637502E-01  0.25420045009E-01  0.00000000000E+00 0.  1.
     999901    1    3    3    0    0  0.33615993663E-01  0.11074144808E+00 -0.75604595179E-01  0.89079164689E+00  0.88000000000E+00 0. -1.
        -11    1    4    4    0    0 -0.30414622932E-01 -0.36100964880E-01  0.25103543847E-01  0.53467541444E-01  0.51100000000E-03 0. -1.
         11    1    4    4    0    0 -0.20378237840E-01 -0.59525451660E-01  0.39425413830E-01  0.74250766659E-01  0.51100000000E-03 0.  1.
</event>
<event>
 8    1  0.1094829E+005  0.1043930E+01  0.7957747E-01            NaN
         13   -1    0    0    0    0  0.00000000000E+00  0.00000000000E+00  0.74505805969E-08  0.10566000000E+00  0.10566000000E+00 0. -1.
     999900   -1    0    0    0    0 -0.00000000000E+00 -0.00000000000E+00 -0.74505805969E-08  0.93827000000E+00  0.93827000000E+00 0. -1.
     999902    2    1    2    0    0 -0.39636623585E-02  0.22783080782E-01 -0.12794759849E-02  0.10207693340E+01  0.10205065491E+01 0.  0.
     999903    2    3    3    0    0  0.57606534266E-02 -0.76853430697E-01 -0.10192966751E+00  0.12939261357E+00  0.20326248749E-01 0.  0.
         14    1    1    2    0    0  0.39636623585E-02 -0.22783080782E-01  0.12794759849E-02  0.23160665966E-01  0.00000000000E+00 0. -1.
     999901    1    3    3    0    0 -0.97243157851E-02  0.99636511479E-01  0.10065019153E+00  0.89137672047E+00  0.88000000000E+00 0.  1.
        -11    1    4    4    0    0  0.69978294374E-02 -0.81402800190E-02 -0.17379141521E-01  0.20433537546E-01  0.51100000000E-03 0.  1.
         11    1    4    4    0    0 -0.12371760108E-02 -0.68713150678E-01 -0.84550525993E-01  0.10895907602E+00  0.51100000000E-03 0. -1.
</event>
<event>
 8    1  0.1094829E+005  0.1043930E+01  0.7957747E-01            NaN
         13   -1    0    0    0    0  0.00000000000E+00  0.00000000000E+00  0.74505805969E-08  0.10566000000E+00  0.10566000000E+00 0.  1.
     999900   -1    0    0    0    0 -0.00000000000E+00 -0.00000000000E+00 -0.74505805969E-08  0.93827000000E+00  0.93827000000E+00 0. -1.
     999902    2    1    2    0    0  0.50039104001E-02  0.76113927055E-02 -0.21657389733E-01  0.10204350016E+01  0.10201644856E+01 0.  0.
     999903    2    3    3    0    0 -0.11156912939E-02  0.12803104381E+00 -0.26687682668E-01  0.13219874604E+00  0.19263517446E-01 0.  0.
         14    1    1    2    0    0 -0.50039104001E-02 -0.76113927055E-02  0.21657389733E-01  0.23494998367E-01  0.00000000000E+00 0.  1.
     999901    1    3    3    0    0  0.61196016939E-02 -0.12041965110E+00  0.50302929356E-02  0.88823625559E+00  0.88000000000E+00 0. -1.
        -11    1    4    4    0    0  0.55886348976E-02  0.41823553298E-01 -0.15743735903E-01  0.45039635785E-01  0.51100000000E-03 0.  1.
         11    1    4    4    0    0 -0.67043261914E-02  0.86207490508E-01 -0.10943946765E-01  0.87159110259E-01  0.51100000000E-03 0. -1.
</event>
<event>
 8    1  0.1094829E+005  0.1043930E+01  0.7957747E-01            NaN
         13   -1    0    0    0    0  0.00000000000E+00  0.00000000000E+00  0.74505805969E-08  0.10566000000E+00  0.10566000000E+00 0. -1.
     999900   -1    0    0    0    0 -0.00000000000E+00 -0.00000000000E+00 -0.74505805969E-08  0.93827000000E+00  0.93827000000E+00 0.  1.
     999902    2    1    2    0    0  0.19597352013E-01  0.11951132049E-01 -0.54745383593E-02  0.10203321964E+01  0.10200592800E+01 0.  0.
     999903    2    3    3    0    0 -0.71606168812E-01 -0.86114201931E-01 -0.59702274850E-01  0.12854997002E+00  0.20436095095E-01 0.  0.
         14    1    1    2    0    0 -0.19597352013E-01 -0.11951132049E-01  0.54745383593E-02  0.23597803572E-01  0.00000000000E+00 0.  1.
     999901    1    3    3    0    0  0.91203520825E-01  0.98065333979E-01  0.54227736491E-01  0.89178222641E+00  0.88000000000E+00 0.  1.
        -11    1    4    4    0    0 -0.18634447459E-01 -0.18609347842E-01 -0.23915616142E-01  0.35577637297E-01  0.51100000000E-03 0. -1.
         11    1    4    4    0    0 -0.52971721354E-01 -0.67504854089E-01 -0.35786658708E-01  0.92972332719E-01  0.51100000000E-03 0.  1.
</event>
<event>
 8    1  0.1094829E+005  0.1043930E+01  0.7957747E-01            NaN
         13   -1    0    0    0    0  0.00000000000E+00  0.00000000000E+00  0.74505805969E-08  0.10566000000E+00  0.10566000000E+00 0.  1.
     999900   -1    0    0    0    0 -0.00000000000E+00 -0.00000000000E+00 -0.74505805969E-08  0.93827000000E+00  0.93827000000E+00 0.  1.
     999902    2    1    2    0    0 -0.12281404769E-01  0.19695214903E-01 -0.52463880871E-02  0.10201338032E+01  0.10198562239E+01 0.  0.
     999903    2    3    3    0    0  0.24472521002E-01  0.11219458190E+00 -0.63171167343E-01  0.13263041506E+00  0.20339668707E-01 0.  0.
         14    1    1    2    0    0  0.12281404769E-01 -0.19695214903E-01  0.52463880871E-02  0.23796196779E-01  0.00000000000E+00 0.  1.
     999901    1    3    3    0    0 -0.36753925771E-01 -0.92499366994E-01  0.57924779256E-01  0.88750338817E+00  0.88000000000E+00 0. -1.
        -11    1    4    4    0    0  0.15261683936E-01  0.28206816341E-01 -0.19166715815E-01  0.37365326183E-01  0.51100000000E-03 0. -1.
         11    1    4    4    0    0  0.92108370664E-02  0.83987765556E-01 -0.44004451528E-01  0.95265088873E-01  0.51100000000E-03 0.  1.
</event>
<event>
 8    1  0.1094829E+005  0.1043930E+01  0.7957747E-01            NaN
         13   -1    0    0    0    0  0.00000000000E+00  0.00000000000E+00  0.74505805969E-08  0.10566000000E+00  0.10566000000E+00 0.  1.
     999900   -1    0    0    0    0 -0.00000000000E+00 -0.00000000000E+00 -0.74505805969E-08  0.93827000000E+00  0.93827000000E+00 0.  1.
     999902    2    1    2    0    0 -0.53012660935E-02 -0.47094534476E-02 -0.23771514684E-01  0.10191234024E+01  0.10188214476E+01 0.  0.
     999903    2    3    3    0    0  0.12397632472E+00 -0.73838097548E-02 -0.31447867611E-01  0.12964109563E+00  0.19829159402E-01 0.  0.
         14    1    1    2    0    0  0.53012660935E-02  0.47094534476E-02  0.23771514684E-01  0.24806597597E-01  0.00000000000E+00 0.  1.
     999901    1    3    3    0    0 -0.12927759081E+00  0.26743563072E-02  0.76763529265E-02  0.88948230677E+00  0.88000000000E+00 0.  1.
        -11    1    4    4    0    0  0.10100131752E+00 -0.13644070510E-01 -0.26611938327E-01  0.10533699817E+00  0.51100000000E-03 0. -1.
         11    1    4    4    0    0  0.22975007200E-01  0.62602607552E-02 -0.48359292833E-02  0.24304097465E-01  0.51100000000E-03 0.  1.
</event>
<event>
 8    1  0.1094829E+005  0.1043930E+01  0.7957747E-01            NaN
         13   -1    0    0    0    0  0.00000000000E+00  0.00000000000E+00  0.74505805969E-08  0.10566000000E+00  0.10566000000E+00 0.  1.
     999900   -1    0    0    0    0 -0.00000000000E+00 -0.00000000000E+00 -0.74505805969E-08  0.93827000000E+00  0.93827000000E+00 0. -1.
     999902    2    1    2    0    0 -0.19810341942E-01 -0.20491689780E-02  0.11664870646E-01  0.10208493165E+01  0.10205883642E+01 0.  0.
     999903    2    3    3    0    0  0.78968053402E-01 -0.46335154007E-01 -0.88219324866E-01  0.12860760470E+00  0.19348559404E-01 0.  0.
         14    1    1    2    0    0  0.19810341942E-01  0.20491689780E-02 -0.11664870646E-01  0.23080683450E-01  0.00000000000E+00 0. -1.
     999901    1    3    3    0    0 -0.98778395344E-01  0.44285985029E-01  0.99884195512E-01  0.89224171185E+00  0.88000000000E+00 0.  1.
        -11    1    4    4    0    0  0.59015630508E-01 -0.41136117372E-01 -0.60132785292E-01  0.93761600800E-01  0.51100000000E-03 0. -1.
         11    1    4    4    0    0  0.19952422894E-01 -0.51990366349E-02 -0.28086539575E-01  0.34846003897E-01  0.51100000000E-03 0.  1.
</event>
<event>
 8    1  0.1094829E+005  0.1043930E+01  0.7957747E-01            NaN
         13   -1    0    0    0    0  0.00000000000E+00  0.00000000000E+00  0.74505805969E-08  0.10566000000E+00  0.10566000000E+00 0.  1.
     999900   -1    0    0    0    0 -0.00000000000E+00 -0.00000000000E+00 -0.74505805969E-08  0.93827000000E+00  0.93827000000E+00 0.  1.
     999902    2    1    2    0    0  0.23628614465E-01 -0.21768353764E-02  0.46790423127E-02  0.10197443954E+01  0.10194575462E+01 0.  0.
     999903    2    3    3    0    0  0.58406375473E-01  0.23658778575E-02 -0.11512647962E+00  0.13093424018E+00  0.21743202809E-01 0.  0.
         14    1    1    2    0    0 -0.23628614465E-01  0.21768353764E-02 -0.46790423127E-02  0.24185604619E-01  0.00000000000E+00 0. -1.
     999901    1    3    3    0    0 -0.34777761007E-01 -0.45427132339E-02  0.11980552193E+00  0.88881015520E+00  0.88000000000E+00 0. -1.
        -11    1    4    4    0    0  0.39332156552E-01  0.10250633855E-01 -0.64260443282E-01  0.76037883488E-01  0.51100000000E-03 0.  1.
         11    1    4    4    0    0  0.19074218920E-01 -0.78847559976E-02 -0.50866036336E-01  0.54896356692E-01  0.51100000000E-03 0. -1.
</event>
<event>
 8    1  0.1094829E+005  0.1043930E+01  0.7957747E-01            NaN
         13   -1    0    0    0    0  0.00000000000E+00  0.00000000000E+00  0.74505805969E-08  0.10566000000E+00  0.10566000000E+00 0.  1.
     999900   -1    0    0    0    0 -0.00000000000E+00 -0.00000000000E+00 -0.74505805969E-08  0.93827000000E+00  0.93827000000E+00 0. -1.
     999902    2    1    2    0    0 -0.14362018712E-02 -0.59793879232E-02  0.23765203723E-01  0.10193820741E+01  0.10190864597E+01 0.  0.
     999903    2    3    3    0    0 -0.26758826791E-03  0.12747666760E+00  0.13525492700E-02  0.12903707838E+00  0.19959103707E-01 0.  0.
         14    1    1    2    0    0  0.14362018712E-02  0.59793879232E-02 -0.23765203723E-01  0.24547925854E-01  0.00000000000E+00 0. -1.
     999901    1    3    3    0    0 -0.11686136033E-02 -0.13345605552E+00  0.22412654453E-01  0.89034499577E+00  0.88000000000E+00 0. -1.
        -11    1    4    4    0    0  0.62856325810E-02  0.59863633671E-01 -0.69712557204E-02  0.60597222218E-01  0.51100000000E-03 0. -1.
         11    1    4    4    0    0 -0.65532208489E-02  0.67613033927E-01  0.83238049904E-02  0.68439856158E-01  0.51100000000E-03 0.  1.
</event>
<event>
 8    1  0.1094829E+005  0.1043930E+01  0.7957747E-01            NaN
         13   -1    0    0    0    0  0.00000000000E+00  0.00000000000E+00  0.74505805969E-08  0.10566000000E+00  0.10566000000E+00 0.  1.
     999900   -1    0    0    0    0 -0.00000000000E+00 -0.00000000000E+00 -0.74505805969E-08  0.93827000000E+00  0.93827000000E+00 0.  1.
     999902    2    1    2    0    0  0.10540163964E-01  0.18771832879E-01  0.87125007532E-02  0.10207053485E+01  0.10204410929E+01 0.  0.
     999903    2    3    3    0    0  0.82047801360E-01 -0.91951848748E-01  0.38129850434E-01  0.13040289637E+00  0.19079981429E-01 0.  0.
         14    1    1    2    0    0 -0.10540163964E-01 -0.18771832879E-01 -0.87125007532E-02  0.23224651459E-01  0.00000000000E+00 0.  1.
     999901    1    3    3    0    0 -0.71507637397E-01  0.11072368163E+00 -0.29417349681E-01  0.89030245217E+00  0.88000000000E+00 0.  1.
        -11    1    4    4    0    0  0.59738948245E-01 -0.61427053945E-01  0.34663247514E-01  0.92432822866E-01  0.51100000000E-03 0.  1.
         11    1    4    4    0    0  0.22308853116E-01 -0.30524794804E-01  0.34666029202E-02  0.37970073505E-01  0.51100000000E-03 0. -1.
</event>
<event>
 8    1  0.1094829E+005  0.1043930E+01  0.7957747E-01            NaN
         13   -1    0    0    0    0  0.00000000000E+00  0.00000000000E+00  0.74505805969E-08  0.10566000000E+00  0.10566000000E+00 0.  1.
     999900   -1    0    0    0    0 -0.00000000000E+00 -0.00000000000E+00 -0.74505805969E-08  0.93827000000E+00  0.93827000000E+00 0.  1.
     999902    2    1    2    0    0  0.35837072451E-02  0.30169847662E-02 -0.23211545901E-01  0.10202504515E+01  0.10199756187E+01 0.  0.
     999903    2    3    3    0    0  0.10803205843E-01  0.12784223344E+00  0.14459059001E-01  0.13061426835E+00  0.19765545886E-01 0.  0.
         14    1    1    2    0    0 -0.35837072451E-02 -0.30169847662E-02  0.23211545901E-01  0.23679548513E-01  0.00000000000E+00 0.  1.
     999901    1    3    3    0    0 -0.72194985982E-02 -0.12482524867E+00 -0.37670604902E-01  0.88963618313E+00  0.88000000000E+00 0.  1.
        -11    1    4    4    0    0 -0.46021225895E-02  0.24947553253E-01  0.69114373762E-02  0.26298080410E-01  0.51100000000E-03 0. -1.
         11    1    4    4    0    0  0.15405328433E-01  0.10289468018E+00  0.75476216248E-02  0.10431618794E+00  0.51100000000E-03 0.  1.
</event>
<event>
 8    1  0.1094829E+005  0.1043930E+01  0.7957747E-01            NaN
         13   -1    0    0    0    0  0.00000000000E+00  0.00000000000E+00  0.74505805969E-08  0.10566000000E+00  0.10566000000E+00 0.  1.
     999900   -1    0    0    0    0 -0.00000000000E+00 -0.00000000000E+00 -0.74505805969E-08  0.93827000000E+00  0.93827000000E+00 0. -1.
     999902    2    1    2    0    0 -0.97158478081E-02  0.14683423253E-01 -0.16114120521E-01  0.10200623336E+01  0.10197830647E+01 0.  0.
     999903    2    3    3    0    0 -0.41199550806E-01 -0.79190485786E-01 -0.93859033148E-01  0.13110350119E+00  0.20250281387E-01 0.  0.
         14    1    1    2    0    0  0.97158478081E-02 -0.14683423253E-01  0.16114120521E-01  0.23867666355E-01  0.00000000000E+00 0.  1.
     999901    1    3    3    0    0  0.31483702998E-01  0.93873909039E-01  0.77744912627E-01  0.88895883245E+00  0.88000000000E+00 0.  1.
        -11    1    4    4    0    0 -0.19952989400E-01 -0.32938346446E-01 -0.26829491998E-01  0.46937609807E-01  0.51100000000E-03 0.  1.
         11    1    4    4    0    0 -0.21246561406E-01 -0.46252139340E-01 -0.67029541150E-01  0.84165891387E-01  0.51100000000E-03 0. -1.
</event>
<event>
 8    1  0.1094829E+005  0.1043930E+01  0.7957747E-01            NaN
         13   -1    0    0    0    0  0.00000000000E+00  0.00000000000E+00  0.74505805969E-08  0.10566000000E+00  0.10566000000E+00 0. -1.
     999900   -1    0    0    0    0 -0.00000000000E+00 -0.00000000000E+00 -0.74505805969E-08  0.93827000000E+00  0.93827000000E+00 0. -1.
     999902    2    1    2    0    0 -0.11199288080E-01  0.25335518912E-02 -0.20925898872E-01  0.10200608529E+01  0.10197815489E+01 0.  0.
     999903    2    3    3    0    0 -0.55980512074E-02 -0.67245777735E-01 -0.11235182745E+00  0.13255917455E+00  0.19891425916E-01 0.  0.
         14    1    1    2    0    0  0.11199288080E-01 -0.25335518912E-02  0.20925898872E-01  0.23869147080E-01  0.00000000000E+00 0. -1.
     999901    1    3    3    0    0 -0.56012368729E-02  0.69779329626E-01  0.91425928578E-01  0.88750167837E+00  0.88000000000E+00 0.  1.
        -11    1    4    4    0    0 -0.37579793617E-02 -0.28261496857E-01 -0.66428634849E-01  0.72290104872E-01  0.51100000000E-03 0. -1.
         11    1    4    4    0    0 -0.18400718456E-02 -0.38984280877E-01 -0.45923192601E-01  0.60269069676E-01  0.51100000000E-03 0.  1.
</event>
<event>
 8    1  0.1094829E+005  0.1043930E+01  0.7957747E-01            NaN
         13   -1    0    0    0    0  0.00000000000E+00  0.00000000000E+00  0.74505805969E-08  0.10566000000E+00  0.10566000000E+00 0. -1.
     999900   -1    0    0    0    0 -0.00000000000E+00 -0.00000000000E+00 -0.74505805969E-08  0.93827000000E+00  0.93827000000E+00 0. -1.
     999902    2    1    2    0    0 -0.16630125398E-01 -0.16741097783E-01 -0.31271960063E-02  0.10201265385E+01  0.10198487877E+01 0.  0.
     999903    2    3    3    0    0 -0.12864480997E+00 -0.14582782507E-01  0.22696656635E-01  0.13264762647E+00  0.17835635885E-01 0.  0.
         14    1    1    2    0    0  0.16630125398E-01  0.16741097783E-01  0.31271960063E-02  0.23803461525E-01  0.00000000000E+00 0. -1.
     999901    1    3    3    0    0  0.11201468458E+00 -0.21583152759E-02 -0.25823852641E-01  0.88747891200E+00  0.88000000000E+00 0. -1.
        -11    1    4    4    0    0 -0.10849140525E+00 -0.11137127071E-01  0.25500040811E-01  0.11200416874E+00  0.51100000000E-03 0. -1.
         11    1    4    4    0    0 -0.20153404725E-01 -0.34456554355E-02 -0.28033841759E-02  0.20643457734E-01  0.51100000000E-03 0.  1.
</event>
<event>
 8    1  0.1212501E+005  0.1043930E+01  0.7957747E-01            NaN
         13   -1    0    0    0    0  0.00000000000E+00  0.00000000000E+00  0.74505805969E-08  0.10566000000E+00  0.10566000000E+00 0.  1.
     999900   -1    0    0    0    0 -0.00000000000E+00 -0.00000000000E+00 -0.74505805969E-08  0.93827000000E+00  0.93827000000E+00 0. -1.
     999902    2    1    2    0    0 -0.11132129877E-01 -0.19428358499E-01 -0.71695362991E-02  0.10204185628E+01  0.10201476636E+01 0.  0.
     999903    2    3    3    0    0 -0.11922154693E+00 -0.51159175771E-01 -0.24566725666E-01  0.13306698136E+00  0.16500272738E-01 0.  0.
         14    1    1    2    0    0  0.11132129877E-01  0.19428358499E-01  0.71695362991E-02  0.23511437223E-01  0.00000000000E+00 0. -1.
     999901    1    3    3    0    0  0.10808941705E+00  0.31730817272E-01  0.17397189367E-01  0.88735158142E+00  0.88000000000E+00 0.  1.
        -11    1    4    4    0    0 -0.54644438449E-01 -0.25522094795E-01 -0.32990837802E-02  0.60403121202E-01  0.51100000000E-03 0.  1.
         11    1    4    4    0    0 -0.64577108481E-01 -0.25637080976E-01 -0.21267641886E-01  0.72663860159E-01  0.51100000000E-03 0. -1.
</event>
<event>
 8    1  0.1094829E+005  0.1043930E+01  0.7957747E-01            NaN
         13   -1    0    0    0    0  0.00000000000E+00  0.00000000000E+00  0.74505805969E-08  0.10566000000E+00  0.10566000000E+00 0.  1.
     999900   -1    0    0    0    0 -0.00000000000E+00 -0.00000000000E+00 -0.74505805969E-08  0.93827000000E+00  0.93827000000E+00 0.  1.
     999902    2    1    2    0    0 -0.14860975116E-01 -0.87120252684E-02 -0.16706690440E-01  0.10199328862E+01  0.10196505435E+01 0.  0.
     999903    2    3    3    0    0  0.12186976667E+00 -0.23683290121E-01 -0.25947581921E-01  0.12920013806E+00  0.24622355846E-01 0.  0.
         14    1    1    2    0    0  0.14860975116E-01  0.87120252684E-02  0.16706690440E-01  0.23997113808E-01  0.00000000000E+00 0.  1.
     999901    1    3    3    0    0 -0.13673074179E+00  0.14971264853E-01  0.92408914808E-02  0.89073274813E+00  0.88000000000E+00 0.  1.
        -11    1    4    4    0    0  0.78196959208E-01 -0.12878636701E-01 -0.45602245526E-02  0.79383124665E-01  0.51100000000E-03 0. -1.
         11    1    4    4    0    0  0.43672807463E-01 -0.10804653421E-01 -0.21387357368E-01  0.49817013393E-01  0.51100000000E-03 0.  1.
</event>
<event>
 8    1  0.1094829E+005  0.1043930E+01  0.7957747E-01            NaN
         13   -1    0    0    0    0  0.00000000000E+00  0.00000000000E+00  0.74505805969E-08  0.10566000000E+00  0.10566000000E+00 0.  1.
     999900   -1    0    0    0    0 -0.00000000000E+00 -0.00000000000E+00 -0.74505805969E-08  0.93827000000E+00  0.93827000000E+00 0. -1.
     999902    2    1    2    0    0  0.93696269959E-02 -0.18624977036E-01 -0.11996757633E-01  0.10198758554E+01  0.10195921530E+01 0.  0.
     999903    2    3    3    0    0 -0.89625636545E-01 -0.93644960678E-01 -0.30749790835E-02  0.13110836144E+00  0.19437426718E-01 0.  0.
         14    1    1    2    0    0 -0.93696269959E-02  0.18624977036E-01  0.11996757633E-01  0.24054144619E-01  0.00000000000E+00 0.  1.
     999901    1    3    3    0    0  0.98995263541E-01  0.75019983642E-01 -0.89217785493E-02  0.88876749394E+00  0.88000000000E+00 0.  1.
        -11    1    4    4    0    0 -0.40928378564E-01 -0.29676919904E-01  0.15179013131E-02  0.50580795686E-01  0.51100000000E-03 0. -1.
         11    1    4    4    0    0 -0.48697257981E-01 -0.63968040775E-01 -0.45928803966E-02  0.80527565757E-01  0.51100000000E-03 0.  1.
</event>
<event>
 8    1  0.1094829E+005  0.1043930E+01  0.7957747E-01            NaN
         13   -1    0    0    0    0  0.00000000000E+00  0.00000000000E+00  0.74505805969E-08  0.10566000000E+00  0.10566000000E+00 0. -1.
     999900   -1    0    0    0    0 -0.00000000000E+00 -0.00000000000E+00 -0.74505805969E-08  0.93827000000E+00  0.93827000000E+00 0.  1.
     999902    2    1    2    0    0 -0.14665107850E-01  0.11283464018E-01 -0.12823721964E-01  0.10214171194E+01  0.10211689880E+01 0.  0.
     999903    2    3    3    0    0 -0.69607163228E-02 -0.11771654593E+00  0.48559423170E-01  0.12986327877E+00  0.24511565343E-01 0.  0.
         14    1    1    2    0    0  0.14665107850E-01 -0.11283464018E-01  0.12823721964E-01  0.22512880614E-01  0.00000000000E+00 0. -1.
     999901    1    3    3    0    0 -0.77043915275E-02  0.12900000995E+00 -0.61383145134E-01  0.89155384062E+00  0.88000000000E+00 0.  1.
        -11    1    4    4    0    0  0.39146414357E-02 -0.39936636552E-01  0.61299034417E-02  0.40596751026E-01  0.51100000000E-03 0. -1.
         11    1    4    4    0    0 -0.10875357759E-01 -0.77779909381E-01  0.42429519728E-01  0.89266527742E-01  0.51100000000E-03 0.  1.
</event>
<event>
 8    1  0.1094829E+005  0.1043930E+01  0.7957747E-01            NaN
         13   -1    0    0    0    0  0.00000000000E+00  0.00000000000E+00  0.74505805969E-08  0.10566000000E+00  0.10566000000E+00 0. -1.
     999900   -1    0    0    0    0 -0.00000000000E+00 -0.00000000000E+00 -0.74505805969E-08  0.93827000000E+00  0.93827000000E+00 0. -1.
     999902    2    1    2    0    0 -0.19864309109E-01  0.68583624906E-02 -0.74893110700E-02  0.10216204125E+01  0.10213767912E+01 0.  0.
     999903    2    3    3    0    0  0.10953123526E+00 -0.30105724221E-01  0.57103604180E-01  0.12905008180E+00  0.22128169226E-01 0.  0.
         14    1    1    2    0    0  0.19864309109E-01 -0.68583624906E-02  0.74893110700E-02  0.22309587462E-01  0.00000000000E+00 0.  1.
     999901    1    3    3    0    0 -0.12939554437E+00  0.36964086711E-01 -0.64592915250E-01  0.89257033074E+00  0.88000000000E+00 0. -1.
        -11    1    4    4    0    0  0.20913196485E-01 -0.18361499759E-02  0.23969832357E-02  0.21136222074E-01  0.51100000000E-03 0. -1.
         11    1    4    4    0    0  0.88618038779E-01 -0.28269574245E-01  0.54706620945E-01  0.10791385973E+00  0.51100000000E-03 0.  1.
</event>
<event>
 8    1  0.1094829E+005  0.1043930E+01  0.7957747E-01            NaN
         13   -1    0    0    0    0  0.00000000000E+00  0.00000000000E+00  0.74505805969E-08  0.10566000000E+00  0.10566000000E+00 0. -1.
     999900   -1    0    0    0    0 -0.00000000000E+00 -0.00000000000E+00 -0.74505805969E-08  0.93827000000E+00  0.93827000000E+00 0. -1.
     999902    2    1    2    0    0  0.15548680287E-01  0.17407031193E-01 -0.67072481612E-02  0.10196451617E+01  0.10193559253E+01 0.  0.
     999903    2    3    3    0    0 -0.74186599715E-01 -0.52438267306E-01  0.87133252922E-01  0.12738016415E+00  0.19495614857E-01 0.  0.
         14    1    1    2    0    0 -0.15548680287E-01 -0.17407031193E-01  0.67072481612E-02  0.24284838306E-01  0.00000000000E+00 0.  1.
     999901    1    3    3    0    0  0.89735280002E-01  0.69845298500E-01 -0.93840501084E-01  0.89226499754E+00  0.88000000000E+00 0. -1.
        -11    1    4    4    0    0 -0.71248913856E-01 -0.52708154005E-01  0.79045731531E-01  0.11875624623E+00  0.51100000000E-03 0.  1.
         11    1    4    4    0    0 -0.29376858586E-02  0.26988669851E-03  0.80875213917E-02  0.86239179203E-02  0.51100000000E-03 0. -1.
</event>
<event>
 8    1  0.1094829E+005  0.1043930E+01  0.7957747E-01            NaN
         13   -1    0    0    0    0  0.00000000000E+00  0.00000000000E+00  0.74505805969E-08  0.10566000000E+00  0.10566000000E+00 0.  1.
     999900   -1    0    0    0    0 -0.00000000000E+00 -0.00000000000E+00 -0.74505805969E-08  0.93827000000E+00  0.93827000000E+00 0.  1.
     999902    2    1    2    0    0 -0.22445748378E-01  0.65840605149E-02  0.25686650455E-02  0.10203979046E+01  0.10201265236E+01 0.  0.
     999903    2    3    3    0    0  0.60893100879E-01  0.53122433320E-01  0.99771031806E-01  0.12991517932E+00  0.19842690708E-01 0.  0.
         14    1    1    2    0    0  0.22445748378E-01 -0.65840605149E-02 -0.25686650455E-02  0.23532095385E-01  0.00000000000E+00 0. -1.
     999901    1    3    3    0    0 -0.83338849257E-01 -0.46538372805E-01 -0.97202366760E-01  0.89048272529E+00  0.88000000000E+00 0.  1.
        -11    1    4    4    0    0  0.40865876606E-01  0.31090104349E-01  0.76432998940E-01  0.92080828120E-01  0.51100000000E-03 0. -1.
         11    1    4    4    0    0  0.20027224273E-01  0.22032328971E-01  0.23338032866E-01  0.37834351204E-01  0.51100000000E-03 0.  1.
</event>
<event>
 8    1  0.1094829E+005  0.1043930E+01  0.7957747E-01            NaN
         13   -1    0    0    0    0  0.00000000000E+00  0.00000000000E+00  0.74505805969E-08  0.10566000000E+00  0.10566000000E+00 0.  1.
     999900   -1    0    0    0    0 -0.00000000000E+00 -0.00000000000E+00 -0.74505805969E-08  0.93827000000E+00  0.93827000000E+00 0.  1.
     999902    2    1    2    0    0 -0.61142917866E-02  0.60601869135E-02  0.22121654053E-01  0.10201923083E+01  0.10199161083E+01 0.  0.
     999903    2    3    3    0    0  0.65213944983E-01  0.11046107481E+00  0.20289275079E-01  0.13115315260E+00  0.18302652387E-01 0.  0.
         14    1    1    2    0    0  0.61142917866E-02 -0.60601869135E-02 -0.22121654053E-01  0.23737691705E-01  0.00000000000E+00 0. -1.
     999901    1    3    3    0    0 -0.71328236770E-01 -0.10440088789E+00  0.18323789736E-02  0.88903915570E+00  0.88000000000E+00 0. -1.
        -11    1    4    4    0    0  0.26683532238E-01  0.47423223519E-01  0.17706676786E-01  0.57225523549E-01  0.51100000000E-03 0. -1.
         11    1    4    4    0    0  0.38530412745E-01  0.63037851289E-01  0.25825982925E-02  0.73927629046E-01  0.51100000000E-03 0.  1.
</event>
<event>
 8    1  0.1094829E+005  0.1043930E+01  0.7957747E-01            NaN
         13   -1    0    0    0    0  0.00000000000E+00  0.00000000000E+00  0.74505805969E-08  0.10566000000E+00  0.10566000000E+00 0.  1.
     999900   -1    0    0    0    0 -0.00000000000E+00 -0.00000000000E+00 -0.74505805969E-08  0.93827000000E+00  0.93827000000E+00 0. -1.
     999902    2    1    2    0    0 -0.18920232520E-01 -0.38747430423E-02  0.13697405613E-01  0.10202528432E+01  0.10199780666E+01 0.  0.
     999903    2    3    3    0    0  0.51637682144E-01  0.86138450688E-01 -0.77413480696E-01  0.12818670893E+00  0.18780373995E-01 0.  0.
         14    1    1    2    0    0  0.18920232520E-01  0.38747430423E-02 -0.13697405613E-01  0.23677156771E-01  0.00000000000E+00 0.  1.
     999901    1    3    3    0    0 -0.70557914664E-01 -0.90013193730E-01  0.91110886309E-01  0.89206613430E+00  0.88000000000E+00 0.  1.
        -11    1    4    4    0    0  0.36547595632E-01  0.49983108247E-01 -0.56243835306E-01  0.83652065052E-01  0.51100000000E-03 0.  1.
         11    1    4    4    0    0  0.15090086512E-01  0.36155342441E-01 -0.21169645390E-01  0.44534643873E-01  0.51100000000E-03 0. -1.
</event>
<event>
 8    1  0.1094829E+005  0.1043930E+01  0.7957747E-01            NaN
         13   -1    0    0    0    0  0.00000000000E+00  0.00000000000E+00  0.74505805969E-08  0.10566000000E+00  0.10566000000E+00 0. -1.
     999900   -1    0    0    0    0 -0.00000000000E+00 -0.00000000000E+00 -0.74505805969E-08  0.93827000000E+00  0.93827000000E+00 0.  1.
     999902    2    1    2    0    0 -0.23297757889E-01  0.40637944267E-02  0.47419529617E-02  0.10198097582E+01  0.10195244758E+01 0.  0.
     999903    2    3    3    0    0  0.61906918204E-01 -0.72956312387E-01 -0.82670470354E-01  0.12805145828E+00  0.20191068829E-01 0.  0.
         14    1    1    2    0    0  0.23297757889E-01 -0.40637944267E-02 -0.47419529617E-02  0.24120241825E-01  0.00000000000E+00 0. -1.
     999901    1    3    3    0    0 -0.85204676093E-01  0.77020106814E-01  0.87412423315E-01  0.89175829989E+00  0.88000000000E+00 0. -1.
        -11    1    4    4    0    0  0.20877978080E-01 -0.31337604435E-01 -0.21133335746E-01  0.43183497093E-01  0.51100000000E-03 0. -1.
         11    1    4    4    0    0  0.41028940123E-01 -0.41618707953E-01 -0.61537134608E-01  0.84867961187E-01  0.51100000000E-03 0.  1.
</event>
<event>
 8    1  0.1094829E+005  0.1043930E+01  0.7957747E-01            NaN
         13   -1    0    0    0    0  0.00000000000E+00  0.00000000000E+00  0.74505805969E-08  0.10566000000E+00  0.10566000000E+00 0.  1.
     999900   -1    0    0    0    0 -0.00000000000E+00 -0.00000000000E+00 -0.74505805969E-08  0.93827000000E+00  0.93827000000E+00 0. -1.
     999902    2    1    2    0    0  0.71213344981E-02  0.10744460983E-01 -0.20205536756E-01  0.10199629275E+01  0.10196812997E+01 0.  0.
     999903    2    3    3    0    0 -0.11516314738E+00  0.56645366135E-01 -0.17154611222E-01  0.13031710152E+00  0.14731539094E-01 0.  0.
         14    1    1    2    0    0 -0.71213344981E-02 -0.10744460983E-01  0.20205536756E-01  0.23967072463E-01  0.00000000000E+00 0.  1.
     999901    1    3    3    0    0  0.12228448188E+00 -0.45900905152E-01 -0.30509255344E-02  0.88964582602E+00  0.88000000000E+00 0. -1.
        -11    1    4    4    0    0 -0.81985068367E-01  0.44009036597E-01 -0.66491471657E-02  0.93288900821E-01  0.51100000000E-03 0.  1.
         11    1    4    4    0    0 -0.33178079011E-01  0.12636329538E-01 -0.10505464056E-01  0.37028200700E-01  0.51100000000E-03 0. -1.
</event>
<event>
 8    1  0.1094829E+005  0.1043930E+01  0.7957747E-01            NaN
         13   -1    0    0    0    0  0.00000000000E+00  0.00000000000E+00  0.74505805969E-08  0.10566000000E+00  0.10566000000E+00 0. -1.
     999900   -1    0    0    0    0 -0.00000000000E+00 -0.00000000000E+00 -0.74505805969E-08  0.93827000000E+00  0.93827000000E+00 0. -1.
     999902    2    1    2    0    0 -0.56677038311E-02 -0.66043398511E-02 -0.21746053321E-01  0.10205071264E+01  0.10202382879E+01 0.  0.
     999903    2    3    3    0    0  0.97800194183E-01 -0.84442907618E-01  0.44946405090E-03  0.13075598732E+00  0.20036056788E-01 0.  0.
         14    1    1    2    0    0  0.56677038311E-02  0.66043398511E-02  0.21746053321E-01  0.23422873577E-01  0.00000000000E+00 0. -1.
     999901    1    3    3    0    0 -0.10346789801E+00  0.77838567767E-01 -0.22195517372E-01  0.88975113911E+00  0.88000000000E+00 0.  1.
        -11    1    4    4    0    0  0.76458822899E-01 -0.72758125096E-01 -0.55479299993E-02  0.10569170741E+00  0.51100000000E-03 0. -1.
         11    1    4    4    0    0  0.21341371284E-01 -0.11684782522E-01  0.59973940502E-02  0.25064279907E-01  0.51100000000E-03 0.  1.
</event>
<event>
 8    1  0.1094829E+005  0.1043930E+01  0.7957747E-01            NaN
         13   -1    0    0    0    0  0.00000000000E+00  0.00000000000E+00  0.74505805969E-08  0.10566000000E+00  0.10566000000E+00 0.  1.
     999900   -1    0    0    0    0 -0.00000000000E+00 -0.00000000000E+00 -0.74505805969E-08  0.93827000000E+00  0.93827000000E+00 0.  1.
     999902    2    1    2    0    0 -0.18155046139E-01  0.10727638309E-01 -0.11250663566E-01  0.10200288420E+01  0.10197487794E+01 0.  0.
     999903    2    3    3    0    0 -0.40767885988E-01  0.10919685529E+00 -0.60612127014E-01  0.13287379280E+00  0.19890729946E-01 0.  0.
         14    1    1    2    0    0  0.18155046139E-01 -0.10727638309E-01  0.11250663566E-01  0.23901158019E-01  0.00000000000E+00 0. -1.
     999901    1    3    3    0    0  0.22612839849E-01 -0.98469216982E-01  0.49361463447E-01  0.88715504918E+00  0.88000000000E+00 0.  1.
        -11    1    4    4    0    0 -0.91659123605E-02  0.23712717894E-01 -0.44354530448E-02  0.25811650548E-01  0.51100000000E-03 0.  1.
         11    1    4    4    0    0 -0.31601973627E-01  0.85484137397E-01 -0.56176673969E-01  0.10706214225E+00  0.51100000000E-03 0. -1.
</event>
<event>
 8    1  0.1094829E+005  0.1043930E+01  0.7957747E-01            NaN
         13   -1    0    0    0    0  0.00000000000E+00  0.00000000000E+00  0.74505805969E-08  0.10566000000E+00  0.10566000000E+00 0. -1.
     999900   -1    0    0    0    0 -0.00000000000E+00 -0.00000000000E+00 -0.74505805969E-08  0.93827000000E+00  0.93827000000E+00 0.  1.
     999902    2    1    2    0    0  0.19466721299E-01 -0.10429584890E-01  0.80894652719E-02  0.10204104565E+01  0.10201393683E+01 0.  0.
     999903    2    3    3    0    0 -0.53250674950E-01  0.91662148686E-02  0.11705009475E+00  0.13049796985E+00  0.20232191549E-01 0.  0.
         14    1    1    2    0    0 -0.19466721299E-01  0.10429584890E-01 -0.80894652719E-02  0.23519543522E-01  0.00000000000E+00 0. -1.
     999901    1    3    3    0    0  0.72717396249E-01 -0.19595799759E-01 -0.10896062948E+00  0.88991248663E+00  0.88000000000E+00 0.  1.
        -11    1    4    4    0    0 -0.47484588711E-01  0.14641157035E-01  0.10242720087E+00  0.11384525569E+00  0.51100000000E-03 0.  1.
         11    1    4    4    0    0 -0.57660862395E-02 -0.54749421660E-02  0.14622893879E-01  0.16652714152E-01  0.51100000000E-03 0. -1.
</event>
<event>
 8    1  0.1094829E+005  0.1043930E+01  0.7957747E-01            NaN
         13   -1    0    0    0    0  0.00000000000E+00  0.00000000000E+00  0.74505805969E-08  0.10566000000E+00  0.10566000000E+00 0. -1.
     999900   -1    0    0    0    0 -0.00000000000E+00 -0.00000000000E+00 -0.74505805969E-08  0.93827000000E+00  0.93827000000E+00 0.  1.
     999902    2    1    2    0    0 -0.75398446346E-02 -0.17647597831E-01 -0.13761509298E-01  0.10203150449E+01  0.10200417270E+01 0.  0.
     999903    2    3    3    0    0  0.74555039413E-02 -0.10647585206E+00  0.73927770813E-01  0.13138044152E+00  0.20070214406E-01 0.  0.
         14    1    1    2    0    0  0.75398446346E-02  0.17647597831E-01  0.13761509298E-01  0.23614955102E-01  0.00000000000E+00 0.  1.
     999901    1    3    3    0    0 -0.14995348576E-01  0.88828254231E-01 -0.87689280111E-01  0.88893460337E+00  0.88000000000E+00 0.  1.
        -11    1    4    4    0    0  0.12898874916E-01 -0.89856572104E-01  0.65620174435E-01  0.11201273561E+00  0.51100000000E-03 0.  1.
         11    1    4    4    0    0 -0.54433709748E-02 -0.16619279958E-01  0.83075963780E-02  0.19367705916E-01  0.51100000000E-03 0. -1.
</event>
<event>
 8    1  0.1094829E+005  0.1043930E+01  0.7957747E-01            NaN
         13   -1    0    0    0    0  0.00000000000E+00  0.00000000000E+00  0.74505805969E-08  0.10566000000E+00  0.10566000000E+00 0.  1.
     999900   -1    0    0    0    0 -0.00000000000E+00 -0.00000000000E+00 -0.74505805969E-08  0.93827000000E+00  0.93827000000E+00 0. -1.
     999902    2    1    2    0    0 -0.17388333226E-01 -0.10453903440E-01 -0.11153372062E-01  0.10207775501E+01  0.10205149537E+01 0.  0.
     999903    2    3    3    0    0 -0.11867380962E+00  0.48565932479E-01  0.27689034066E-01  0.13215455843E+00  0.16000681805E-01 0.  0.
         14    1    1    2    0    0  0.17388333226E-01  0.10453903440E-01  0.11153372062E-01  0.23152449933E-01  0.00000000000E+00 0.  1.
     999901    1    3    3    0    0  0.10128547639E+00 -0.59019835919E-01 -0.38842406129E-01  0.88862299164E+00  0.88000000000E+00 0.  1.
        -11    1    4    4    0    0 -0.65732591625E-01  0.35236166404E-01  0.14313459985E-01  0.75944040466E-01  0.51100000000E-03 0. -1.
         11    1    4    4    0    0 -0.52941217994E-01  0.13329766075E-01  0.13375574081E-01  0.56210517960E-01  0.51100000000E-03 0.  1.
</event>
<event>
 8    1  0.1094829E+005  0.1043930E+01  0.7957747E-01            NaN
         13   -1    0    0    0    0  0.00000000000E+00  0.00000000000E+00  0.74505805969E-08  0.10566000000E+00  0.10566000000E+00 0. -1.
     999900   -1    0    0    0    0 -0.00000000000E+00 -0.00000000000E+00 -0.74505805969E-08  0.93827000000E+00  0.93827000000E+00 0.  1.
     999902    2    1    2    0    0  0.60732279250E-02  0.96069591794E-02  0.21058372903E-01  0.10200002522E+01  0.10197195112E+01 0.  0.
     999903    2    3    3    0    0  0.99483180867E-01  0.55853955884E-01  0.64922269863E-01  0.13276395587E+00  0.19869554340E-01 0.  0.
         14    1    1    2    0    0 -0.60732279250E-02 -0.96069591794E-02 -0.21058372903E-01  0.23929747835E-01  0.00000000000E+00 0.  1.
     999901    1    3    3    0    0 -0.93409952942E-01 -0.46246996705E-01 -0.43863896960E-01  0.88723629630E+00  0.88000000000E+00 0.  1.
        -11    1    4    4    0    0  0.59465164777E-01  0.44224174458E-01  0.40317683067E-01  0.84366226165E-01  0.51100000000E-03 0. -1.
         11    1    4    4    0    0  0.40018016090E-01  0.11629781426E-01  0.24604586796E-01  0.48397729701E-01  0.51100000000E-03 0.  1.
</event>
<event>
 8    1  0.1094829E+005  0.1043930E+01  0.7957747E-01            NaN
         13   -1    0    0    0    0  0.00000000000E+00  0.00000000000E+00  0.74505805969E-08  0.10566000000E+00  0.10566000000E+00 0. -1.
     999900   -1    0    0    0    0 -0.00000000000E+00 -0.00000000000E+00 -0.74505805969E-08  0.93827000000E+00  0.93827000000E+00 0.  1.
     999902    2    1    2    0    0 -0.72661206825E-02 -0.18217320498E-01  0.27793249280E-02  0.10241211151E+01  0.10239295222E+01 0.  0.
     999903    2    3    3    0    0  0.13358883012E-01  0.47398622861E-01  0.12229247881E+00  0.13338308580E+00  0.20260997038E-01 0.  0.
         14    1    1    2    0    0  0.72661206825E-02  0.18217320498E-01 -0.27793249280E-02  0.19808884950E-01  0.00000000000E+00 0.  1.
     999901    1    3    3    0    0 -0.20625003694E-01 -0.65615943359E-01 -0.11951315388E+00  0.89073802925E+00  0.88000000000E+00 0.  1.
        -11    1    4    4    0    0  0.10238929052E-01  0.40773185922E-01  0.79173938006E-01  0.89644084795E-01  0.51100000000E-03 0. -1.
         11    1    4    4    0    0  0.31199539600E-02  0.66254369396E-02  0.43118540800E-01  0.43739001007E-01  0.51100000000E-03 0.  1.
</event>
<event>
 7    1  0.1094829E+005  0.1043930E+01  0.7957747E-01            NaN
         13   -1    0    0    0    0  0.00000000000E+00  0.00000000000E+00  0.74505805969E-08  0.10566000000E+00  0.10566000000E+00 0.  1.
     999900   -1    0    0    0    0 -0.00000000000E+00 -0.00000000000E+00 -0.74505805969E-08  0.93827000000E+00  0.93827000000E+00 0.  1.
     999902    2    1    2    0    0 -0.15319465436E-01 -0.49211287848E-03  0.17602801066E-01  0.10205893316E+01  0.10203223985E+01 0.  0.
         14    1    1    2    0    0  0.15319465436E-01  0.49211287848E-03 -0.17602801066E-01  0.23340668407E-01  0.00000000000E+00 0. -1.
     999901    1    3    3    0    0 -0.12126409786E+00 -0.50741858824E-02  0.77312865450E-01  0.89168829080E+00  0.88000000000E+00 0.  1.
        -11    1    3    3    0    0  0.26434936329E-01 -0.61604638475E-02 -0.36286419203E-01  0.45318015326E-01  0.51100000000E-03 0.  1.
         11    1    3    3    0    0  0.79509696094E-01  0.10742536851E-01 -0.23423645181E-01  0.83583025463E-01  0.51100000000E-03 0. -1.
</event>
<event>
 8    1  0.1094829E+005  0.1043930E+01  0.7957747E-01            NaN
         13   -1    0    0    0    0  0.00000000000E+00  0.00000000000E+00  0.74505805969E-08  0.10566000000E+00  0.10566000000E+00 0.  1.
     999900   -1    0    0    0    0 -0.00000000000E+00 -0.00000000000E+00 -0.74505805969E-08  0.93827000000E+00  0.93827000000E+00 0.  1.
     999902    2    1    2    0    0  0.77628574898E-02  0.17226155241E-01  0.13348200439E-01  0.10207961107E+01  0.10205339400E+01 0.  0.
     999903    2    3    3    0    0 -0.10118058716E+00  0.80110107563E-01 -0.14841903154E-01  0.13140432549E+00  0.19790758375E-01 0.  0.
         14    1    1    2    0    0 -0.77628574898E-02 -0.17226155241E-01 -0.13348200439E-01  0.23133889334E-01  0.00000000000E+00 0. -1.
     999901    1    3    3    0    0  0.10894344465E+00 -0.62883952322E-01  0.28190103592E-01  0.88939178517E+00  0.88000000000E+00 0.  1.
        -11    1    4    4    0    0 -0.95216396845E-01  0.67883586488E-01 -0.12754638363E-01  0.11763199167E+00  0.51100000000E-03 0.  1.
         11    1    4    4    0    0 -0.59641903158E-02  0.12226521075E-01 -0.20872647905E-02  0.13772333827E-01  0.51100000000E-03 0. -1.
</event>
<event>
 8    1  0.1094829E+005  0.1043930E+01  0.7957747E-01            NaN
         13   -1    0    0    0    0  0.00000000000E+00  0.00000000000E+00  0.74505805969E-08  0.10566000000E+00  0.10566000000E+00 0. -1.
     999900   -1    0    0    0    0 -0.00000000000E+00 -0.00000000000E+00 -0.74505805969E-08  0.93827000000E+00  0.93827000000E+00 0. -1.
     999902    2    1    2    0    0 -0.46687014626E-02 -0.22936251317E-02  0.24576645821E-01  0.10188089131E+01  0.10184991568E+01 0.  0.
     999903    2    3    3    0    0 -0.29581599010E-01 -0.10669466923E+00 -0.61313093320E-01  0.12813653908E+00  0.20021333404E-01 0.  0.
         14    1    1    2    0    0  0.46687014626E-02  0.22936251317E-02 -0.24576645821E-01  0.25121086947E-01  0.00000000000E+00 0.  1.
     999901    1    3    3    0    0  0.24912897547E-01  0.10440104410E+00  0.85889739141E-01  0.89067237398E+00  0.88000000000E+00 0.  1.
        -11    1    4    4    0    0 -0.16041885506E-01 -0.76917128613E-01 -0.34401561686E-01  0.85774794270E-01  0.51100000000E-03 0. -1.
         11    1    4    4    0    0 -0.13539713504E-01 -0.29777540621E-01 -0.26911531634E-01  0.42361744807E-01  0.51100000000E-03 0.  1.
</event>
<event>
 8    1  0.1094829E+005  0.1043930E+01  0.7957747E-01            NaN
         13   -1    0    0    0    0  0.00000000000E+00  0.00000000000E+00  0.74505805969E-08  0.10566000000E+00  0.10566000000E+00 0. -1.
     999900   -1    0    0    0    0 -0.00000000000E+00 -0.00000000000E+00 -0.74505805969E-08  0.93827000000E+00  0.93827000000E+00 0. -1.
     999902    2    1    2    0    0 -0.10323469391E-01  0.20846113522E-01 -0.47258095122E-02  0.10201925245E+01  0.10199163295E+01 0.  0.
     999903    2    3    3    0    0 -0.11460435449E+00  0.28612814852E-01  0.55766594042E-01  0.13193909467E+00  0.18578494278E-01 0.  0.
         14    1    1    2    0    0  0.10323469391E-01 -0.20846113522E-01  0.47258095122E-02  0.23737475535E-01  0.00000000000E+00 0.  1.
     999901    1    3    3    0    0  0.10428088510E+00 -0.77667013302E-02 -0.60492403555E-01  0.88825342979E+00  0.88000000000E+00 0.  1.
        -11    1    4    4    0    0 -0.61758928582E-01  0.19693524168E-01  0.39579930677E-01  0.75952828697E-01  0.51100000000E-03 0. -1.
         11    1    4    4    0    0 -0.52845425912E-01  0.89192906842E-02  0.16186663366E-01  0.55986265977E-01  0.51100000000E-03 0.  1.
</event>
<event>
 8    1  0.1094829E+005  0.1043930E+01  0.7957747E-01            NaN
         13   -1    0    0    0    0  0.00000000000E+00  0.00000000000E+00  0.74505805969E-08  0.10566000000E+00  0.10566000000E+00 0.  1.
     999900   -1    0    0    0    0 -0.00000000000E+00 -0.00000000000E+00 -0.74505805969E-08  0.93827000000E+00  0.93827000000E+00 0.  1.
     999902    2    1    2    0    0 -0.14785901114E-01 -0.39347439324E-02 -0.17809218244E-01  0.10204507893E+01  0.10201806409E+01 0.  0.
     999903    2    3    3    0    0 -0.12244048946E+00  0.15049311457E-01  0.41393135463E-01  0.13171301950E+00  0.20415009387E-01 0.  0.
         14    1    1    2    0    0  0.14785901114E-01  0.39347439324E-02  0.17809218244E-01  0.23479210720E-01  0.00000000000E+00 0.  1.
     999901    1    3    3    0    0  0.10765458834E+00 -0.18984055389E-01 -0.59202353707E-01  0.88873776978E+00  0.88000000000E+00 0.  1.
        -11    1    4    4    0    0 -0.84879381132E-01  0.52246198231E-02  0.36625969576E-01  0.92593351608E-01  0.51100000000E-03 0. -1.
         11    1    4    4    0    0 -0.37561108325E-01  0.98246916338E-02  0.47671658874E-02  0.39119667891E-01  0.51100000000E-03 0.  1.
</event>
<event>
 8    1  0.1094829E+005  0.1043930E+01  0.7957747E-01            NaN
         13   -1    0    0    0    0  0.00000000000E+00  0.00000000000E+00  0.74505805969E-08  0.10566000000E+00  0.10566000000E+00 0.  1.
     999900   -1    0    0    0    0 -0.00000000000E+00 -0.00000000000E+00 -0.74505805969E-08  0.93827000000E+00  0.93827000000E+00 0. -1.
     999902    2    1    2    0    0  0.13699280448E-01  0.15970189100E-01  0.10505133514E-01  0.10204124522E+01  0.10201414106E+01 0.  0.
     999903    2    3    3    0    0 -0.16418147228E-01 -0.12418100090E+00  0.20938662281E-01  0.12875204933E+00  0.21170405908E-01 0.  0.
         14    1    1    2    0    0 -0.13699280448E-01 -0.15970189100E-01 -0.10505133514E-01  0.23517547807E-01  0.00000000000E+00 0. -1.
     999901    1    3    3    0    0  0.30117427676E-01  0.14015119000E+00 -0.10433528766E-01  0.89166040286E+00  0.88000000000E+00 0.  1.
        -11    1    4    4    0    0  0.28136973100E-02 -0.21228218644E-01 -0.20694665414E-02  0.21519711246E-01  0.51100000000E-03 0. -1.
         11    1    4    4    0    0 -0.19231844538E-01 -0.10295278226E+00  0.23008128822E-01  0.10723233809E+00  0.51100000000E-03 0.  1.
</event>
<event>
 8    1  0.1094829E+005  0.1043930E+01  0.7957747E-01            NaN
         13   -1    0    0    0    0  0.00000000000E+00  0.00000000000E+00  0.74505805969E-08  0.10566000000E+00  0.10566000000E+00 0.  1.
     999900   -1    0    0    0    0 -0.00000000000E+00 -0.00000000000E+00 -0.74505805969E-08  0.93827000000E+00  0.93827000000E+00 0.  1.
     999902    2    1    2    0    0  0.13582291705E-01  0.82316752169E-02  0.17597112413E-01  0.10202256230E+01  0.10199502068E+01 0.  0.
     999903    2    3    3    0    0  0.10507632882E+00  0.62624845999E-01 -0.43604182722E-01  0.13170135522E+00  0.21932077026E-01 0.  0.
         14    1    1    2    0    0 -0.13582291705E-01 -0.82316752169E-02 -0.17597112413E-01  0.23704377025E-01  0.00000000000E+00 0. -1.
     999901    1    3    3    0    0 -0.91494037114E-01 -0.54393170782E-01  0.61201295136E-01  0.88852426775E+00  0.88000000000E+00 0.  1.
        -11    1    4    4    0    0  0.60338143946E-01  0.25002521086E-01 -0.17099618496E-01  0.67516485018E-01  0.51100000000E-03 0. -1.
         11    1    4    4    0    0  0.44738184874E-01  0.37622324913E-01 -0.26504564227E-01  0.64184870207E-01  0.51100000000E-03 0.  1.
</event>
<event>
 8    1  0.1094829E+005  0.1043930E+01  0.7957747E-01            NaN
         13   -1    0    0    0    0  0.00000000000E+00  0.00000000000E+00  0.74505805969E-08  0.10566000000E+00  0.10566000000E+00 0. -1.
     999900   -1    0    0    0    0 -0.00000000000E+00 -0.00000000000E+00 -0.74505805969E-08  0.93827000000E+00  0.93827000000E+00 0.  1.
     999902    2    1    2    0    0 -0.12668554553E-01  0.26102439715E-02  0.19630000197E-01  0.10204216492E+01  0.10201508220E+01 0.  0.
     999903    2    3    3    0    0 -0.11489529224E+00  0.15007041819E-01 -0.58055222445E-01  0.13101792746E+00  0.19213250053E-01 0.  0.
         14    1    1    2    0    0  0.12668554553E-01 -0.26102439715E-02 -0.19630000197E-01  0.23508350767E-01  0.00000000000E+00 0. -1.
     999901    1    3    3    0    0  0.10222673769E+00 -0.12396797848E-01  0.77685222642E-01  0.88940372178E+00  0.88000000000E+00 0. -1.
        -11    1    4    4    0    0 -0.26174240478E-01  0.29234817211E-02 -0.22614545813E-01  0.34717667164E-01  0.51100000000E-03 0. -1.
         11    1    4    4    0    0 -0.88721051765E-01  0.12083560098E-01 -0.35440676632E-01  0.96300260291E-01  0.51100000000E-03 0.  1.
</event>
<event>
 8    1  0.1142502E+005  0.1043930E+01  0.7957747E-01            NaN
         13   -1    0    0    0    0  0.00000000000E+00  0.00000000000E+00  0.74505805969E-08  0.10566000000E+00  0.10566000000E+00 0.  1.
     999900   -1    0    0    0    0 -0.00000000000E+00 -0.00000000000E+00 -0.74505805969E-08  0.93827000000E+00  0.93827000000E+00 0.  1.
     999902    2    1    2    0    0 -0.10883932171E-02 -0.15651766995E-01 -0.17342802879E-01  0.10205433538E+01  0.10202753558E+01 0.  0.
     999903    2    3    3    0    0 -0.97618392110E-02  0.31657756685E-01 -0.12666309183E+00  0.13247559438E+00  0.20217250349E-01 0.  0.
         14    1    1    2    0    0  0.10883932171E-02  0.15651766995E-01  0.17342802879E-01  0.23386646223E-01  0.00000000000E+00 0.  1.
     999901    1    3    3    0    0  0.86734459939E-02 -0.47309523680E-01  0.10932028895E+00  0.88806775939E+00  0.88000000000E+00 0. -1.
        -11    1    4    4    0    0 -0.44982126953E-02  0.25779133302E-01 -0.61547320160E-01  0.66881472555E-01  0.51100000000E-03 0.  1.
         11    1    4    4    0    0 -0.52636265158E-02  0.58786233828E-02 -0.65115771673E-01  0.65594121829E-01  0.51100000000E-03 0. -1.
</event>
<event>
 8    1  0.1094829E+005  0.1043930E+01  0.7957747E-01            NaN
         13   -1    0    0    0    0  0.00000000000E+00  0.00000000000E+00  0.74505805969E-08  0.10566000000E+00  0.10566000000E+00 0. -1.
     999900   -1    0    0    0    0 -0.00000000000E+00 -0.00000000000E+00 -0.74505805969E-08  0.93827000000E+00  0.93827000000E+00 0.  1.
     999902    2    1    2    0    0  0.35206164262E-02 -0.72602107536E-02  0.30176378743E-01  0.10126934952E+01  0.10122116359E+01 0.  0.
     999903    2    3    3    0    0 -0.95735039323E-01  0.35217745450E-01 -0.62325048928E-01  0.12128305318E+00  0.20486090793E-01 0.  0.
         14    1    1    2    0    0 -0.35206164262E-02  0.72602107536E-02 -0.30176378743E-01  0.31236504834E-01  0.00000000000E+00 0.  1.
     999901    1    3    3    0    0  0.99255655749E-01 -0.42477956203E-01  0.92501427671E-01  0.89141044199E+00  0.88000000000E+00 0. -1.
        -11    1    4    4    0    0 -0.45938366065E-01  0.26997887567E-01 -0.36480166019E-01  0.64577728697E-01  0.51100000000E-03 0. -1.
         11    1    4    4    0    0 -0.49796673258E-01  0.82198578824E-02 -0.25844882908E-01  0.56705324482E-01  0.51100000000E-03 0.  1.
</event>
<event>
 8    1  0.1170156E+005  0.1043930E+01  0.7957747E-01            NaN
         13   -1    0    0    0    0  0.00000000000E+00  0.00000000000E+00  0.74505805969E-08  0.10566000000E+00  0.10566000000E+00 0.  1.
     999900   -1    0    0    0    0 -0.00000000000E+00 -0.00000000000E+00 -0.74505805969E-08  0.93827000000E+00  0.93827000000E+00 0.  1.
     999902    2    1    2    0    0 -0.43622168382E-03  0.13119544687E-02  0.23928645492E-01  0.10199614458E+01  0.10196797828E+01 0.  0.
     999903    2    3    3    0    0 -0.10114599910E+00 -0.74607970291E-01 -0.25341882364E-01  0.12960540516E+00  0.18933770901E-01 0.  0.
         14    1    1    2    0    0  0.43622168382E-03 -0.13119544687E-02 -0.23928645492E-01  0.23968554169E-01  0.00000000000E+00 0. -1.
     999901    1    3    3    0    0  0.10070977741E+00  0.75919924760E-01  0.49270527856E-01  0.89035604067E+00  0.88000000000E+00 0. -1.
        -11    1    4    4    0    0 -0.48511568859E-01 -0.40299272722E-01 -0.37960656376E-02  0.63182868963E-01  0.51100000000E-03 0.  1.
         11    1    4    4    0    0 -0.52634430240E-01 -0.34308697570E-01 -0.21545816727E-01  0.66422536198E-01  0.51100000000E-03 0. -1.
</event>
<event>
 8    1  0.1094829E+005  0.1043930E+01  0.7957747E-01            NaN
         13   -1    0    0    0    0  0.00000000000E+00  0.00000000000E+00  0.74505805969E-08  0.10566000000E+00  0.10566000000E+00 0. -1.
     999900   -1    0    0    0    0 -0.00000000000E+00 -0.00000000000E+00 -0.74505805969E-08  0.93827000000E+00  0.93827000000E+00 0. -1.
     999902    2    1    2    0    0 -0.20892251383E-01 -0.24320869951E-02 -0.11125652612E-01  0.10201354342E+01  0.10198578934E+01 0.  0.
     999903    2    3    3    0    0 -0.88355099996E-01 -0.94778710611E-01  0.17237797162E-01  0.13228205661E+00  0.20292194794E-01 0.  0.
         14    1    1    2    0    0  0.20892251383E-01  0.24320869951E-02  0.11125652612E-01  0.23794565788E-01  0.00000000000E+00 0. -1.
     999901    1    3    3    0    0  0.67462848613E-01  0.92346623615E-01 -0.28363449774E-01  0.88785337760E+00  0.88000000000E+00 0. -1.
        -11    1    4    4    0    0 -0.34531518081E-01 -0.40438082321E-01 -0.26774742428E-02  0.53245602936E-01  0.51100000000E-03 0.  1.
         11    1    4    4    0    0 -0.53823581916E-01 -0.54340628290E-01  0.19915271404E-01  0.79036453674E-01  0.51100000000E-03 0. -1.
</event>
<event>
 8    1  0.1094829E+005  0.1043930E+01  0.7957747E-01            NaN
         13   -1    0    0    0    0  0.00000000000E+00  0.00000000000E+00  0.74505805969E-08  0.10566000000E+00  0.10566000000E+00 0.  1.
     999900   -1    0    0    0    0 -0.00000000000E+00 -0.00000000000E+00 -0.74505805969E-08  0.93827000000E+00  0.93827000000E+00 0. -1.
     999902    2    1    2    0    0  0.24526855964E-02 -0.13217703050E-02 -0.23200143375E-01  0.10205631561E+01  0.10202956170E+01 0.  0.
     999903    2    3    3    0    0 -0.14645312618E-01 -0.10023077832E-01 -0.13082719861E+00  0.13379845372E+00  0.21709975802E-01 0.  0.
         14    1    1    2    0    0 -0.24526855964E-02  0.13217703050E-02  0.23200143375E-01  0.23366843946E-01  0.00000000000E+00 0.  1.
     999901    1    3    3    0    0  0.17097998214E-01  0.87013075270E-02  0.10762705524E+00  0.88676470234E+00  0.88000000000E+00 0.  1.
        -11    1    4    4    0    0 -0.15997501668E-01 -0.13826250318E-01 -0.78060753238E-01  0.80875382994E-01  0.51100000000E-03 0. -1.
         11    1    4    4    0    0  0.13521890501E-02  0.38031724861E-02 -0.52766445373E-01  0.52923070721E-01  0.51100000000E-03 0.  1.
</event>
<event>
 8    1  0.1094829E+005  0.1043930E+01  0.7957747E-01            NaN
         13   -1    0    0    0    0  0.00000000000E+00  0.00000000000E+00  0.74505805969E-08  0.10566000000E+00  0.10566000000E+00 0. -1.
     999900   -1    0    0    0    0 -0.00000000000E+00 -0.00000000000E+00 -0.74505805969E-08  0.93827000000E+00  0.93827000000E+00 0.  1.
     999902    2    1    2    0    0  0.14799665595E-01 -0.24528261078E-02  0.18051469497E-01  0.10204586982E+01  0.10201887339E+01 0.  0.
     999903    2    3    3    0    0  0.79427135541E-01  0.10009487438E+00  0.27128964617E-01  0.13210339671E+00  0.19689412469E-01 0.  0.
         14    1    1    2    0    0 -0.14799665595E-01  0.24528261078E-02 -0.18051469497E-01  0.23471301810E-01  0.00000000000E+00 0.  1.
     999901    1    3    3    0    0 -0.64627469946E-01 -0.10254770049E+00 -0.90774951198E-02  0.88835530148E+00  0.88000000000E+00 0. -1.
        -11    1    4    4    0    0  0.34401757249E-01  0.41474952453E-01  0.16352036228E-02  0.53912777657E-01  0.51100000000E-03 0. -1.
         11    1    4    4    0    0  0.45025378292E-01  0.58619921931E-01  0.25493760994E-01  0.78190619055E-01  0.51100000000E-03 0.  1.
</event>
<event>
 8    1  0.1094829E+005  0.1043930E+01  0.7957747E-01            NaN
         13   -1    0    0    0    0  0.00000000000E+00  0.00000000000E+00  0.74505805969E-08  0.10566000000E+00  0.10566000000E+00 0.  1.
     999900   -1    0    0    0    0 -0.00000000000E+00 -0.00000000000E+00 -0.74505805969E-08  0.93827000000E+00  0.93827000000E+00 0.  1.
     999902    2    1    2    0    0  0.76788844525E-02 -0.11848620903E-01 -0.32783159507E-01  0.10082355938E+01  0.10076035540E+01 0.  0.
     999903    2    3    3    0    0  0.94060314093E-01 -0.13121902528E-01  0.67925769230E-01  0.11828859488E+00  0.18940816778E-01 0.  0.
         14    1    1    2    0    0 -0.76788844525E-02  0.11848620903E-01  0.32783159507E-01  0.35694406158E-01  0.00000000000E+00 0.  1.
     999901    1    3    3    0    0 -0.86381429640E-01  0.12732816249E-02 -0.10070892874E+00  0.88994699896E+00  0.88000000000E+00 0.  1.
        -11    1    4    4    0    0  0.87317604477E-01 -0.16911931501E-01  0.60611444839E-01  0.10763078484E+00  0.51100000000E-03 0.  1.
         11    1    4    4    0    0  0.67427096155E-02  0.37900289733E-02  0.73143243908E-02  0.10657810041E-01  0.51100000000E-03 0. -1.
</event>
<event>
 8    1  0.1094829E+005  0.1043930E+01  0.7957747E-01            NaN
         13   -1    0    0    0    0  0.00000000000E+00  0.00000000000E+00  0.74505805969E-08  0.10566000000E+00  0.10566000000E+00 0. -1.
     999900   -1    0    0    0    0 -0.00000000000E+00 -0.00000000000E+00 -0.74505805969E-08  0.93827000000E+00  0.93827000000E+00 0.  1.
     999902    2    1    2    0    0  0.89189491610E-02 -0.19518971739E-01  0.17121902474E-01  0.10164764491E+01  0.10161056412E+01 0.  0.
     999903    2    3    3    0    0 -0.10257937993E+00 -0.72451266470E-01  0.10680904718E-01  0.12783974513E+00  0.21382317686E-01 0.  0.
         14    1    1    2    0    0 -0.89189491610E-02  0.19518971739E-01 -0.17121902474E-01  0.27453550885E-01  0.00000000000E+00 0.  1.
     999901    1    3    3    0    0  0.11149832909E+00  0.52932294731E-01  0.64409977556E-02  0.88863670398E+00  0.88000000000E+00 0. -1.
        -11    1    4    4    0    0 -0.40405341242E-01 -0.27361455536E-01  0.14591962432E-01  0.50935521383E-01  0.51100000000E-03 0.  1.
         11    1    4    4    0    0 -0.62174038688E-01 -0.45089810935E-01 -0.39110577139E-02  0.76904223748E-01  0.51100000000E-03 0. -1.
</event>
<event>
 8    1  0.1094829E+005  0.1043930E+01  0.7957747E-01            NaN
         13   -1    0    0    0    0  0.00000000000E+00  0.00000000000E+00  0.74505805969E-08  0.10566000000E+00  0.10566000000E+00 0.  1.
     999900   -1    0    0    0    0 -0.00000000000E+00 -0.00000000000E+00 -0.74505805969E-08  0.93827000000E+00  0.93827000000E+00 0.  1.
     999902    2    1    2    0    0 -0.48132805323E-03 -0.11999244912E-01 -0.18825957811E-01  0.10215999699E+01  0.10213558970E+01 0.  0.
     999903    2    3    3    0    0  0.98124209002E-01 -0.20944415352E-01 -0.85370860650E-01  0.13355082034E+00  0.21922792648E-01 0.  0.
         14    1    1    2    0    0  0.48132805323E-03  0.11999244912E-01  0.18825957811E-01  0.22330030064E-01  0.00000000000E+00 0.  1.
     999901    1    3    3    0    0 -0.98605537055E-01  0.89451704402E-02  0.66544902839E-01  0.88804914960E+00  0.88000000000E+00 0.  1.
        -11    1    4    4    0    0  0.28040003412E-01  0.28964984396E-02 -0.17965882853E-01  0.33431505534E-01  0.51100000000E-03 0.  1.
         11    1    4    4    0    0  0.70084205589E-01 -0.23840913791E-01 -0.67404977797E-01  0.10011931480E+00  0.51100000000E-03 0. -1.
</event>
<event>
 8    1  0.1094829E+005  0.1043930E+01  0.7957747E-01            NaN
         13   -1    0    0    0    0  0.00000000000E+00  0.00000000000E+00  0.74505805969E-08  0.10566000000E+00  0.10566000000E+00 0. -1.
     999900   -1    0    0    0    0 -0.00000000000E+00 -0.00000000000E+00 -0.74505805969E-08  0.93827000000E+00  0.93827000000E+00 0.  1.
     999902    2    1    2    0    0 -0.11433679985E-01  0.19938526411E-01  0.35493565442E-02  0.10206733492E+01  0.10204083565E+01 0.  0.
     999903    2    3    3    0    0  0.17319428583E-01  0.83530175946E-01 -0.98741246281E-01  0.13200355308E+00  0.19946212922E-01 0.  0.
         14    1    1    2    0    0  0.11433679985E-01 -0.19938526411E-01 -0.35493565442E-02  0.23256650777E-01  0.00000000000E+00 0.  1.
     999901    1    3    3    0    0 -0.28753108568E-01 -0.63591649535E-01  0.10229060282E+00  0.88866979614E+00  0.88000000000E+00 0. -1.
        -11    1    4    4    0    0  0.10880061616E-01  0.50014160346E-01 -0.44029875241E-01  0.67518019895E-01  0.51100000000E-03 0.  1.
         11    1    4    4    0    0  0.64393669674E-02  0.33516015600E-01 -0.54711371040E-01  0.64485533189E-01  0.51100000000E-03 0. -1.
</event>
<event>
 8    1  0.1094829E+005  0.1043930E+01  0.7957747E-01            NaN
         13   -1    0    0    0    0  0.00000000000E+00  0.00000000000E+00  0.74505805969E-08  0.10566000000E+00  0.10566000000E+00 0.  1.
     999900   -1    0    0    0    0 -0.00000000000E+00 -0.00000000000E+00 -0.74505805969E-08  0.93827000000E+00  0.93827000000E+00 0. -1.
     999902    2    1    2    0    0 -0.16299045174E-01  0.10219124671E-01  0.15118697880E-01  0.10194623804E+01  0.10191687204E+01 0.  0.
     999903    2    3    3    0    0 -0.13492238019E-01  0.95114531618E-01 -0.84939496343E-01  0.12972829063E+00  0.19644254628E-01 0.  0.
         14    1    1    2    0    0  0.16299045174E-01 -0.10219124671E-01 -0.15118697880E-01  0.24467619586E-01  0.00000000000E+00 0.  1.
     999901    1    3    3    0    0 -0.28068071548E-02 -0.84895406947E-01  0.10005819422E+00  0.88973408978E+00  0.88000000000E+00 0.  1.
        -11    1    4    4    0    0 -0.14775362589E-01  0.52782695064E-01 -0.39187253847E-01  0.67381200813E-01  0.51100000000E-03 0. -1.
         11    1    4    4    0    0  0.12831245694E-02  0.42331836554E-01 -0.45752242496E-01  0.62347089821E-01  0.51100000000E-03 0.  1.
</event>
<event>
 8    1  0.1094829E+005  0.1043930E+01  0.7957747E-01            NaN
         13   -1    0    0    0    0  0.00000000000E+00  0.00000000000E+00  0.74505805969E-08  0.10566000000E+00  0.10566000000E+00 0. -1.
     999900   -1    0    0    0    0 -0.00000000000E+00 -0.00000000000E+00 -0.74505805969E-08  0.93827000000E+00  0.93827000000E+00 0.  1.
     999902    2    1    2    0    0 -0.34328338274E-03  0.45987913912E-02 -0.23290632001E-01  0.10201872060E+01  0.10199108859E+01 0.  0.
     999903    2    3    3    0    0  0.12036932679E+00 -0.45728484323E-01  0.81678525693E-04  0.13021494028E+00  0.19392134761E-01 0.  0.
         14    1    1    2    0    0  0.34328338274E-03 -0.45987913912E-02  0.23290632001E-01  0.23742793954E-01  0.00000000000E+00 0. -1.
     999901    1    3    3    0    0 -0.12071261017E+00  0.50327275714E-01 -0.23372310526E-01  0.88997226577E+00  0.88000000000E+00 0.  1.
        -11    1    4    4    0    0  0.67821780183E-01 -0.15860404513E-01 -0.27011059847E-02  0.69705834713E-01  0.51100000000E-03 0.  1.
         11    1    4    4    0    0  0.52547546605E-01 -0.29868079810E-01  0.27827845103E-02  0.60509105566E-01  0.51100000000E-03 0. -1.
</event>
<event>
 8    1  0.1094829E+005  0.1043930E+01  0.7957747E-01            NaN
         13   -1    0    0    0    0  0.00000000000E+00  0.00000000000E+00  0.74505805969E-08  0.10566000000E+00  0.10566000000E+00 0.  1.
     999900   -1    0    0    0    0 -0.00000000000E+00 -0.00000000000E+00 -0.74505805969E-08  0.93827000000E+00  0.93827000000E+00 0.  1.
     999902    2    1    2    0    0 -0.19961572006E-01 -0.95966466170E-02 -0.96750759261E-02  0.10197604514E+01  0.10194739875E+01 0.  0.
     999903    2    3    3    0    0 -0.10224154483E+00 -0.79295436083E-01  0.21260012309E-01  0.13263876032E+00  0.19998823558E-01 0.  0.
         14    1    1    2    0    0  0.19961572006E-01  0.95966466170E-02  0.96750759261E-02  0.24169548556E-01  0.00000000000E+00 0.  1.
     999901    1    3    3    0    0  0.82279972820E-01  0.69698789466E-01 -0.30935088235E-01  0.88712169112E+00  0.88000000000E+00 0. -1.
        -11    1    4    4    0    0 -0.32849693638E-01 -0.19062470235E-01  0.13934261509E-01  0.40458681496E-01  0.51100000000E-03 0. -1.
         11    1    4    4    0    0 -0.69391851188E-01 -0.60232965848E-01  0.73257507993E-02  0.92180078824E-01  0.51100000000E-03 0.  1.
</event>
<event>
 8    1  0.1094829E+005  0.1043930E+01  0.7957747E-01            NaN
         13   -1    0    0    0    0  0.00000000000E+00  0.00000000000E+00  0.74505805969E-08  0.10566000000E+00  0.10566000000E+00 0.  1.
     999900   -1    0    0    0    0 -0.00000000000E+00 -0.00000000000E+00 -0.74505805969E-08  0.93827000000E+00  0.93827000000E+00 0. -1.
     999902    2    1    2    0    0 -0.28469105766E-02 -0.18064547485E-01 -0.73647510871E-02  0.10242152255E+01  0.10240254664E+01 0.  0.
     999903    2    3    3    0    0 -0.11312631378E-01  0.10707840952E+00  0.73034555581E-01  0.13169268984E+00  0.20375397770E-01 0.  0.
         14    1    1    2    0    0  0.28469105766E-02  0.18064547485E-01  0.73647510871E-02  0.19714774517E-01  0.00000000000E+00 0.  1.
     999901    1    3    3    0    0  0.84657208011E-02 -0.12514295701E+00 -0.80399306668E-01  0.89252253564E+00  0.88000000000E+00 0. -1.
        -11    1    4    4    0    0  0.32240933107E-02  0.41481246347E-01  0.20402995993E-01  0.46342550023E-01  0.51100000000E-03 0.  1.
         11    1    4    4    0    0 -0.14536724688E-01  0.65597163174E-01  0.52631559589E-01  0.85350139818E-01  0.51100000000E-03 0. -1.
</event>
<event>
 8    1  0.1094829E+005  0.1043930E+01  0.7957747E-01            NaN
         13   -1    0    0    0    0  0.00000000000E+00  0.00000000000E+00  0.74505805969E-08  0.10566000000E+00  0.10566000000E+00 0.  1.
     999900   -1    0    0    0    0 -0.00000000000E+00 -0.00000000000E+00 -0.74505805969E-08  0.93827000000E+00  0.93827000000E+00 0. -1.
     999902    2    1    2    0    0 -0.19007690752E-01 -0.84968176328E-02  0.99952815536E-02  0.10208346786E+01  0.10205733914E+01 0.  0.
     999903    2    3    3    0    0 -0.47670639575E-01  0.88310165160E-01  0.83431418379E-01  0.13202309972E+00  0.19952998208E-01 0.  0.
         14    1    1    2    0    0  0.19007690752E-01  0.84968176328E-02 -0.99952815536E-02  0.23095321408E-01  0.00000000000E+00 0.  1.
     999901    1    3    3    0    0  0.28662948823E-01 -0.96806982793E-01 -0.73436136826E-01  0.88881157888E+00  0.88000000000E+00 0. -1.
        -11    1    4    4    0    0 -0.18050596479E-01  0.26313344148E-01  0.38126583384E-01  0.49720353931E-01  0.51100000000E-03 0. -1.
         11    1    4    4    0    0 -0.29620043097E-01  0.61996821012E-01  0.45304834996E-01  0.82302745785E-01  0.51100000000E-03 0.  1.
</event>
<event>
 8    1  0.1094829E+005  0.1043930E+01  0.7957747E-01            NaN
         13   -1    0    0    0    0  0.00000000000E+00  0.00000000000E+00  0.74505805969E-08  0.10566000000E+00  0.10566000000E+00 0. -1.
     999900   -1    0    0    0    0 -0.00000000000E+00 -0.00000000000E+00 -0.74505805969E-08  0.93827000000E+00  0.93827000000E+00 0.  1.
     999902    2    1    2    0    0 -0.66456050532E-02 -0.23914885691E-01 -0.70523697428E-02  0.10181264781E+01  0.10177994418E+01 0.  0.
     999903    2    3    3    0    0 -0.90412941356E-01 -0.62401435312E-01  0.66943828251E-01  0.13022241883E+00  0.20198097198E-01 0.  0.
         14    1    1    2    0    0  0.66456050532E-02  0.23914885691E-01  0.70523697428E-02  0.25803521913E-01  0.00000000000E+00 0. -1.
     999901    1    3    3    0    0  0.83767336303E-01  0.38486549621E-01 -0.73996197994E-01  0.88790405926E+00  0.88000000000E+00 0.  1.
        -11    1    4    4    0    0 -0.12808904722E-01 -0.62302979271E-02  0.16999880431E-01  0.22184267131E-01  0.51100000000E-03 0. -1.
         11    1    4    4    0    0 -0.77604036634E-01 -0.56171137385E-01  0.49943947820E-01  0.10803815170E+00  0.51100000000E-03 0.  1.
</event>
<event>
 8    1  0.1094829E+005  0.1043930E+01  0.7957747E-01            NaN
         13   -1    0    0    0    0  0.00000000000E+00  0.00000000000E+00  0.74505805969E-08  0.10566000000E+00  0.10566000000E+00 0.  1.
     999900   -1    0    0    0    0 -0.00000000000E+00 -0.00000000000E+00 -0.74505805969E-08  0.93827000000E+00  0.93827000000E+00 0. -1.
     999902    2    1    2    0    0 -0.27457219886E-03 -0.14156398448E-01  0.18384769786E-01  0.10207248547E+01  0.10204610479E+01 0.  0.
     999903    2    3    3    0    0  0.71792619667E-02  0.33898852855E-01 -0.12196771746E+00  0.12827671198E+00  0.19445223205E-01 0.  0.
         14    1    1    2    0    0  0.27457219886E-03  0.14156398448E-01 -0.18384769786E-01  0.23205145270E-01  0.00000000000E+00 0. -1.
     999901    1    3    3    0    0 -0.74538341655E-02 -0.48055251303E-01  0.14035248725E+00  0.89244814275E+00  0.88000000000E+00 0.  1.
        -11    1    4    4    0    0  0.12207843615E-01  0.27796160175E-01 -0.80015720296E-01  0.85582910571E-01  0.51100000000E-03 0.  1.
         11    1    4    4    0    0 -0.50285816486E-02  0.61026926805E-02 -0.41951997168E-01  0.42693801409E-01  0.51100000000E-03 0. -1.
</event>
<event>
 8    1  0.1094829E+005  0.1043930E+01  0.7957747E-01            NaN
         13   -1    0    0    0    0  0.00000000000E+00  0.00000000000E+00  0.74505805969E-08  0.10566000000E+00  0.10566000000E+00 0. -1.
     999900   -1    0    0    0    0 -0.00000000000E+00 -0.00000000000E+00 -0.74505805969E-08  0.93827000000E+00  0.93827000000E+00 0.  1.
     999902    2    1    2    0    0  0.15825526068E-01  0.55327011785E-02  0.80609938961E-02  0.10253279119E+01  0.10251591532E+01 0.  0.
     999903    2    3    3    0    0 -0.12708807916E+00 -0.30720592381E-02 -0.32219142229E-01  0.13284775539E+00  0.21204612075E-01 0.  0.
         14    1    1    2    0    0 -0.15825526068E-01 -0.55327011785E-02 -0.80609938961E-02  0.18602088062E-01  0.00000000000E+00 0.  1.
     999901    1    3    3    0    0  0.14291360523E+00  0.86047604167E-02  0.40280136125E-01  0.89248015655E+00  0.88000000000E+00 0. -1.
        -11    1    4    4    0    0 -0.44897197128E-01 -0.11233229572E-01 -0.11813486768E-01  0.47767806598E-01  0.51100000000E-03 0. -1.
         11    1    4    4    0    0 -0.82190882035E-01  0.81611703337E-02 -0.20405655461E-01  0.85079948794E-01  0.51100000000E-03 0.  1.
</event>
<event>
 8    1  0.1094829E+005  0.1043930E+01  0.7957747E-01            NaN
         13   -1    0    0    0    0  0.00000000000E+00  0.00000000000E+00  0.74505805969E-08  0.10566000000E+00  0.10566000000E+00 0. -1.
     999900   -1    0    0    0    0 -0.00000000000E+00 -0.00000000000E+00 -0.74505805969E-08  0.93827000000E+00  0.93827000000E+00 0.  1.
     999902    2    1    2    0    0 -0.71239994045E-02 -0.22646429146E-01 -0.14352717377E-02  0.10201461373E+01  0.10198688491E+01 0.  0.
     999903    2    3    3    0    0 -0.61328887273E-01 -0.62619995827E-01 -0.97274285170E-01  0.13238424782E+00  0.19514256919E-01 0.  0.
         14    1    1    2    0    0  0.71239994045E-02  0.22646429146E-01  0.14352717377E-02  0.23783862712E-01  0.00000000000E+00 0. -1.
     999901    1    3    3    0    0  0.54204887868E-01  0.39973566681E-01  0.95839013432E-01  0.88776188947E+00  0.88000000000E+00 0. -1.
        -11    1    4    4    0    0 -0.16505345582E-01 -0.61940896427E-02 -0.21604506676E-01  0.27889227472E-01  0.51100000000E-03 0. -1.
         11    1    4    4    0    0 -0.44823541691E-01 -0.56425906184E-01 -0.75669778494E-01  0.10449502034E+00  0.51100000000E-03 0.  1.
</event>
<event>
 8    1  0.1094829E+005  0.1043930E+01  0.7957747E-01            NaN
         13   -1    0    0    0    0  0.00000000000E+00  0.00000000000E+00  0.74505805969E-08  0.10566000000E+00  0.10566000000E+00 0.  1.
     999900   -1    0    0    0    0 -0.00000000000E+00 -0.00000000000E+00 -0.74505805969E-08  0.93827000000E+00  0.93827000000E+00 0. -1.
     999902    2    1    2    0    0  0.49067079272E-02 -0.74492689398E-02  0.21830722090E-01  0.10203472135E+01  0.10200746484E+01 0.  0.
     999903    2    3    3    0    0 -0.84987120397E-01  0.31978424006E-01  0.93186784280E-01  0.13201893472E+00  0.22356031034E-01 0.  0.
         14    1    1    2    0    0 -0.49067079272E-02  0.74492689398E-02 -0.21830722090E-01  0.23582786464E-01  0.00000000000E+00 0. -1.
     999901    1    3    3    0    0  0.89893828324E-01 -0.39427692945E-01 -0.71356062190E-01  0.88832827882E+00  0.88000000000E+00 0. -1.
        -11    1    4    4    0    0 -0.52759751264E-01  0.27366165034E-01  0.48417549234E-01  0.76661714936E-01  0.51100000000E-03 0.  1.
         11    1    4    4    0    0 -0.32227369132E-01  0.46122589717E-02  0.44769235046E-01  0.55357219779E-01  0.51100000000E-03 0. -1.
</event>
<event>
 8    1  0.1094829E+005  0.1043930E+01  0.7957747E-01            NaN
         13   -1    0    0    0    0  0.00000000000E+00  0.00000000000E+00  0.74505805969E-08  0.10566000000E+00  0.10566000000E+00 0. -1.
     999900   -1    0    0    0    0 -0.00000000000E+00 -0.00000000000E+00 -0.74505805969E-08  0.93827000000E+00  0.93827000000E+00 0.  1.
     999902    2    1    2    0    0  0.13738861307E-01  0.13545754187E-01  0.12674996524E-01  0.10208453882E+01  0.10205843460E+01 0.  0.
     999903    2    3    3    0    0 -0.10858912920E+00 -0.58951786681E-01 -0.29920988700E-01  0.12841362683E+00  0.18107508285E-01 0.  0.
         14    1    1    2    0    0 -0.13738861307E-01 -0.13545754187E-01 -0.12674996524E-01  0.23084611831E-01  0.00000000000E+00 0.  1.
     999901    1    3    3    0    0  0.12232799051E+00  0.72497540867E-01  0.42595985224E-01  0.89243176134E+00  0.88000000000E+00 0. -1.
        -11    1    4    4    0    0 -0.82991801106E-01 -0.51987090140E-01 -0.27776033718E-01  0.10179423246E+00  0.51100000000E-03 0.  1.
         11    1    4    4    0    0 -0.25597328097E-01 -0.69646965404E-02 -0.21449549823E-02  0.26619394367E-01  0.51100000000E-03 0. -1.
</event>
<event>
 8    1  0.1094829E+005  0.1043930E+01  0.7957747E-01            NaN
         13   -1    0    0    0    0  0.00000000000E+00  0.00000000000E+00  0.74505805969E-08  0.10566000000E+00  0.10566000000E+00 0. -1.
     999900   -1    0    0    0    0 -0.00000000000E+00 -0.00000000000E+00 -0.74505805969E-08  0.93827000000E+00  0.93827000000E+00 0. -1.
     999902    2    1    2    0    0 -0.10029357943E-01 -0.47627445500E-02 -0.20315678388E-01  0.10207783576E+01  0.10205157798E+01 0.  0.
     999903    2    3    3    0    0 -0.12494619670E-02  0.61200605921E-01  0.11120541038E+00  0.12851940027E+00  0.20087748253E-01 0.  0.
         14    1    1    2    0    0  0.10029357943E-01  0.47627445500E-02  0.20315678388E-01  0.23151642377E-01  0.00000000000E+00 0.  1.
     999901    1    3    3    0    0 -0.87798959760E-02 -0.65963350471E-01 -0.13152108876E+00  0.89225895735E+00  0.88000000000E+00 0. -1.
        -11    1    4    4    0    0  0.68614129462E-02  0.16363141595E-01  0.42701811819E-01  0.46244321210E-01  0.51100000000E-03 0. -1.
         11    1    4    4    0    0 -0.81108749133E-02  0.44837464326E-01  0.68503598556E-01  0.82275079065E-01  0.51100000000E-03 0.  1.
</event>
<event>
 8    1  0.1094829E+005  0.1043930E+01  0.7957747E-01            NaN
         13   -1    0    0    0    0  0.00000000000E+00  0.00000000000E+00  0.74505805969E-08  0.10566000000E+00  0.10566000000E+00 0. -1.
     999900   -1    0    0    0    0 -0.00000000000E+00 -0.00000000000E+00 -0.74505805969E-08  0.93827000000E+00  0.93827000000E+00 0. -1.
     999902    2    1    2    0    0  0.13031365407E-01 -0.26284180707E-02  0.19510821330E-01  0.10203207388E+01  0.10200475542E+01 0.  0.
     999903    2    3    3    0    0 -0.11901494968E+00 -0.45141698951E-01  0.11181670001E-01  0.12941502933E+00  0.20515575577E-01 0.  0.
         14    1    1    2    0    0 -0.13031365407E-01  0.26284180707E-02 -0.19510821330E-01  0.23609261210E-01  0.00000000000E+00 0.  1.
     999901    1    3    3    0    0  0.13204631509E+00  0.42513280880E-01  0.83291513290E-02  0.89090570946E+00  0.88000000000E+00 0. -1.
        -11    1    4    4    0    0 -0.79672819754E-01 -0.22951498615E-01  0.14289559160E-01  0.84136687113E-01  0.51100000000E-03 0.  1.
         11    1    4    4    0    0 -0.39342129929E-01 -0.22190200336E-01 -0.31078891597E-02  0.45278342221E-01  0.51100000000E-03 0. -1.
</event>
<event>
 8    1  0.1094829E+005  0.1043930E+01  0.7957747E-01            NaN
         13   -1    0    0    0    0  0.00000000000E+00  0.00000000000E+00  0.74505805969E-08  0.10566000000E+00  0.10566000000E+00 0. -1.
     999900   -1    0    0    0    0 -0.00000000000E+00 -0.00000000000E+00 -0.74505805969E-08  0.93827000000E+00  0.93827000000E+00 0.  1.
     999902    2    1    2    0    0 -0.68621103133E-02 -0.81575324202E-03 -0.22729447592E-01  0.10201732789E+01  0.10198966306E+01 0.  0.
     999903    2    3    3    0    0 -0.61937657675E-01  0.18125259443E-01 -0.11505431797E+00  0.13342869356E+00  0.20023029596E-01 0.  0.
         14    1    1    2    0    0  0.68621103133E-02  0.81575324202E-03  0.22729447592E-01  0.23756721136E-01  0.00000000000E+00 0. -1.
     999901    1    3    3    0    0  0.55075547361E-01 -0.18941012685E-01  0.92324870373E-01  0.88674458531E+00  0.88000000000E+00 0. -1.
        -11    1    4    4    0    0 -0.38089841858E-01  0.73737955012E-02 -0.85893605046E-01  0.94250630882E-01  0.51100000000E-03 0.  1.
         11    1    4    4    0    0 -0.23847815817E-01  0.10751463942E-01 -0.29160712919E-01  0.39178062677E-01  0.51100000000E-03 0. -1.
</event>
<event>
 8    1  0.1094829E+005  0.1043930E+01  0.7957747E-01            NaN
         13   -1    0    0    0    0  0.00000000000E+00  0.00000000000E+00  0.74505805969E-08  0.10566000000E+00  0.10566000000E+00 0.  1.
     999900   -1    0    0    0    0 -0.00000000000E+00 -0.00000000000E+00 -0.74505805969E-08  0.93827000000E+00  0.93827000000E+00 0.  1.
     999902    2    1    2    0    0  0.18241611353E-01 -0.12255383438E-01  0.94831654350E-02  0.10199950625E+01  0.10197141983E+01 0.  0.
     999903    2    3    3    0    0  0.11584880592E+00  0.56302620636E-01  0.19535273773E-01  0.13189123451E+00  0.20560639493E-01 0.  0.
         14    1    1    2    0    0 -0.18241611353E-01  0.12255383438E-01 -0.94831654350E-02  0.23934937531E-01  0.00000000000E+00 0. -1.
     999901    1    3    3    0    0 -0.97607194564E-01 -0.68558004074E-01 -0.10052108338E-01  0.88810382796E+00  0.88000000000E+00 0. -1.
        -11    1    4    4    0    0  0.35764155455E-01  0.28156519463E-01  0.81136425045E-02  0.46238044069E-01  0.51100000000E-03 0.  1.
         11    1    4    4    0    0  0.80084650462E-01  0.28146101174E-01  0.11421631269E-01  0.85653190441E-01  0.51100000000E-03 0. -1.
</event>
<event>
 8    1  0.1094829E+005  0.1043930E+01  0.7957747E-01            NaN
         13   -1    0    0    0    0  0.00000000000E+00  0.00000000000E+00  0.74505805969E-08  0.10566000000E+00  0.10566000000E+00 0.  1.
     999900   -1    0    0    0    0 -0.00000000000E+00 -0.00000000000E+00 -0.74505805969E-08  0.93827000000E+00  0.93827000000E+00 0.  1.
     999902    2    1    2    0    0  0.15861075327E-01  0.12810692277E-01 -0.12445773520E-01  0.10200430825E+01  0.10197633576E+01 0.  0.
     999903    2    3    3    0    0  0.19234863782E-01 -0.10934524871E+00 -0.64763967509E-01  0.13005957158E+00  0.19868499487E-01 0.  0.
         14    1    1    2    0    0 -0.15861075327E-01 -0.12810692277E-01  0.12445773520E-01  0.23886917458E-01  0.00000000000E+00 0.  1.
     999901    1    3    3    0    0 -0.33737884552E-02  0.12215594098E+00  0.52318193988E-01  0.88998351096E+00  0.88000000000E+00 0. -1.
        -11    1    4    4    0    0  0.14687571511E-01 -0.39005499029E-01 -0.17588338939E-01  0.45241181450E-01  0.51100000000E-03 0. -1.
         11    1    4    4    0    0  0.45472922709E-02 -0.70339749679E-01 -0.47175628569E-01  0.84818390127E-01  0.51100000000E-03 0.  1.
</event>
<event>
 8    1  0.1094829E+005  0.1043930E+01  0.7957747E-01            NaN
         13   -1    0    0    0    0  0.00000000000E+00  0.00000000000E+00  0.74505805969E-08  0.10566000000E+00  0.10566000000E+00 0.  1.
     999900   -1    0    0    0    0 -0.00000000000E+00 -0.00000000000E+00 -0.74505805969E-08  0.93827000000E+00  0.93827000000E+00 0.  1.
     999902    2    1    2    0    0 -0.78968611140E-02  0.15559645374E-01 -0.15647899882E-01  0.10204924287E+01  0.10202232487E+01 0.  0.
     999903    2    3    3    0    0  0.10891883961E-02 -0.12732066905E+00  0.46132709600E-02  0.12869309676E+00  0.18135373881E-01 0.  0.
         14    1    1    2    0    0  0.78968611140E-02 -0.15559645374E-01  0.15647899882E-01  0.23437571340E-01  0.00000000000E+00 0.  1.
     999901    1    3    3    0    0 -0.89860495101E-02  0.14288031442E+00 -0.20261170842E-01  0.89179933190E+00  0.88000000000E+00 0.  1.
        -11    1    4    4    0    0 -0.82993685108E-02 -0.48747974270E-01  0.30103077854E-02  0.49543592795E-01  0.51100000000E-03 0.  1.
         11    1    4    4    0    0  0.93885569069E-02 -0.78572694780E-01  0.16029631746E-02  0.79149503964E-01  0.51100000000E-03 0. -1.
</event>
<event>
 8    1  0.1094829E+005  0.1043930E+01  0.7957747E-01            NaN
         13   -1    0    0    0    0  0.00000000000E+00  0.00000000000E+00  0.74505805969E-08  0.10566000000E+00  0.10566000000E+00 0. -1.
     999900   -1    0    0    0    0 -0.00000000000E+00 -0.00000000000E+00 -0.74505805969E-08  0.93827000000E+00  0.93827000000E+00 0.  1.
     999902    2    1    2    0    0 -0.46470084024E-02 -0.29103580288E-02 -0.23145194793E-01  0.10201441867E+01  0.10198668525E+01 0.  0.
     999903    2    3    3    0    0 -0.11015929868E+00  0.60032605435E-01 -0.34099514474E-01  0.13154154372E+00  0.20035369584E-01 0.  0.
         14    1    1    2    0    0  0.46470084024E-02  0.29103580288E-02  0.23145194793E-01  0.23785813271E-01  0.00000000000E+00 0. -1.
     999901    1    3    3    0    0  0.10551229028E+00 -0.62942963464E-01  0.10954319681E-01  0.88860264301E+00  0.88000000000E+00 0.  1.
        -11    1    4    4    0    0 -0.56950166591E-01  0.24391398146E-01 -0.83583214173E-02  0.62517073158E-01  0.51100000000E-03 0. -1.
         11    1    4    4    0    0 -0.53209132091E-01  0.35641207289E-01 -0.25741193057E-01  0.69024470558E-01  0.51100000000E-03 0.  1.
</event>
<event>
 8    1  0.1094829E+005  0.1043930E+01  0.7957747E-01            NaN
         13   -1    0    0    0    0  0.00000000000E+00  0.00000000000E+00  0.74505805969E-08  0.10566000000E+00  0.10566000000E+00 0.  1.
     999900   -1    0    0    0    0 -0.00000000000E+00 -0.00000000000E+00 -0.74505805969E-08  0.93827000000E+00  0.93827000000E+00 0. -1.
     999902    2    1    2    0    0  0.59555731021E-02 -0.18152235870E-01 -0.55483804391E-02  0.10240363567E+01  0.10238431046E+01 0.  0.
     999903    2    3    3    0    0 -0.53308676167E-01 -0.99004740541E-02 -0.12154016244E+00  0.13441034747E+00  0.18822754337E-01 0.  0.
         14    1    1    2    0    0 -0.59555731021E-02  0.18152235870E-01  0.55483804391E-02  0.19893643295E-01  0.00000000000E+00 0.  1.
     999901    1    3    3    0    0  0.59264249269E-01 -0.82517618163E-02  0.11599178200E+00  0.88962600923E+00  0.88000000000E+00 0.  1.
        -11    1    4    4    0    0 -0.15359022406E-01 -0.11085991693E-01 -0.48927341939E-01  0.52468511426E-01  0.51100000000E-03 0.  1.
         11    1    4    4    0    0 -0.37949653761E-01  0.11855176390E-02 -0.72612820498E-01  0.81941836045E-01  0.51100000000E-03 0. -1.
</event>
<event>
 8    1  0.1094829E+005  0.1043930E+01  0.7957747E-01            NaN
         13   -1    0    0    0    0  0.00000000000E+00  0.00000000000E+00  0.74505805969E-08  0.10566000000E+00  0.10566000000E+00 0.  1.
     999900   -1    0    0    0    0 -0.00000000000E+00 -0.00000000000E+00 -0.74505805969E-08  0.93827000000E+00  0.93827000000E+00 0. -1.
     999902    2    1    2    0    0 -0.19023727569E-02  0.67200010659E-02  0.22133663196E-01  0.10207205949E+01  0.10204566901E+01 0.  0.
     999903    2    3    3    0    0  0.54329591708E-02  0.79665256797E-01 -0.99644948642E-01  0.12931448787E+00  0.20421821615E-01 0.  0.
         14    1    1    2    0    0  0.19023727569E-02 -0.67200010659E-02 -0.22133663196E-01  0.23209405053E-01  0.00000000000E+00 0. -1.
     999901    1    3    3    0    0 -0.73353319278E-02 -0.72945255731E-01  0.12177861184E+00  0.89140610707E+00  0.88000000000E+00 0.  1.
        -11    1    4    4    0    0 -0.40780068996E-02  0.55615867595E-01 -0.76026362051E-01  0.94286922298E-01  0.51100000000E-03 0. -1.
         11    1    4    4    0    0  0.95109660704E-02  0.24049389202E-01 -0.23618586591E-01  0.35027565575E-01  0.51100000000E-03 0.  1.
</event>
<event>
 8    1  0.1094829E+005  0.1043930E+01  0.7957747E-01            NaN
         13   -1    0    0    0    0  0.00000000000E+00  0.00000000000E+00  0.74505805969E-08  0.10566000000E+00  0.10566000000E+00 0.  1.
     999900   -1    0    0    0    0 -0.00000000000E+00 -0.00000000000E+00 -0.74505805969E-08  0.93827000000E+00  0.93827000000E+00 0. -1.
     999902    2    1    2    0    0 -0.15439180371E-01 -0.16402328387E-01 -0.88226543513E-02  0.10197381853E+01  0.10194511870E+01 0.  0.
     999903    2    3    3    0    0 -0.57248015895E-01 -0.11460262218E+00 -0.29445280563E-01  0.13304964411E+00  0.20593370654E-01 0.  0.
         14    1    1    2    0    0  0.15439180371E-01  0.16402328387E-01  0.88226543513E-02  0.24191814666E-01  0.00000000000E+00 0.  1.
     999901    1    3    3    0    0  0.41808835524E-01  0.98200293795E-01  0.20622626212E-01  0.88668854123E+00  0.88000000000E+00 0.  1.
        -11    1    4    4    0    0 -0.45038507798E-01 -0.95887768388E-01 -0.31711061402E-01  0.11058383176E+00  0.51100000000E-03 0. -1.
         11    1    4    4    0    0 -0.12209508098E-01 -0.18714853794E-01  0.22657808394E-02  0.22465812345E-01  0.51100000000E-03 0.  1.
</event>
<event>
 8    1  0.1094829E+005  0.1043930E+01  0.7957747E-01            NaN
         13   -1    0    0    0    0  0.00000000000E+00  0.00000000000E+00  0.74505805969E-08  0.10566000000E+00  0.10566000000E+00 0.  1.
     999900   -1    0    0    0    0 -0.00000000000E+00 -0.00000000000E+00 -0.74505805969E-08  0.93827000000E+00  0.93827000000E+00 0. -1.
     999902    2    1    2    0    0 -0.16639942764E-01  0.60036709274E-02 -0.16142165885E-01  0.10199821133E+01  0.10197009415E+01 0.  0.
     999903    2    3    3    0    0  0.90249168654E-01  0.78535023203E-01 -0.46891609700E-01  0.13002053684E+00  0.19845771060E-01 0.  0.
         14    1    1    2    0    0  0.16639942764E-01 -0.60036709274E-02  0.16142165885E-01  0.23947886739E-01  0.00000000000E+00 0.  1.
     999901    1    3    3    0    0 -0.10688911142E+00 -0.72531352276E-01  0.30749443815E-01  0.88996157642E+00  0.88000000000E+00 0.  1.
        -11    1    4    4    0    0  0.40252375890E-01  0.31099812714E-01 -0.99846136683E-02  0.51840194316E-01  0.51100000000E-03 0. -1.
         11    1    4    4    0    0  0.49996792764E-01  0.47435210489E-01 -0.36906996032E-01  0.78180342529E-01  0.51100000000E-03 0.  1.
</event>
<event>
 8    1  0.1094829E+005  0.1043930E+01  0.7957747E-01            NaN
         13   -1    0    0    0    0  0.00000000000E+00  0.00000000000E+00  0.74505805969E-08  0.10566000000E+00  0.10566000000E+00 0.  1.
     999900   -1    0    0    0    0 -0.00000000000E+00 -0.00000000000E+00 -0.74505805969E-08  0.93827000000E+00  0.93827000000E+00 0.  1.
     999902    2    1    2    0    0  0.15798327536E-01  0.18879309780E-01 -0.60284777399E-02  0.10185852168E+01  0.10182698492E+01 0.  0.
     999903    2    3    3    0    0 -0.78870323233E-01 -0.68477241420E-01  0.68284953987E-01  0.12610787447E+00  0.18185174789E-01 0.  0.
         14    1    1    2    0    0 -0.15798327536E-01 -0.18879309780E-01  0.60284777399E-02  0.25344783182E-01  0.00000000000E+00 0.  1.
     999901    1    3    3    0    0  0.94668650769E-01  0.87356551199E-01 -0.74313431726E-01  0.89247734235E+00  0.88000000000E+00 0.  1.
        -11    1    4    4    0    0 -0.23929491837E-01 -0.10767780367E-01  0.14661689396E-01  0.30063132415E-01  0.51100000000E-03 0. -1.
         11    1    4    4    0    0 -0.54940831395E-01 -0.57709461052E-01  0.53623264591E-01  0.96044742051E-01  0.51100000000E-03 0.  1.
</event>
<event>
 8    1  0.1094829E+005  0.1043930E+01  0.7957747E-01            NaN
         13   -1    0    0    0    0  0.00000000000E+00  0.00000000000E+00  0.74505805969E-08  0.10566000000E+00  0.10566000000E+00 0.  1.
     999900   -1    0    0    0    0 -0.00000000000E+00 -0.00000000000E+00 -0.74505805969E-08  0.93827000000E+00  0.93827000000E+00 0.  1.
     999902    2    1    2    0    0  0.70287535153E-02 -0.20770827968E-01  0.59236396818E-02  0.10212161237E+01  0.10209634916E+01 0.  0.
     999903    2    3    3    0    0 -0.31933899636E-01 -0.81519841606E-01  0.98423805789E-01  0.13342965626E+00  0.21236033123E-01 0.  0.
         14    1    1    2    0    0 -0.70287535153E-02  0.20770827968E-01 -0.59236396818E-02  0.22713876321E-01  0.00000000000E+00 0. -1.
     999901    1    3    3    0    0  0.38962653151E-01  0.60749013638E-01 -0.92500166107E-01  0.88778646742E+00  0.88000000000E+00 0.  1.
        -11    1    4    4    0    0 -0.28797399396E-01 -0.59126955624E-01  0.61001422708E-01  0.89703521597E-01  0.51100000000E-03 0.  1.
         11    1    4    4    0    0 -0.31365002396E-02 -0.22392885981E-01  0.37422383081E-01  0.43726134665E-01  0.51100000000E-03 0. -1.
</event>
<event>
 8    1  0.1094829E+005  0.1043930E+01  0.7957747E-01            NaN
         13   -1    0    0    0    0  0.00000000000E+00  0.00000000000E+00  0.74505805969E-08  0.10566000000E+00  0.10566000000E+00 0. -1.
     999900   -1    0    0    0    0 -0.00000000000E+00 -0.00000000000E+00 -0.74505805969E-08  0.93827000000E+00  0.93827000000E+00 0.  1.
     999902    2    1    2    0    0 -0.21404369438E-01 -0.39253305118E-03 -0.93894292441E-02  0.10205534627E+01  0.10202856991E+01 0.  0.
     999903    2    3    3    0    0  0.10150302239E+00  0.27168107057E-01 -0.72408621539E-01  0.12935357805E+00  0.21174751147E-01 0.  0.
         14    1    1    2    0    0  0.21404369438E-01  0.39253305118E-03  0.93894292441E-02  0.23376537271E-01  0.00000000000E+00 0. -1.
     999901    1    3    3    0    0 -0.12290739183E+00 -0.27560640108E-01  0.63019192295E-01  0.89119988468E+00  0.88000000000E+00 0. -1.
        -11    1    4    4    0    0  0.43776355786E-01  0.81157354625E-02 -0.18912269814E-01  0.48375299053E-01  0.51100000000E-03 0.  1.
         11    1    4    4    0    0  0.57726666606E-01  0.19052371595E-01 -0.53496351725E-01  0.80978279000E-01  0.51100000000E-03 0. -1.
</event>
<event>
 8    1  0.1094829E+005  0.1043930E+01  0.7957747E-01            NaN
         13   -1    0    0    0    0  0.00000000000E+00  0.00000000000E+00  0.74505805969E-08  0.10566000000E+00  0.10566000000E+00 0.  1.
     999900   -1    0    0    0    0 -0.00000000000E+00 -0.00000000000E+00 -0.74505805969E-08  0.93827000000E+00  0.93827000000E+00 0. -1.
     999902    2    1    2    0    0  0.22762257937E-01 -0.11231495555E-02 -0.16936673451E-03  0.10211394200E+01  0.10208850594E+01 0.  0.
     999903    2    3    3    0    0 -0.91904007683E-01  0.74202822231E-01 -0.49961013705E-01  0.12911836498E+00  0.14934652008E-01 0.  0.
         14    1    1    2    0    0 -0.22762257937E-01  0.11231495555E-02  0.16936673451E-03  0.22790579992E-01  0.00000000000E+00 0. -1.
     999901    1    3    3    0    0  0.11466626562E+00 -0.75325971786E-01  0.49791646970E-01  0.89202105502E+00  0.88000000000E+00 0.  1.
        -11    1    4    4    0    0 -0.55799942220E-01  0.35548424238E-01 -0.28130308883E-01  0.71895058359E-01  0.51100000000E-03 0. -1.
         11    1    4    4    0    0 -0.36104065463E-01  0.38654397993E-01 -0.21830704822E-01  0.57223306625E-01  0.51100000000E-03 0.  1.
</event>
<event>
 8    1  0.1094829E+005  0.1043930E+01  0.7957747E-01            NaN
         13   -1    0    0    0    0  0.00000000000E+00  0.00000000000E+00  0.74505805969E-08  0.10566000000E+00  0.10566000000E+00 0.  1.
     999900   -1    0    0    0    0 -0.00000000000E+00 -0.00000000000E+00 -0.74505805969E-08  0.93827000000E+00  0.93827000000E+00 0.  1.
     999902    2    1    2    0    0 -0.39279220879E-02  0.23814916590E-02  0.24812305023E-01  0.10186960832E+01  0.10183835031E+01 0.  0.
     999903    2    3    3    0    0 -0.99653848455E-01 -0.43473163207E-01  0.70555299098E-01  0.13113846604E+00  0.19961002291E-01 0.  0.
         14    1    1    2    0    0  0.39279220879E-02 -0.23814916590E-02 -0.24812305023E-01  0.25233916759E-01  0.00000000000E+00 0. -1.
     999901    1    3    3    0    0  0.95725926367E-01  0.45854654866E-01 -0.45742994075E-01  0.88755761721E+00  0.88000000000E+00 0. -1.
        -11    1    4    4    0    0 -0.45649209935E-01 -0.92737378076E-02  0.31292627659E-01  0.56119000770E-01  0.51100000000E-03 0. -1.
         11    1    4    4    0    0 -0.54004638520E-01 -0.34199425400E-01  0.39262671439E-01  0.75019465267E-01  0.51100000000E-03 0.  1.
</event>
<event>
 8    1  0.1094829E+005  0.1043930E+01  0.7957747E-01            NaN
         13   -1    0    0    0    0  0.00000000000E+00  0.00000000000E+00  0.74505805969E-08  0.10566000000E+00  0.10566000000E+00 0. -1.
     999900   -1    0    0    0    0 -0.00000000000E+00 -0.00000000000E+00 -0.74505805969E-08  0.93827000000E+00  0.93827000000E+00 0.  1.
     999902    2    1    2    0    0 -0.20920329590E-01 -0.12308362518E-02  0.13591161268E-01  0.10189521135E+01  0.10186459222E+01 0.  0.
     999903    2    3    3    0    0 -0.12973463617E+00  0.66293970316E-02  0.14793402629E-01  0.13221439471E+00  0.19666638806E-01 0.  0.
         14    1    1    2    0    0  0.20920329590E-01  0.12308362518E-02 -0.13591161268E-01  0.24977886472E-01  0.00000000000E+00 0. -1.
     999901    1    3    3    0    0  0.10881430658E+00 -0.78602332835E-02 -0.12022413615E-02  0.88673771881E+00  0.88000000000E+00 0. -1.
        -11    1    4    4    0    0 -0.51269008768E-01  0.44955753804E-04 -0.34434863174E-02  0.51387080090E-01  0.51100000000E-03 0. -1.
         11    1    4    4    0    0 -0.78465627398E-01  0.65844412778E-02  0.18236888947E-01  0.80827314624E-01  0.51100000000E-03 0.  1.
</event>
<event>
 8    1  0.1094829E+005  0.1043930E+01  0.7957747E-01            NaN
         13   -1    0    0    0    0  0.00000000000E+00  0.00000000000E+00  0.74505805969E-08  0.10566000000E+00  0.10566000000E+00 0. -1.
     999900   -1    0    0    0    0 -0.00000000000E+00 -0.00000000000E+00 -0.74505805969E-08  0.93827000000E+00  0.93827000000E+00 0. -1.
     999902    2    1    2    0    0 -0.78835027183E-03 -0.10889194295E-01 -0.20552811335E-01  0.10206573959E+01  0.10203920353E+01 0.  0.
     999903    2    3    3    0    0  0.43607846397E-01  0.45077010917E-01 -0.11522386461E+00  0.13270140219E+00  0.19988546429E-01 0.  0.
         14    1    1    2    0    0  0.78835027183E-03  0.10889194295E-01  0.20552811335E-01  0.23272604116E-01  0.00000000000E+00 0. -1.
     999901    1    3    3    0    0 -0.44396196668E-01 -0.55966205213E-01  0.94671053272E-01  0.88795599369E+00  0.88000000000E+00 0.  1.
        -11    1    4    4    0    0  0.29612129205E-01  0.40793527277E-01 -0.80051890223E-01  0.94602094654E-01  0.51100000000E-03 0.  1.
         11    1    4    4    0    0  0.13995717192E-01  0.42834836400E-02 -0.35171974385E-01  0.38099307539E-01  0.51100000000E-03 0. -1.
</event>
<event>
 8    1  0.1094829E+005  0.1043930E+01  0.7957747E-01            NaN
         13   -1    0    0    0    0  0.00000000000E+00  0.00000000000E+00  0.74505805969E-08  0.10566000000E+00  0.10566000000E+00 0. -1.
     999900   -1    0    0    0    0 -0.00000000000E+00 -0.00000000000E+00 -0.74505805969E-08  0.93827000000E+00  0.93827000000E+00 0. -1.
     999902    2    1    2    0    0  0.41208531458E-02  0.14740878472E-01  0.18254826549E-01  0.10201074556E+01  0.10198292540E+01 0.  0.
     999903    2    3    3    0    0 -0.74800935487E-01 -0.93133057610E-01  0.45970669221E-01  0.12958311415E+00  0.20236963059E-01 0.  0.
         14    1    1    2    0    0 -0.41208531458E-02 -0.14740878472E-01 -0.18254826549E-01  0.23822544388E-01  0.00000000000E+00 0.  1.
     999901    1    3    3    0    0  0.78921788633E-01  0.10787393608E+00 -0.27715842672E-01  0.89052434147E+00  0.88000000000E+00 0. -1.
        -11    1    4    4    0    0 -0.15616152423E-01 -0.11293183885E-01  0.13338295776E-01  0.23442940813E-01  0.51100000000E-03 0. -1.
         11    1    4    4    0    0 -0.59184783064E-01 -0.81839873725E-01  0.32632373445E-01  0.10614017333E+00  0.51100000000E-03 0.  1.
</event>
<event>
 8    1  0.1094829E+005  0.1043930E+01  0.7957747E-01            NaN
         13   -1    0    0    0    0  0.00000000000E+00  0.00000000000E+00  0.74505805969E-08  0.10566000000E+00  0.10566000000E+00 0.  1.
     999900   -1    0    0    0    0 -0.00000000000E+00 -0.00000000000E+00 -0.74505805969E-08  0.93827000000E+00  0.93827000000E+00 0. -1.
     999902    2    1    2    0    0  0.11418175093E-01  0.88499372758E-02  0.17385416195E-01  0.10213258232E+01  0.10210756526E+01 0.  0.
     999903    2    3    3    0    0  0.61716133461E-01  0.21333952572E-01 -0.11115965241E+00  0.13047815390E+00  0.20101284985E-01 0.  0.
         14    1    1    2    0    0 -0.11418175093E-01 -0.88499372758E-02 -0.17385416195E-01  0.22604176794E-01  0.00000000000E+00 0. -1.
     999901    1    3    3    0    0 -0.50297958368E-01 -0.12484015296E-01  0.12854506861E+00  0.89084766931E+00  0.88000000000E+00 0. -1.
        -11    1    4    4    0    0  0.34757815538E-01  0.30013459918E-02 -0.47300801505E-01  0.58777042821E-01  0.51100000000E-03 0.  1.
         11    1    4    4    0    0  0.26958317923E-01  0.18332606580E-01 -0.63858850906E-01  0.71701111074E-01  0.51100000000E-03 0. -1.
</event>
<event>
 8    1  0.1094829E+005  0.1043930E+01  0.7957747E-01            NaN
         13   -1    0    0    0    0  0.00000000000E+00  0.00000000000E+00  0.74505805969E-08  0.10566000000E+00  0.10566000000E+00 0. -1.
     999900   -1    0    0    0    0 -0.00000000000E+00 -0.00000000000E+00 -0.74505805969E-08  0.93827000000E+00  0.93827000000E+00 0.  1.
     999902    2    1    2    0    0  0.14488236928E-01 -0.10553813835E-01 -0.16269295484E-01  0.10197229355E+01  0.10194355709E+01 0.  0.
     999903    2    3    3    0    0 -0.93424277660E-01  0.84563809035E-01 -0.10942482510E-01  0.12802744493E+00  0.19802910810E-01 0.  0.
         14    1    1    2    0    0 -0.14488236928E-01  0.10553813835E-01  0.16269295484E-01  0.24207064491E-01  0.00000000000E+00 0. -1.
     999901    1    3    3    0    0  0.10791251459E+00 -0.95117622870E-01 -0.53268129741E-02  0.89169549058E+00  0.88000000000E+00 0.  1.
        -11    1    4    4    0    0 -0.50361850037E-01  0.55725097005E-01 -0.12648169932E-01  0.76169808317E-01  0.51100000000E-03 0.  1.
         11    1    4    4    0    0 -0.43062427623E-01  0.28838712030E-01  0.17056874226E-02  0.51857636611E-01  0.51100000000E-03 0. -1.
</event>
<event>
 8    1  0.1094829E+005  0.1043930E+01  0.7957747E-01            NaN
         13   -1    0    0    0    0  0.00000000000E+00  0.00000000000E+00  0.74505805969E-08  0.10566000000E+00  0.10566000000E+00 0.  1.
     999900   -1    0    0    0    0 -0.00000000000E+00 -0.00000000000E+00 -0.74505805969E-08  0.93827000000E+00  0.93827000000E+00 0.  1.
     999902    2    1    2    0    0  0.47886834815E-02 -0.21592788470E-01  0.91216013930E-02  0.10200054600E+01  0.10197248427E+01 0.  0.
     999903    2    3    3    0    0  0.69086041975E-01  0.40648487058E-01  0.10185904126E+00  0.13061895263E+00  0.16151340638E-01 0.  0.
         14    1    1    2    0    0 -0.47886834815E-02  0.21592788470E-01 -0.91216013930E-02  0.23924540024E-01  0.00000000000E+00 0. -1.
     999901    1    3    3    0    0 -0.64297358493E-01 -0.62241275528E-01 -0.92737439870E-01  0.88938650734E+00  0.88000000000E+00 0.  1.
        -11    1    4    4    0    0  0.21145628982E-01  0.55025180636E-02  0.21461694027E-01  0.30631368915E-01  0.51100000000E-03 0. -1.
         11    1    4    4    0    0  0.47940412993E-01  0.35145968995E-01  0.80397347236E-01  0.99987583720E-01  0.51100000000E-03 0.  1.
</event>
<event>
 8    1  0.1094829E+005  0.1043930E+01  0.7957747E-01            NaN
         13   -1    0    0    0    0  0.00000000000E+00  0.00000000000E+00  0.74505805969E-08  0.10566000000E+00  0.10566000000E+00 0. -1.
     999900   -1    0    0    0    0 -0.00000000000E+00 -0.00000000000E+00 -0.74505805969E-08  0.93827000000E+00  0.93827000000E+00 0. -1.
     999902    2    1    2    0    0 -0.17419001791E-01 -0.12321459867E-02 -0.16833999889E-01  0.10196746221E+01  0.10193860954E+01 0.  0.
     999903    2    3    3    0    0  0.50010405019E-02 -0.82735837884E-01 -0.10026764098E+00  0.13169563438E+00  0.20491730284E-01 0.  0.
         14    1    1    2    0    0  0.17419001791E-01  0.12321459867E-02  0.16833999889E-01  0.24255377948E-01  0.00000000000E+00 0.  1.
     999901    1    3    3    0    0 -0.22420042293E-01  0.81503691898E-01  0.83433641088E-01  0.88797898768E+00  0.88000000000E+00 0.  1.
        -11    1    4    4    0    0  0.64871162091E-03 -0.23483758228E-01 -0.43920777425E-01  0.49811680738E-01  0.51100000000E-03 0.  1.
         11    1    4    4    0    0  0.43523288810E-02 -0.59252079656E-01 -0.56346863552E-01  0.81883953638E-01  0.51100000000E-03 0. -1.
</event>
<event>
 8    1  0.1094829E+005  0.1043930E+01  0.7957747E-01            NaN
         13   -1    0    0    0    0  0.00000000000E+00  0.00000000000E+00  0.74505805969E-08  0.10566000000E+00  0.10566000000E+00 0. -1.
     999900   -1    0    0    0    0 -0.00000000000E+00 -0.00000000000E+00 -0.74505805969E-08  0.93827000000E+00  0.93827000000E+00 0.  1.
     999902    2    1    2    0    0  0.11553167478E-01 -0.64567876884E-02  0.19778260413E-01  0.10201319881E+01  0.10198543660E+01 0.  0.
     999903    2    3    3    0    0  0.11472365547E+00  0.31767434161E-01 -0.51231093600E-01  0.13044239667E+00  0.14829258232E-01 0.  0.
         14    1    1    2    0    0 -0.11553167478E-01  0.64567876884E-02 -0.19778260413E-01  0.23798011913E-01  0.00000000000E+00 0.  1.
     999901    1    3    3    0    0 -0.10317048799E+00 -0.38224221849E-01  0.71009354013E-01  0.88968959142E+00  0.88000000000E+00 0. -1.
        -11    1    4    4    0    0  0.69587991221E-01  0.16430592399E-01 -0.23371833422E-01  0.75226036764E-01  0.51100000000E-03 0.  1.
         11    1    4    4    0    0  0.45135664245E-01  0.15336841761E-01 -0.27859260178E-01  0.55216359901E-01  0.51100000000E-03 0. -1.
</event>
<event>
 8    1  0.1146844E+005  0.1043930E+01  0.7957747E-01            NaN
         13   -1    0    0    0    0  0.00000000000E+00  0.00000000000E+00  0.74505805969E-08  0.10566000000E+00  0.10566000000E+00 0. -1.
     999900   -1    0    0    0    0 -0.00000000000E+00 -0.00000000000E+00 -0.74505805969E-08  0.93827000000E+00  0.93827000000E+00 0.  1.
     999902    2    1    2    0    0 -0.10447228642E-01 -0.84285200239E-03  0.20645713047E-01  0.10207761568E+01  0.10205135285E+01 0.  0.
     999903    2    3    3    0    0 -0.96839176456E-01  0.27108340701E-01 -0.82099242083E-01  0.13015762816E+00  0.93826641386E-02 0.  0.
         14    1    1    2    0    0  0.10447228642E-01  0.84285200239E-03 -0.20645713047E-01  0.23153843159E-01  0.00000000000E+00 0.  1.
     999901    1    3    3    0    0  0.86391947813E-01 -0.27951192704E-01  0.10274495513E+00  0.89061852868E+00  0.88000000000E+00 0. -1.
        -11    1    4    4    0    0 -0.53156129598E-01  0.19684833468E-01 -0.45977827048E-01  0.72988276343E-01  0.51100000000E-03 0.  1.
         11    1    4    4    0    0 -0.43683046858E-01  0.74235072335E-02 -0.36121415035E-01  0.57169351820E-01  0.51100000000E-03 0. -1.
</event>
<event>
 8    1  0.1094829E+005  0.1043930E+01  0.7957747E-01            NaN
         13   -1    0    0    0    0  0.00000000000E+00  0.00000000000E+00  0.74505805969E-08  0.10566000000E+00  0.10566000000E+00 0.  1.
     999900   -1    0    0    0    0 -0.00000000000E+00 -0.00000000000E+00 -0.74505805969E-08  0.93827000000E+00  0.93827000000E+00 0.  1.
     999902    2    1    2    0    0  0.23043795327E-01  0.71038863114E-02 -0.32996353957E-02  0.10195913620E+01  0.10193008272E+01 0.  0.
     999903    2    3    3    0    0  0.65785206926E-01  0.11152373305E+00 -0.21735451417E-01  0.13219617839E+00  0.15432538638E-01 0.  0.
         14    1    1    2    0    0 -0.23043795327E-01 -0.71038863114E-02  0.32996353957E-02  0.24338637956E-01  0.00000000000E+00 0. -1.
     999901    1    3    3    0    0 -0.42741411599E-01 -0.10441984674E+00  0.18435816022E-01  0.88739518365E+00  0.88000000000E+00 0.  1.
        -11    1    4    4    0    0  0.34225908071E-01  0.72662538182E-01 -0.14237601401E-01  0.81573449436E-01  0.51100000000E-03 0. -1.
         11    1    4    4    0    0  0.31559298856E-01  0.38861194870E-01 -0.74978500167E-02  0.50622728955E-01  0.51100000000E-03 0.  1.
</event>
<event>
 8    1  0.1094829E+005  0.1043930E+01  0.7957747E-01            NaN
         13   -1    0    0    0    0  0.00000000000E+00  0.00000000000E+00  0.74505805969E-08  0.10566000000E+00  0.10566000000E+00 0. -1.
     999900   -1    0    0    0    0 -0.00000000000E+00 -0.00000000000E+00 -0.74505805969E-08  0.93827000000E+00  0.93827000000E+00 0.  1.
     999902    2    1    2    0    0 -0.27095158514E-02 -0.22710381108E-01 -0.55803170596E-02  0.10203876377E+01  0.10201160171E+01 0.  0.
     999903    2    3    3    0    0 -0.60344805136E-01  0.78324313276E-01  0.80014263401E-01  0.12861621613E+00  0.19069744309E-01 0.  0.
         14    1    1    2    0    0  0.27095158514E-02  0.22710381108E-01  0.55803170596E-02  0.23542362343E-01  0.00000000000E+00 0. -1.
     999901    1    3    3    0    0  0.57635289285E-01 -0.10103469438E+00 -0.85594580460E-01  0.89177142152E+00  0.88000000000E+00 0.  1.
        -11    1    4    4    0    0 -0.24576592180E-01  0.35194968334E-01  0.23110306684E-01  0.48754918472E-01  0.51100000000E-03 0. -1.
         11    1    4    4    0    0 -0.35768212957E-01  0.43129344943E-01  0.56903956717E-01  0.79861297663E-01  0.51100000000E-03 0.  1.
</event>
<event>
 8    1  0.1094829E+005  0.1043930E+01  0.7957747E-01            NaN
         13   -1    0    0    0    0  0.00000000000E+00  0.00000000000E+00  0.74505805969E-08  0.10566000000E+00  0.10566000000E+00 0.  1.
     999900   -1    0    0    0    0 -0.00000000000E+00 -0.00000000000E+00 -0.74505805969E-08  0.93827000000E+00  0.93827000000E+00 0. -1.
     999902    2    1    2    0    0  0.14157844230E-01 -0.17585590704E-01 -0.73556863487E-02  0.10201854496E+01  0.10199090880E+01 0.  0.
     999903    2    3    3    0    0 -0.78099927512E-01  0.40528444330E-02 -0.10199522147E+00  0.13005267299E+00  0.19865757562E-01 0.  0.
         14    1    1    2    0    0 -0.14157844230E-01  0.17585590704E-01  0.73556863487E-02  0.23744550434E-01  0.00000000000E+00 0.  1.
     999901    1    3    3    0    0  0.92257771742E-01 -0.21638435137E-01  0.94639535125E-01  0.89013277657E+00  0.88000000000E+00 0.  1.
        -11    1    4    4    0    0 -0.78103696572E-02 -0.47061645195E-02 -0.17936573230E-01  0.20127882127E-01  0.51100000000E-03 0. -1.
         11    1    4    4    0    0 -0.70289557855E-01  0.87590089525E-02 -0.84058648244E-01  0.10992479087E+00  0.51100000000E-03 0.  1.
</event>
<event>
 8    1  0.1094829E+005  0.1043930E+01  0.7957747E-01            NaN
         13   -1    0    0    0    0  0.00000000000E+00  0.00000000000E+00  0.74505805969E-08  0.10566000000E+00  0.10566000000E+00 0. -1.
     999900   -1    0    0    0    0 -0.00000000000E+00 -0.00000000000E+00 -0.74505805969E-08  0.93827000000E+00  0.93827000000E+00 0.  1.
     999902    2    1    2    0    0  0.50205279737E-02  0.22130944914E-01 -0.56736322583E-02  0.10205382381E+01  0.10202701215E+01 0.  0.
     999903    2    3    3    0    0  0.75046046136E-01 -0.98821541464E-01  0.28709650704E-01  0.12884586548E+00  0.19478370325E-01 0.  0.
         14    1    1    2    0    0 -0.50205279737E-02 -0.22130944914E-01  0.56736322583E-02  0.23391761946E-01  0.00000000000E+00 0. -1.
     999901    1    3    3    0    0 -0.70025518163E-01  0.12095248638E+00 -0.34383282962E-01  0.89169237257E+00  0.88000000000E+00 0.  1.
        -11    1    4    4    0    0  0.13646889729E-01 -0.10555174408E-01  0.92304318988E-02  0.19573229169E-01  0.51100000000E-03 0.  1.
         11    1    4    4    0    0  0.61399156407E-01 -0.88266367055E-01  0.19479218805E-01  0.10927263631E+00  0.51100000000E-03 0. -1.
</event>
<event>
 8    1  0.1094829E+005  0.1043930E+01  0.7957747E-01            NaN
         13   -1    0    0    0    0  0.00000000000E+00  0.00000000000E+00  0.74505805969E-08  0.10566000000E+00  0.10566000000E+00 0. -1.
     999900   -1    0    0    0    0 -0.00000000000E+00 -0.00000000000E+00 -0.74505805969E-08  0.93827000000E+00  0.93827000000E+00 0. -1.
     999902    2    1    2    0    0 -0.95884462319E-02 -0.17814375879E-01  0.12343737976E-01  0.10202306718E+01  0.10199553743E+01 0.  0.
     999903    2    3    3    0    0  0.10580140769E+00 -0.19890021129E-01  0.71634494350E-01  0.13071702915E+00  0.19128254502E-01 0.  0.
         14    1    1    2    0    0  0.95884462319E-02  0.17814375879E-01 -0.12343737976E-01  0.23699328183E-01  0.00000000000E+00 0.  1.
     999901    1    3    3    0    0 -0.11538985392E+00  0.20756452499E-02 -0.59290756374E-01  0.88951364266E+00  0.88000000000E+00 0. -1.
        -11    1    4    4    0    0  0.17210923052E-01 -0.10253741145E-01  0.10274267981E-01  0.22520585767E-01  0.51100000000E-03 0. -1.
         11    1    4    4    0    0  0.88590484639E-01 -0.96362799837E-02  0.61360226369E-01  0.10819644339E+00  0.51100000000E-03 0.  1.
</event>
<event>
 8    1  0.1094829E+005  0.1043930E+01  0.7957747E-01            NaN
         13   -1    0    0    0    0  0.00000000000E+00  0.00000000000E+00  0.74505805969E-08  0.10566000000E+00  0.10566000000E+00 0. -1.
     999900   -1    0    0    0    0 -0.00000000000E+00 -0.00000000000E+00 -0.74505805969E-08  0.93827000000E+00  0.93827000000E+00 0. -1.
     999902    2    1    2    0    0  0.16253847557E-01 -0.15963880243E-01  0.51584650433E-02  0.10205710019E+01  0.10203036445E+01 0.  0.
     999903    2    3    3    0    0 -0.54388718723E-01 -0.26075892554E-01 -0.11165955145E+00  0.12998744376E+00  0.28121081235E-01 0.  0.
         14    1    1    2    0    0 -0.16253847557E-01  0.15963880243E-01 -0.51584650433E-02  0.23358998147E-01  0.00000000000E+00 0.  1.
     999901    1    3    3    0    0  0.70642566281E-01  0.10112012311E-01  0.11681801649E+00  0.89058355809E+00  0.88000000000E+00 0.  1.
        -11    1    4    4    0    0 -0.29682390662E-01 -0.28331789126E-01 -0.78407383106E-01  0.88496968519E-01  0.51100000000E-03 0.  1.
         11    1    4    4    0    0 -0.24706328061E-01  0.22558965723E-02 -0.33252168342E-01  0.41490475244E-01  0.51100000000E-03 0. -1.
</event>
<event>
 8    1  0.1094829E+005  0.1043930E+01  0.7957747E-01            NaN
         13   -1    0    0    0    0  0.00000000000E+00  0.00000000000E+00  0.74505805969E-08  0.10566000000E+00  0.10566000000E+00 0. -1.
     999900   -1    0    0    0    0 -0.00000000000E+00 -0.00000000000E+00 -0.74505805969E-08  0.93827000000E+00  0.93827000000E+00 0.  1.
     999902    2    1    2    0    0  0.20807229925E-01 -0.21063294173E-02  0.11296815147E-01  0.10201603666E+01  0.10198834140E+01 0.  0.
     999903    2    3    3    0    0 -0.74306113340E-01  0.65466975035E-01 -0.78480564932E-01  0.12793131666E+00  0.19997485081E-01 0.  0.
         14    1    1    2    0    0 -0.20807229925E-01  0.21063294173E-02 -0.11296815147E-01  0.23769633426E-01  0.00000000000E+00 0.  1.
     999901    1    3    3    0    0  0.95113343265E-01 -0.67573304452E-01  0.89777380079E-01  0.89222904992E+00  0.88000000000E+00 0. -1.
        -11    1    4    4    0    0 -0.37229787629E-01  0.20088385488E-01 -0.29810281748E-01  0.51754365394E-01  0.51100000000E-03 0.  1.
         11    1    4    4    0    0 -0.37076325711E-01  0.45378589547E-01 -0.48670283184E-01  0.76176951263E-01  0.51100000000E-03 0. -1.
</event>
<event>
 8    1  0.1094829E+005  0.1043930E+01  0.7957747E-01            NaN
         13   -1    0    0    0    0  0.00000000000E+00  0.00000000000E+00  0.74505805969E-08  0.10566000000E+00  0.10566000000E+00 0. -1.
     999900   -1    0    0    0    0 -0.00000000000E+00 -0.00000000000E+00 -0.74505805969E-08  0.93827000000E+00  0.93827000000E+00 0.  1.
     999902    2    1    2    0    0  0.46132813271E-02  0.11152571401E-01  0.19943820325E-01  0.10206186684E+01  0.10203524136E+01 0.  0.
     999903    2    3    3    0    0  0.57063728692E-01 -0.11823270676E-01 -0.11286831738E+00  0.12881263415E+00  0.21386415938E-01 0.  0.
         14    1    1    2    0    0 -0.46132813271E-02 -0.11152571401E-01 -0.19943820325E-01  0.23311331636E-01  0.00000000000E+00 0.  1.
     999901    1    3    3    0    0 -0.52450447365E-01  0.22975842077E-01  0.13281213770E+00  0.89180603422E+00  0.88000000000E+00 0. -1.
        -11    1    4    4    0    0  0.35188064836E-01  0.23063004059E-02 -0.54766386278E-01  0.65139366864E-01  0.51100000000E-03 0.  1.
         11    1    4    4    0    0  0.21875663856E-01 -0.14129571082E-01 -0.58101931097E-01  0.63673267282E-01  0.51100000000E-03 0. -1.
</event>
<event>
 8    1  0.1094829E+005  0.1043930E+01  0.7957747E-01            NaN
         13   -1    0    0    0    0  0.00000000000E+00  0.00000000000E+00  0.74505805969E-08  0.10566000000E+00  0.10566000000E+00 0. -1.
     999900   -1    0    0    0    0 -0.00000000000E+00 -0.00000000000E+00 -0.74505805969E-08  0.93827000000E+00  0.93827000000E+00 0. -1.
     999902    2    1    2    0    0 -0.18110402861E-01 -0.11524043409E-01  0.77040702550E-02  0.10211233570E+01  0.10208686336E+01 0.  0.
     999903    2    3    3    0    0 -0.12173658044E+00 -0.48701353981E-01 -0.17885640164E-01  0.13389431642E+00  0.20400366350E-01 0.  0.
         14    1    1    2    0    0  0.18110402861E-01  0.11524043409E-01 -0.77040702550E-02  0.22806643040E-01  0.00000000000E+00 0.  1.
     999901    1    3    3    0    0  0.10362617758E+00  0.37177310571E-01  0.25589710419E-01  0.88722904054E+00  0.88000000000E+00 0.  1.
        -11    1    4    4    0    0 -0.69234988406E-01 -0.28258160996E-01 -0.47551254749E-05  0.74781471142E-01  0.51100000000E-03 0.  1.
         11    1    4    4    0    0 -0.52501592037E-01 -0.20443192985E-01 -0.17880885039E-01  0.59112845276E-01  0.51100000000E-03 0. -1.
</event>
<event>
 8    1  0.1094829E+005  0.1043930E+01  0.7957747E-01            NaN
         13   -1    0    0    0    0  0.00000000000E+00  0.00000000000E+00  0.74505805969E-08  0.10566000000E+00  0.10566000000E+00 0. -1.
     999900   -1    0    0    0    0 -0.00000000000E+00 -0.00000000000E+00 -0.74505805969E-08  0.93827000000E+00  0.93827000000E+00 0. -1.
     999902    2    1    2    0    0  0.18427909090E-01 -0.15047203536E-01 -0.72080423086E-02  0.10190711577E+01  0.10187679139E+01 0.  0.
     999903    2    3    3    0    0 -0.42773491447E-01 -0.49708889186E-01 -0.11074984780E+00  0.13021349226E+00  0.19735236103E-01 0.  0.
         14    1    1    2    0    0 -0.18427909090E-01  0.15047203536E-01  0.72080423086E-02  0.24858842323E-01  0.00000000000E+00 0. -1.
     999901    1    3    3    0    0  0.61201400537E-01  0.34661685650E-01  0.10354180550E+00  0.88885766541E+00  0.88000000000E+00 0.  1.
        -11    1    4    4    0    0 -0.33345077905E-01 -0.23976304216E-01 -0.66280245626E-01  0.77974928442E-01  0.51100000000E-03 0. -1.
         11    1    4    4    0    0 -0.94284135416E-02 -0.25732584970E-01 -0.44469602179E-01  0.52238563821E-01  0.51100000000E-03 0.  1.
</event>
<event>
 8    1  0.1094829E+005  0.1043930E+01  0.7957747E-01            NaN
         13   -1    0    0    0    0  0.00000000000E+00  0.00000000000E+00  0.74505805969E-08  0.10566000000E+00  0.10566000000E+00 0. -1.
     999900   -1    0    0    0    0 -0.00000000000E+00 -0.00000000000E+00 -0.74505805969E-08  0.93827000000E+00  0.93827000000E+00 0.  1.
     999902    2    1    2    0    0 -0.73468757611E-02 -0.22933461476E-01 -0.16336767114E-03  0.10198479127E+01  0.10195635430E+01 0.  0.
     999903    2    3    3    0    0  0.71777342914E-01  0.71925903449E-01 -0.75171528794E-01  0.12806028928E+00  0.20575626494E-01 0.  0.
         14    1    1    2    0    0  0.73468757611E-02  0.22933461476E-01  0.16336767114E-03  0.24082087279E-01  0.00000000000E+00 0. -1.
     999901    1    3    3    0    0 -0.79124218675E-01 -0.94859364924E-01  0.75008161123E-01  0.89178762345E+00  0.88000000000E+00 0. -1.
        -11    1    4    4    0    0  0.20141641588E-01  0.21795380030E-01 -0.34053169886E-01  0.45173043032E-01  0.51100000000E-03 0.  1.
         11    1    4    4    0    0  0.51635701325E-01  0.50130523419E-01 -0.41118358908E-01  0.82887246244E-01  0.51100000000E-03 0. -1.
</event>
<event>
 8    1  0.1094829E+005  0.1043930E+01  0.7957747E-01            NaN
         13   -1    0    0    0    0  0.00000000000E+00  0.00000000000E+00  0.74505805969E-08  0.10566000000E+00  0.10566000000E+00 0. -1.
     999900   -1    0    0    0    0 -0.00000000000E+00 -0.00000000000E+00 -0.74505805969E-08  0.93827000000E+00  0.93827000000E+00 0.  1.
     999902    2    1    2    0    0  0.13691655559E-01  0.12220707802E-01 -0.14671632605E-01  0.10204339592E+01  0.10201634188E+01 0.  0.
     999903    2    3    3    0    0 -0.65472289476E-01 -0.85612590926E-01 -0.69561442115E-01  0.12978746605E+00  0.19744763847E-01 0.  0.
         14    1    1    2    0    0 -0.13691655559E-01 -0.12220707802E-01  0.14671632605E-01  0.23496040825E-01  0.00000000000E+00 0. -1.
     999901    1    3    3    0    0  0.79163945035E-01  0.97833298728E-01  0.54889809510E-01  0.89064649313E+00  0.88000000000E+00 0. -1.
        -11    1    4    4    0    0 -0.38199640433E-01 -0.57210250185E-01 -0.34039897224E-01  0.76754159362E-01  0.51100000000E-03 0.  1.
         11    1    4    4    0    0 -0.27272649044E-01 -0.28402340741E-01 -0.35521544892E-01  0.53033306685E-01  0.51100000000E-03 0. -1.
</event>
<event>
 8    1  0.1094829E+005  0.1043930E+01  0.7957747E-01            NaN
         13   -1    0    0    0    0  0.00000000000E+00  0.00000000000E+00  0.74505805969E-08  0.10566000000E+00  0.10566000000E+00 0.  1.
     999900   -1    0    0    0    0 -0.00000000000E+00 -0.00000000000E+00 -0.74505805969E-08  0.93827000000E+00  0.93827000000E+00 0.  1.
     999902    2    1    2    0    0 -0.12293900656E-01  0.19252389820E-01 -0.39762619844E-02  0.10207436858E+01  0.10204803119E+01 0.  0.
     999903    2    3    3    0    0 -0.10989312692E+00 -0.61136721477E-01 -0.32398926863E-01  0.13125177124E+00  0.19056204572E-01 0.  0.
         14    1    1    2    0    0  0.12293900656E-01 -0.19252389820E-01  0.39762619844E-02  0.23186314207E-01  0.00000000000E+00 0.  1.
     999901    1    3    3    0    0  0.97599226268E-01  0.80389111298E-01  0.28422664879E-01  0.88949191456E+00  0.88000000000E+00 0.  1.
        -11    1    4    4    0    0 -0.80014002947E-01 -0.36685081314E-01 -0.16830049218E-01  0.89618901669E-01  0.51100000000E-03 0. -1.
         11    1    4    4    0    0 -0.29879123977E-01 -0.24451640163E-01 -0.15568877645E-01  0.41632869568E-01  0.51100000000E-03 0.  1.
</event>
<event>
 8    1  0.1094829E+005  0.1043930E+01  0.7957747E-01            NaN
         13   -1    0    0    0    0  0.00000000000E+00  0.00000000000E+00  0.74505805969E-08  0.10566000000E+00  0.10566000000E+00 0.  1.
     999900   -1    0    0    0    0 -0.00000000000E+00 -0.00000000000E+00 -0.74505805969E-08  0.93827000000E+00  0.93827000000E+00 0.  1.
     999902    2    1    2    0    0  0.14079877045E-02 -0.27362182518E-01 -0.57902327644E-02  0.10159264599E+01  0.10155404343E+01 0.  0.
     999903    2    3    3    0    0  0.33319569481E-01  0.36564073708E-01  0.11313073128E+00  0.12505772045E+00  0.19843031208E-01 0.  0.
         14    1    1    2    0    0 -0.14079877045E-02  0.27362182518E-01  0.57902327644E-02  0.28003540079E-01  0.00000000000E+00 0.  1.
     999901    1    3    3    0    0 -0.31911581777E-01 -0.63926256226E-01 -0.11892096404E+00  0.89086873948E+00  0.88000000000E+00 0.  1.
        -11    1    4    4    0    0  0.11519142375E-01  0.19692179012E-02  0.34492084986E-01  0.36421607706E-01  0.51100000000E-03 0. -1.
         11    1    4    4    0    0  0.21800427106E-01  0.34594855807E-01  0.78638646289E-01  0.88636112739E-01  0.51100000000E-03 0.  1.
</event>
<event>
 8    1  0.1094829E+005  0.1043930E+01  0.7957747E-01            NaN
         13   -1    0    0    0    0  0.00000000000E+00  0.00000000000E+00  0.74505805969E-08  0.10566000000E+00  0.10566000000E+00 0.  1.
     999900   -1    0    0    0    0 -0.00000000000E+00 -0.00000000000E+00 -0.74505805969E-08  0.93827000000E+00  0.93827000000E+00 0. -1.
     999902    2    1    2    0    0 -0.59111707772E-02  0.17714763243E-01  0.17202447290E-01  0.10185394709E+01  0.10182229494E+01 0.  0.
     999903    2    3    3    0    0 -0.10031598930E+00 -0.58641301704E-01 -0.47808215645E-01  0.12782688832E+00  0.23494423159E-01 0.  0.
         14    1    1    2    0    0  0.59111707772E-02 -0.17714763243E-01 -0.17202447290E-01  0.25390529130E-01  0.00000000000E+00 0. -1.
     999901    1    3    3    0    0  0.94404818525E-01  0.76356064947E-01  0.65010662935E-01  0.89071258255E+00  0.88000000000E+00 0. -1.
        -11    1    4    4    0    0 -0.27345269559E-01 -0.46081036091E-02 -0.12044066705E-01  0.30237709072E-01  0.51100000000E-03 0.  1.
         11    1    4    4    0    0 -0.72970719744E-01 -0.54033198095E-01 -0.35764148940E-01  0.97589179250E-01  0.51100000000E-03 0. -1.
</event>
<event>
 8    1  0.1094829E+005  0.1043930E+01  0.7957747E-01            NaN
         13   -1    0    0    0    0  0.00000000000E+00  0.00000000000E+00  0.74505805969E-08  0.10566000000E+00  0.10566000000E+00 0. -1.
     999900   -1    0    0    0    0 -0.00000000000E+00 -0.00000000000E+00 -0.74505805969E-08  0.93827000000E+00  0.93827000000E+00 0.  1.
     999902    2    1    2    0    0  0.17949323096E-01  0.15596310313E-01  0.44418223951E-02  0.10197400665E+01  0.10194531134E+01 0.  0.
     999903    2    3    3    0    0 -0.84954095069E-01 -0.74697263460E-01 -0.54395685242E-01  0.12721337492E+00  0.20675414104E-01 0.  0.
         14    1    1    2    0    0 -0.17949323096E-01 -0.15596310313E-01 -0.44418223951E-02  0.24189933467E-01  0.00000000000E+00 0.  1.
     999901    1    3    3    0    0  0.10290341816E+00  0.90293573773E-01  0.58837507638E-01  0.89252669161E+00  0.88000000000E+00 0. -1.
        -11    1    4    4    0    0 -0.49266268127E-01 -0.51549100211E-01 -0.42617487881E-01  0.83072175257E-01  0.51100000000E-03 0.  1.
         11    1    4    4    0    0 -0.35687826942E-01 -0.23148163249E-01 -0.11778197361E-01  0.44141199663E-01  0.51100000000E-03 0. -1.
</event>
<event>
 8    1  0.1094829E+005  0.1043930E+01  0.7957747E-01            NaN
         13   -1    0    0    0    0  0.00000000000E+00  0.00000000000E+00  0.74505805969E-08  0.10566000000E+00  0.10566000000E+00 0. -1.
     999900   -1    0    0    0    0 -0.00000000000E+00 -0.00000000000E+00 -0.74505805969E-08  0.93827000000E+00  0.93827000000E+00 0. -1.
     999902    2    1    2    0    0  0.20472141664E-01  0.12805033584E-01 -0.38192972698E-02  0.10194828222E+01  0.10191896587E+01 0.  0.
     999903    2    3    3    0    0 -0.86012586681E-01 -0.86349856602E-01 -0.29843359294E-01  0.12715556084E+00  0.20577846216E-01 0.  0.
         14    1    1    2    0    0 -0.20472141664E-01 -0.12805033584E-01  0.38192972698E-02  0.24447177772E-01  0.00000000000E+00 0.  1.
     999901    1    3    3    0    0  0.10648472834E+00  0.99154890186E-01  0.26024062024E-01  0.89232726139E+00  0.88000000000E+00 0. -1.
        -11    1    4    4    0    0 -0.76777391070E-01 -0.79028193545E-01 -0.32860146923E-01  0.11497944830E+00  0.51100000000E-03 0. -1.
         11    1    4    4    0    0 -0.92351956114E-02 -0.73216630561E-02  0.30167876297E-02  0.12176112536E-01  0.51100000000E-03 0.  1.
</event>
<event>
 8    1  0.1094829E+005  0.1043930E+01  0.7957747E-01            NaN
         13   -1    0    0    0    0  0.00000000000E+00  0.00000000000E+00  0.74505805969E-08  0.10566000000E+00  0.10566000000E+00 0. -1.
     999900   -1    0    0    0    0 -0.00000000000E+00 -0.00000000000E+00 -0.74505805969E-08  0.93827000000E+00  0.93827000000E+00 0.  1.
     999902    2    1    2    0    0 -0.29532016913E-01 -0.19185279580E-02 -0.76575934351E-02  0.10133610695E+01  0.10128998952E+01 0.  0.
     999903    2    3    3    0    0 -0.55495001393E-01 -0.76963043592E-01 -0.81597300460E-01  0.12669718950E+00  0.19775063231E-01 0.  0.
         14    1    1    2    0    0  0.29532016913E-01  0.19185279580E-02  0.76575934351E-02  0.30568930464E-01  0.00000000000E+00 0. -1.
     999901    1    3    3    0    0  0.25962984480E-01  0.75044515634E-01  0.73939707025E-01  0.88666388004E+00  0.88000000000E+00 0. -1.
        -11    1    4    4    0    0 -0.22428013219E-01 -0.44290109732E-01 -0.50167140382E-01  0.70580682146E-01  0.51100000000E-03 0. -1.
         11    1    4    4    0    0 -0.33066988174E-01 -0.32672933860E-01 -0.31430160078E-01  0.56116507352E-01  0.51100000000E-03 0.  1.
</event>
<event>
 8    1  0.1094829E+005  0.1043930E+01  0.7957747E-01            NaN
         13   -1    0    0    0    0  0.00000000000E+00  0.00000000000E+00  0.74505805969E-08  0.10566000000E+00  0.10566000000E+00 0.  1.
     999900   -1    0    0    0    0 -0.00000000000E+00 -0.00000000000E+00 -0.74505805969E-08  0.93827000000E+00  0.93827000000E+00 0.  1.
     999902    2    1    2    0    0 -0.22145052338E-01  0.58554404504E-02  0.45817269585E-02  0.10205701681E+01  0.10203027914E+01 0.  0.
     999903    2    3    3    0    0  0.96667590506E-01  0.38791956905E-01  0.73641566590E-01  0.12929550801E+00  0.21090497547E-01 0.  0.
         14    1    1    2    0    0  0.22145052338E-01 -0.58554404504E-02 -0.45817269585E-02  0.23359831931E-01  0.00000000000E+00 0. -1.
     999901    1    3    3    0    0 -0.11881264284E+00 -0.32936516454E-01 -0.69059839632E-01  0.89127466006E+00  0.88000000000E+00 0.  1.
        -11    1    4    4    0    0  0.60694787278E-01  0.35043444719E-01  0.47493501092E-01  0.84662825298E-01  0.51100000000E-03 0. -1.
         11    1    4    4    0    0  0.35972803228E-01  0.37485121858E-02  0.26148065498E-01  0.44632682711E-01  0.51100000000E-03 0.  1.
</event>
<event>
 8    1  0.1094829E+005  0.1043930E+01  0.7957747E-01            NaN
         13   -1    0    0    0    0  0.00000000000E+00  0.00000000000E+00  0.74505805969E-08  0.10566000000E+00  0.10566000000E+00 0.  1.
     999900   -1    0    0    0    0 -0.00000000000E+00 -0.00000000000E+00 -0.74505805969E-08  0.93827000000E+00  0.93827000000E+00 0. -1.
     999902    2    1    2    0    0 -0.23361942321E-01 -0.89344398005E-02 -0.14682593639E-02  0.10188748538E+01  0.10185667418E+01 0.  0.
     999903    2    3    3    0    0  0.10973217253E+00 -0.61205547419E-01 -0.44942371974E-02  0.12732818168E+00  0.20124585894E-01 0.  0.
         14    1    1    2    0    0  0.23361942321E-01  0.89344398005E-02  0.14682593639E-02  0.25055146160E-01  0.00000000000E+00 0.  1.
     999901    1    3    3    0    0 -0.13309411486E+00  0.52271107618E-01  0.30259778335E-02  0.89154667216E+00  0.88000000000E+00 0.  1.
        -11    1    4    4    0    0  0.61240416558E-01 -0.44171189427E-01  0.18929577392E-02  0.75533615070E-01  0.51100000000E-03 0. -1.
         11    1    4    4    0    0  0.48491755977E-01 -0.17034357992E-01 -0.63871949366E-02  0.51794566608E-01  0.51100000000E-03 0.  1.
</event>
<event>
 8    1  0.1094829E+005  0.1043930E+01  0.7957747E-01            NaN
         13   -1    0    0    0    0  0.00000000000E+00  0.00000000000E+00  0.74505805969E-08  0.10566000000E+00  0.10566000000E+00 0. -1.
     999900   -1    0    0    0    0 -0.00000000000E+00 -0.00000000000E+00 -0.74505805969E-08  0.93827000000E+00  0.93827000000E+00 0.  1.
     999902    2    1    2    0    0  0.19399181860E-01 -0.12627534180E-01  0.62028206860E-02  0.10199663221E+01  0.10196847749E+01 0.  0.
     999903    2    3    3    0    0 -0.10947677456E-01 -0.52641022891E-01  0.11823702572E+00  0.13144301102E+00  0.20157925572E-01 0.  0.
         14    1    1    2    0    0 -0.19399181860E-01  0.12627534180E-01 -0.62028206860E-02  0.23963677947E-01  0.00000000000E+00 0.  1.
     999901    1    3    3    0    0  0.30346859316E-01  0.40013488711E-01 -0.11203420503E+00  0.88852331103E+00  0.88000000000E+00 0.  1.
        -11    1    4    4    0    0 -0.10807493434E-01 -0.33127244565E-01  0.53688700715E-01  0.64007452318E-01  0.51100000000E-03 0. -1.
         11    1    4    4    0    0 -0.14018402192E-03 -0.19513778327E-01  0.64548325001E-01  0.67435558703E-01  0.51100000000E-03 0.  1.
</event>
<event>
 8    1  0.1094829E+005  0.1043930E+01  0.7957747E-01            NaN
         13   -1    0    0    0    0  0.00000000000E+00  0.00000000000E+00  0.74505805969E-08  0.10566000000E+00  0.10566000000E+00 0.  1.
     999900   -1    0    0    0    0 -0.00000000000E+00 -0.00000000000E+00 -0.74505805969E-08  0.93827000000E+00  0.93827000000E+00 0. -1.
     999902    2    1    2    0    0 -0.19275019195E-01 -0.11563297565E-01 -0.52024910434E-02  0.10208583263E+01  0.10205975799E+01 0.  0.
     999903    2    3    3    0    0  0.11985893066E+00  0.10766859623E-01 -0.41643791862E-01  0.12890268818E+00  0.19990224938E-01 0.  0.
         14    1    1    2    0    0  0.19275019195E-01  0.11563297565E-01  0.52024910434E-02  0.23071673728E-01  0.00000000000E+00 0. -1.
     999901    1    3    3    0    0 -0.13913394986E+00 -0.22330157188E-01  0.36441300819E-01  0.89195563809E+00  0.88000000000E+00 0.  1.
        -11    1    4    4    0    0  0.69600441785E-01  0.11113620160E-02 -0.32848427385E-01  0.76972312716E-01  0.51100000000E-03 0.  1.
         11    1    4    4    0    0  0.50258488877E-01  0.96554976067E-02 -0.87953644768E-02  0.51930375461E-01  0.51100000000E-03 0. -1.
</event>
<event>
 8    1  0.1094829E+005  0.1043930E+01  0.7957747E-01            NaN
         13   -1    0    0    0    0  0.00000000000E+00  0.00000000000E+00  0.74505805969E-08  0.10566000000E+00  0.10566000000E+00 0.  1.
     999900   -1    0    0    0    0 -0.00000000000E+00 -0.00000000000E+00 -0.74505805969E-08  0.93827000000E+00  0.93827000000E+00 0. -1.
     999902    2    1    2    0    0  0.17521429476E-01  0.12799164242E-04 -0.16139038719E-01  0.10201083874E+01  0.10198302079E+01 0.  0.
     999903    2    3    3    0    0  0.40487005599E-01  0.10829402376E+00  0.56402803956E-01  0.13021257318E+00  0.20180305101E-01 0.  0.
         14    1    1    2    0    0 -0.17521429476E-01 -0.12799164242E-04  0.16139038719E-01  0.23821612571E-01  0.00000000000E+00 0.  1.
     999901    1    3    3    0    0 -0.22965576123E-01 -0.10828122460E+00 -0.72541842675E-01  0.88989581425E+00  0.88000000000E+00 0. -1.
        -11    1    4    4    0    0  0.23533900771E-02  0.16213880785E-01  0.15895201801E-02  0.16468638995E-01  0.51100000000E-03 0. -1.
         11    1    4    4    0    0  0.38133615522E-01  0.92080142977E-01  0.54813283776E-01  0.11374393418E+00  0.51100000000E-03 0.  1.
</event>
<event>
 8    1  0.1094829E+005  0.1043930E+01  0.7957747E-01            NaN
         13   -1    0    0    0    0  0.00000000000E+00  0.00000000000E+00  0.74505805969E-08  0.10566000000E+00  0.10566000000E+00 0. -1.
     999900   -1    0    0    0    0 -0.00000000000E+00 -0.00000000000E+00 -0.74505805969E-08  0.93827000000E+00  0.93827000000E+00 0.  1.
     999902    2    1    2    0    0 -0.85841977631E-02 -0.10448950733E-01 -0.21854819797E-01  0.10182297632E+01  0.10179053731E+01 0.  0.
     999903    2    3    3    0    0 -0.38112360505E-01  0.12052840743E+00 -0.54893227801E-02  0.12789566287E+00  0.18641858690E-01 0.  0.
         14    1    1    2    0    0  0.85841977631E-02  0.10448950733E-01  0.21854819797E-01  0.25700236789E-01  0.00000000000E+00 0. -1.
     999901    1    3    3    0    0  0.29528162742E-01 -0.13097735816E+00 -0.16365497017E-01  0.89033410035E+00  0.88000000000E+00 0.  1.
        -11    1    4    4    0    0 -0.15272935852E-01  0.49913216656E-01  0.68860454686E-02  0.52652355215E-01  0.51100000000E-03 0.  1.
         11    1    4    4    0    0 -0.22839424654E-01  0.70615190769E-01 -0.12375368249E-01  0.75243307650E-01  0.51100000000E-03 0. -1.
</event>
<event>
 8    1  0.1094829E+005  0.1043930E+01  0.7957747E-01            NaN
         13   -1    0    0    0    0  0.00000000000E+00  0.00000000000E+00  0.74505805969E-08  0.10566000000E+00  0.10566000000E+00 0.  1.
     999900   -1    0    0    0    0 -0.00000000000E+00 -0.00000000000E+00 -0.74505805969E-08  0.93827000000E+00  0.93827000000E+00 0.  1.
     999902    2    1    2    0    0 -0.17701240240E-01 -0.14189803944E-01 -0.53123970444E-02  0.10206296566E+01  0.10203636557E+01 0.  0.
     999903    2    3    3    0    0  0.44475965693E-01 -0.17910393636E-02  0.11993288664E+00  0.12950333814E+00  0.20146909051E-01 0.  0.
         14    1    1    2    0    0  0.17701240240E-01  0.14189803944E-01  0.53123970444E-02  0.23300343439E-01  0.00000000000E+00 0.  1.
     999901    1    3    3    0    0 -0.62177205933E-01 -0.12398764581E-01 -0.12524528369E+00  0.89112631842E+00  0.88000000000E+00 0.  1.
        -11    1    4    4    0    0  0.26001348672E-01  0.72094324336E-02  0.82439161654E-01  0.86744005810E-01  0.51100000000E-03 0.  1.
         11    1    4    4    0    0  0.18474617022E-01 -0.90004717972E-02  0.37493724987E-01  0.42759332328E-01  0.51100000000E-03 0. -1.
</event>
<event>
 8    1  0.1094829E+005  0.1043930E+01  0.7957747E-01            NaN
         13   -1    0    0    0    0  0.00000000000E+00  0.00000000000E+00  0.74505805969E-08  0.10566000000E+00  0.10566000000E+00 0. -1.
     999900   -1    0    0    0    0 -0.00000000000E+00 -0.00000000000E+00 -0.74505805969E-08  0.93827000000E+00  0.93827000000E+00 0.  1.
     999902    2    1    2    0    0 -0.21029589508E-01  0.61222061962E-02 -0.63402716464E-02  0.10211281560E+01  0.10208735411E+01 0.  0.
     999903    2    3    3    0    0 -0.48608479409E-01 -0.32790230482E-01  0.11587525361E+00  0.13140268854E+00  0.20040176395E-01 0.  0.
         14    1    1    2    0    0  0.21029589508E-01 -0.61222061962E-02  0.63402716464E-02  0.22801843963E-01  0.00000000000E+00 0.  1.
     999901    1    3    3    0    0  0.27578889901E-01  0.38912436679E-01 -0.12221552526E+00  0.88972546750E+00  0.88000000000E+00 0.  1.
        -11    1    4    4    0    0 -0.39716539351E-01 -0.15747419052E-01  0.80824052865E-01  0.91423046040E-01  0.51100000000E-03 0.  1.
         11    1    4    4    0    0 -0.88919400574E-02 -0.17042811430E-01  0.35051200750E-01  0.39979642500E-01  0.51100000000E-03 0. -1.
</event>
<event>
 8    1  0.1094829E+005  0.1043930E+01  0.7957747E-01            NaN
         13   -1    0    0    0    0  0.00000000000E+00  0.00000000000E+00  0.74505805969E-08  0.10566000000E+00  0.10566000000E+00 0.  1.
     999900   -1    0    0    0    0 -0.00000000000E+00 -0.00000000000E+00 -0.74505805969E-08  0.93827000000E+00  0.93827000000E+00 0. -1.
     999902    2    1    2    0    0  0.18440888688E-01 -0.17723216962E-02 -0.14537701435E-01  0.10203810666E+01  0.10201092926E+01 0.  0.
     999903    2    3    3    0    0  0.83580102024E-01  0.73368204252E-01  0.66821193689E-01  0.13105070868E+00  0.18457775336E-01 0.  0.
         14    1    1    2    0    0 -0.18440888688E-01  0.17723216962E-02  0.14537701435E-01  0.23548933369E-01  0.00000000000E+00 0.  1.
     999901    1    3    3    0    0 -0.65139213336E-01 -0.75140525948E-01 -0.81358895124E-01  0.88933035795E+00  0.88000000000E+00 0. -1.
        -11    1    4    4    0    0  0.38055089950E-01  0.27174252659E-01  0.19038819988E-01  0.50491263266E-01  0.51100000000E-03 0. -1.
         11    1    4    4    0    0  0.45525012075E-01  0.46193951593E-01  0.47782373701E-01  0.80559445416E-01  0.51100000000E-03 0.  1.
</event>
<event>
 8    1  0.1094829E+005  0.1043930E+01  0.7957747E-01            NaN
         13   -1    0    0    0    0  0.00000000000E+00  0.00000000000E+00  0.74505805969E-08  0.10566000000E+00  0.10566000000E+00 0.  1.
     999900   -1    0    0    0    0 -0.00000000000E+00 -0.00000000000E+00 -0.74505805969E-08  0.93827000000E+00  0.93827000000E+00 0.  1.
     999902    2    1    2    0    0  0.10350175330E-01 -0.21444759835E-01  0.16750942849E-03  0.10201175681E+01  0.10198396054E+01 0.  0.
     999903    2    3    3    0    0  0.95198353841E-01  0.53834472132E-01  0.67784030878E-01  0.13026467568E+00  0.20330615462E-01 0.  0.
         14    1    1    2    0    0 -0.10350175330E-01  0.21444759835E-01 -0.16750942849E-03  0.23812431904E-01  0.00000000000E+00 0. -1.
     999901    1    3    3    0    0 -0.84848178511E-01 -0.75279231967E-01 -0.67616521450E-01  0.88985289241E+00  0.88000000000E+00 0.  1.
        -11    1    4    4    0    0  0.48538538465E-01  0.38858484978E-01  0.35898517770E-01  0.71797884859E-01  0.51100000000E-03 0. -1.
         11    1    4    4    0    0  0.46659815376E-01  0.14975987153E-01  0.31885513108E-01  0.58466790824E-01  0.51100000000E-03 0.  1.
</event>
<event>
 8    1  0.1094829E+005  0.1043930E+01  0.7957747E-01            NaN
         13   -1    0    0    0    0  0.00000000000E+00  0.00000000000E+00  0.74505805969E-08  0.10566000000E+00  0.10566000000E+00 0. -1.
     999900   -1    0    0    0    0 -0.00000000000E+00 -0.00000000000E+00 -0.74505805969E-08  0.93827000000E+00  0.93827000000E+00 0. -1.
     999902    2    1    2    0    0 -0.11875058781E-01  0.67733219832E-02 -0.20514665975E-01  0.10192774863E+01  0.10189793166E+01 0.  0.
     999903    2    3    3    0    0  0.11943274867E+00 -0.40086326899E-01 -0.13676932856E-01  0.12827562234E+00  0.19911849070E-01 0.  0.
         14    1    1    2    0    0  0.11875058781E-01 -0.67733219832E-02  0.20514665975E-01  0.24652513702E-01  0.00000000000E+00 0. -1.
     999901    1    3    3    0    0 -0.13130780745E+00  0.46859648883E-01 -0.68377331190E-02  0.89100186396E+00  0.88000000000E+00 0.  1.
        -11    1    4    4    0    0  0.97637835699E-01 -0.40356353436E-01 -0.13158879206E-01  0.10646689366E+00  0.51100000000E-03 0.  1.
         11    1    4    4    0    0  0.21794912973E-01  0.27002653644E-03 -0.51805364944E-03  0.21808728675E-01  0.51100000000E-03 0. -1.
</event>
<event>
 8    1  0.1094829E+005  0.1043930E+01  0.7957747E-01            NaN
         13   -1    0    0    0    0  0.00000000000E+00  0.00000000000E+00  0.74505805969E-08  0.10566000000E+00  0.10566000000E+00 0.  1.
     999900   -1    0    0    0    0 -0.00000000000E+00 -0.00000000000E+00 -0.74505805969E-08  0.93827000000E+00  0.93827000000E+00 0. -1.
     999902    2    1    2    0    0 -0.50001967885E-02  0.23564520008E-01 -0.26876143162E-02  0.10196913564E+01  0.10194032326E+01 0.  0.
     999903    2    3    3    0    0  0.26132049950E-01 -0.24810103323E-01  0.12232547975E+00  0.12899634991E+00  0.19445051576E-01 0.  0.
         14    1    1    2    0    0  0.50001967885E-02 -0.23564520008E-01  0.26876143162E-02  0.24238643565E-01  0.00000000000E+00 0. -1.
     999901    1    3    3    0    0 -0.31132246739E-01  0.48374623331E-01 -0.12501309407E+00  0.89069500653E+00  0.88000000000E+00 0. -1.
        -11    1    4    4    0    0 -0.21984010905E-02 -0.58183208623E-02  0.12117506196E-01  0.13630146823E-01  0.51100000000E-03 0.  1.
         11    1    4    4    0    0  0.28330451041E-01 -0.18991782461E-01  0.11020797356E+00  0.11536620308E+00  0.51100000000E-03 0. -1.
</event>
<event>
 8    1  0.1094829E+005  0.1043930E+01  0.7957747E-01            NaN
         13   -1    0    0    0    0  0.00000000000E+00  0.00000000000E+00  0.74505805969E-08  0.10566000000E+00  0.10566000000E+00 0. -1.
     999900   -1    0    0    0    0 -0.00000000000E+00 -0.00000000000E+00 -0.74505805969E-08  0.93827000000E+00  0.93827000000E+00 0.  1.
     999902    2    1    2    0    0  0.87942068408E-02 -0.21938235638E-01 -0.44587091398E-02  0.10198778828E+01  0.10195942288E+01 0.  0.
     999903    2    3    3    0    0  0.80167378328E-01  0.98175675212E-01  0.92114654742E-02  0.12875030779E+00  0.20652334209E-01 0.  0.
         14    1    1    2    0    0 -0.87942068408E-02  0.21938235638E-01  0.44587091398E-02  0.24052117247E-01  0.00000000000E+00 0.  1.
     999901    1    3    3    0    0 -0.71373171487E-01 -0.12011391085E+00 -0.13670174614E-01  0.89112757496E+00  0.88000000000E+00 0. -1.
        -11    1    4    4    0    0  0.27845787709E-01  0.38207774461E-01  0.13122330915E-01  0.49068101778E-01  0.51100000000E-03 0. -1.
         11    1    4    4    0    0  0.52321590619E-01  0.59967900750E-01 -0.39108654409E-02  0.79682206011E-01  0.51100000000E-03 0.  1.
</event>
<event>
 8    1  0.1094829E+005  0.1043930E+01  0.7957747E-01            NaN
         13   -1    0    0    0    0  0.00000000000E+00  0.00000000000E+00  0.74505805969E-08  0.10566000000E+00  0.10566000000E+00 0.  1.
     999900   -1    0    0    0    0 -0.00000000000E+00 -0.00000000000E+00 -0.74505805969E-08  0.93827000000E+00  0.93827000000E+00 0. -1.
     999902    2    1    2    0    0  0.61285034121E-02  0.16124674807E-01  0.16381042094E-01  0.10201413003E+01  0.10198638980E+01 0.  0.
     999903    2    3    3    0    0 -0.17823603738E-01  0.82245900247E-01  0.10063458792E+00  0.13332430688E+00  0.23790366987E-01 0.  0.
         14    1    1    2    0    0 -0.61285034121E-02 -0.16124674807E-01 -0.16381042094E-01  0.23788699666E-01  0.00000000000E+00 0. -1.
     999901    1    3    3    0    0  0.23952107150E-01 -0.66121225440E-01 -0.84253545828E-01  0.88681699345E+00  0.88000000000E+00 0.  1.
        -11    1    4    4    0    0 -0.16749215768E-01  0.38361893114E-01  0.36125363206E-01  0.55294430640E-01  0.51100000000E-03 0.  1.
         11    1    4    4    0    0 -0.10743879702E-02  0.43884007133E-01  0.64509224717E-01  0.78029876241E-01  0.51100000000E-03 0. -1.
</event>
<event>
 8    1  0.1094829E+005  0.1043930E+01  0.7957747E-01            NaN
         13   -1    0    0    0    0  0.00000000000E+00  0.00000000000E+00  0.74505805969E-08  0.10566000000E+00  0.10566000000E+00 0. -1.
     999900   -1    0    0    0    0 -0.00000000000E+00 -0.00000000000E+00 -0.74505805969E-08  0.93827000000E+00  0.93827000000E+00 0. -1.
     999902    2    1    2    0    0 -0.34439306186E-02  0.11077895930E-01 -0.22054420679E-01  0.10190105717E+01  0.10187058296E+01 0.  0.
     999903    2    3    3    0    0 -0.48735686853E-01  0.11943853682E+00  0.31527535797E-02  0.13085024082E+00  0.21705170283E-01 0.  0.
         14    1    1    2    0    0  0.34439306186E-02 -0.11077895930E-01  0.22054420679E-01  0.24919428321E-01  0.00000000000E+00 0. -1.
     999901    1    3    3    0    0  0.45291756234E-01 -0.10836064089E+00 -0.25207174259E-01  0.88816033086E+00  0.88000000000E+00 0. -1.
        -11    1    4    4    0    0 -0.11488269295E-01  0.41243539173E-01 -0.78800381164E-02  0.43535801090E-01  0.51100000000E-03 0.  1.
         11    1    4    4    0    0 -0.37247417558E-01  0.78194997647E-01  0.11032791696E-01  0.87314439730E-01  0.51100000000E-03 0. -1.
</event>
<event>
 7    1  0.1094829E+005  0.1043930E+01  0.7957747E-01            NaN
         13   -1    0    0    0    0  0.00000000000E+00  0.00000000000E+00  0.74505805969E-08  0.10566000000E+00  0.10566000000E+00 0.  1.
     999900   -1    0    0    0    0 -0.00000000000E+00 -0.00000000000E+00 -0.74505805969E-08  0.93827000000E+00  0.93827000000E+00 0.  1.
     999903    2    1    2    0    0 -0.23172546130E-01  0.33790306163E-01 -0.91302876143E-01  0.10182424008E+00  0.18793855168E-01 0.  0.
         14    1    1    2    0    0  0.42012082222E-01 -0.38932178509E-01  0.99772833770E-02  0.58140138972E-01  0.00000000000E+00 0.  1.
     999901    1    1    2    0    0 -0.18839536092E-01  0.51418723458E-02  0.81325592766E-01  0.88396562094E+00  0.88000000000E+00 0. -1.
        -11    1    3    3    0    0 -0.17299355366E-01  0.20454207130E-01 -0.76454902326E-01  0.81013921619E-01  0.51100000000E-03 0.  1.
         11    1    3    3    0    0 -0.58731907643E-02  0.13336099033E-01 -0.14847973817E-01  0.20810318466E-01  0.51100000000E-03 0. -1.
</event>
<event>
 8    1  0.1094829E+005  0.1043930E+01  0.7957747E-01            NaN
         13   -1    0    0    0    0  0.00000000000E+00  0.00000000000E+00  0.74505805969E-08  0.10566000000E+00  0.10566000000E+00 0.  1.
     999900   -1    0    0    0    0 -0.00000000000E+00 -0.00000000000E+00 -0.74505805969E-08  0.93827000000E+00  0.93827000000E+00 0. -1.
     999902    2    1    2    0    0  0.98764408003E-02  0.19299297363E-01 -0.90140934808E-02  0.10204510553E+01  0.10201809131E+01 0.  0.
     999903    2    3    3    0    0 -0.12239839761E-01  0.96429005582E-01 -0.88921630585E-01  0.13319498393E+00  0.19633658905E-01 0.  0.
         14    1    1    2    0    0 -0.98764408003E-02 -0.19299297363E-01  0.90140934808E-02  0.23478944671E-01  0.00000000000E+00 0. -1.
     999901    1    3    3    0    0  0.22116280562E-01 -0.77129708219E-01  0.79907537105E-01  0.88725607140E+00  0.88000000000E+00 0.  1.
        -11    1    4    4    0    0  0.18177812927E-02  0.82290445872E-02 -0.15189101429E-01  0.17377900531E-01  0.51100000000E-03 0. -1.
         11    1    4    4    0    0 -0.14057621054E-01  0.88199960995E-01 -0.73732529156E-01  0.11581708339E+00  0.51100000000E-03 0.  1.
</event>
<event>
 8    1  0.1094829E+005  0.1043930E+01  0.7957747E-01            NaN
         13   -1    0    0    0    0  0.00000000000E+00  0.00000000000E+00  0.74505805969E-08  0.10566000000E+00  0.10566000000E+00 0. -1.
     999900   -1    0    0    0    0 -0.00000000000E+00 -0.00000000000E+00 -0.74505805969E-08  0.93827000000E+00  0.93827000000E+00 0. -1.
     999902    2    1    2    0    0 -0.16008182706E-01 -0.43198714263E-02  0.11808185031E-01  0.10235742530E+01  0.10233718263E+01 0.  0.
     999903    2    3    3    0    0 -0.79536968406E-01 -0.20632638161E-01  0.10649570129E+00  0.13606778050E+00  0.20524896960E-01 0.  0.
         14    1    1    2    0    0  0.16008182706E-01  0.43198714263E-02 -0.11808185031E-01  0.20355747013E-01  0.00000000000E+00 0.  1.
     999901    1    3    3    0    0  0.63528785700E-01  0.16312766735E-01 -0.94687516263E-01  0.88750647249E+00  0.88000000000E+00 0. -1.
        -11    1    4    4    0    0 -0.46671483145E-01 -0.19133316962E-01  0.75922698157E-01  0.91152774907E-01  0.51100000000E-03 0.  1.
         11    1    4    4    0    0 -0.32865485261E-01 -0.14993211996E-02  0.30573003138E-01  0.44915005593E-01  0.51100000000E-03 0. -1.
</event>
<event>
 8    1  0.1094829E+005  0.1043930E+01  0.7957747E-01            NaN
         13   -1    0    0    0    0  0.00000000000E+00  0.00000000000E+00  0.74505805969E-08  0.10566000000E+00  0.10566000000E+00 0. -1.
     999900   -1    0    0    0    0 -0.00000000000E+00 -0.00000000000E+00 -0.74505805969E-08  0.93827000000E+00  0.93827000000E+00 0. -1.
     999902    2    1    2    0    0 -0.13035646236E-02 -0.14191291463E-01 -0.19653722611E-01  0.10196532447E+01  0.10193642031E+01 0.  0.
     999903    2    3    3    0    0 -0.11621514672E+00 -0.40102226892E-01 -0.43461412139E-01  0.13148498682E+00  0.16889596920E-01 0.  0.
         14    1    1    2    0    0  0.13035646236E-02  0.14191291463E-01  0.19653722611E-01  0.24276755273E-01  0.00000000000E+00 0.  1.
     999901    1    3    3    0    0  0.11491158210E+00  0.25910935429E-01  0.23807689528E-01  0.88816825791E+00  0.88000000000E+00 0.  1.
        -11    1    4    4    0    0 -0.60289592592E-01 -0.23856697841E-01 -0.14498951793E-01  0.66441385678E-01  0.51100000000E-03 0. -1.
         11    1    4    4    0    0 -0.55925554131E-01 -0.16245529051E-01 -0.28962460347E-01  0.65043601140E-01  0.51100000000E-03 0.  1.
</event>
<event>
 8    1  0.1094829E+005  0.1043930E+01  0.7957747E-01            NaN
         13   -1    0    0    0    0  0.00000000000E+00  0.00000000000E+00  0.74505805969E-08  0.10566000000E+00  0.10566000000E+00 0.  1.
     999900   -1    0    0    0    0 -0.00000000000E+00 -0.00000000000E+00 -0.74505805969E-08  0.93827000000E+00  0.93827000000E+00 0. -1.
     999902    2    1    2    0    0 -0.15711221484E-01  0.65122525447E-03 -0.18462360141E-01  0.10196787048E+01  0.10193902765E+01 0.  0.
     999903    2    3    3    0    0 -0.62950084446E-01 -0.10187658096E+00  0.47005573103E-01  0.13005546352E+00  0.19061710513E-01 0.  0.
         14    1    1    2    0    0  0.15711221484E-01 -0.65122525447E-03  0.18462360141E-01  0.24251295158E-01  0.00000000000E+00 0. -1.
     999901    1    3    3    0    0  0.47238862962E-01  0.10252780622E+00 -0.65467933245E-01  0.88962324132E+00  0.88000000000E+00 0. -1.
        -11    1    4    4    0    0 -0.39705414084E-01 -0.58576806940E-01  0.18128237538E-01  0.73052421836E-01  0.51100000000E-03 0. -1.
         11    1    4    4    0    0 -0.23244670363E-01 -0.43299774022E-01  0.28877335565E-01  0.57003041681E-01  0.51100000000E-03 0.  1.
</event>
<event>
 8    1  0.1094829E+005  0.1043930E+01  0.7957747E-01            NaN
         13   -1    0    0    0    0  0.00000000000E+00  0.00000000000E+00  0.74505805969E-08  0.10566000000E+00  0.10566000000E+00 0. -1.
     999900   -1    0    0    0    0 -0.00000000000E+00 -0.00000000000E+00 -0.74505805969E-08  0.93827000000E+00  0.93827000000E+00 0.  1.
     999902    2    1    2    0    0  0.47862720004E-02 -0.95848354812E-02  0.20761382381E-01  0.10205673702E+01  0.10202999288E+01 0.  0.
     999903    2    3    3    0    0  0.74558686196E-02  0.12746049324E+00  0.11396596791E-01  0.12990680185E+00  0.21074331211E-01 0.  0.
         14    1    1    2    0    0 -0.47862720004E-02  0.95848354812E-02 -0.20761382381E-01  0.23362629759E-01  0.00000000000E+00 0.  1.
     999901    1    3    3    0    0 -0.26695966192E-02 -0.13704532872E+00  0.93647855902E-02  0.89066056839E+00  0.88000000000E+00 0. -1.
        -11    1    4    4    0    0 -0.36017861347E-02  0.81946458457E-01  0.12934864505E-01  0.83040753596E-01  0.51100000000E-03 0.  1.
         11    1    4    4    0    0  0.11057654754E-01  0.45514034782E-01 -0.15382677138E-02  0.46866048259E-01  0.51100000000E-03 0. -1.
</event>
<event>
 8    1  0.1094829E+005  0.1043930E+01  0.7957747E-01            NaN
         13   -1    0    0    0    0  0.00000000000E+00  0.00000000000E+00  0.74505805969E-08  0.10566000000E+00  0.10566000000E+00 0.  1.
     999900   -1    0    0    0    0 -0.00000000000E+00 -0.00000000000E+00 -0.74505805969E-08  0.93827000000E+00  0.93827000000E+00 0. -1.
     999902    2    1    2    0    0  0.22310585142E-01  0.38890505927E-02  0.70813121904E-02  0.10202017066E+01  0.10199257278E+01 0.  0.
     999903    2    3    3    0    0 -0.91290932248E-01 -0.85852043242E-01  0.18511758562E-01  0.12829956862E+00  0.20334366590E-01 0.  0.
         14    1    1    2    0    0 -0.22310585142E-01 -0.38890505927E-02 -0.70813121904E-02  0.23728293370E-01  0.00000000000E+00 0. -1.
     999901    1    3    3    0    0  0.11360151739E+00  0.89741093835E-01 -0.11430446371E-01  0.89190213801E+00  0.88000000000E+00 0. -1.
        -11    1    4    4    0    0 -0.46109336520E-01 -0.35888458133E-01 -0.20951108059E-04  0.58432130728E-01  0.51100000000E-03 0.  1.
         11    1    4    4    0    0 -0.45181595728E-01 -0.49963585109E-01  0.18532709670E-01  0.69867437896E-01  0.51100000000E-03 0. -1.
</event>
<event>
 8    1  0.1094829E+005  0.1043930E+01  0.7957747E-01            NaN
         13   -1    0    0    0    0  0.00000000000E+00  0.00000000000E+00  0.74505805969E-08  0.10566000000E+00  0.10566000000E+00 0.  1.
     999900   -1    0    0    0    0 -0.00000000000E+00 -0.00000000000E+00 -0.74505805969E-08  0.93827000000E+00  0.93827000000E+00 0.  1.
     999902    2    1    2    0    0 -0.66135750625E-02 -0.98109615143E-02  0.21033507168E-01  0.10197969777E+01  0.10195113893E+01 0.  0.
     999903    2    3    3    0    0  0.47308644300E-03 -0.60453107602E-01  0.11659387587E+00  0.13314787474E+00  0.21895721695E-01 0.  0.
         14    1    1    2    0    0  0.66135750625E-02  0.98109615143E-02 -0.21033507168E-01  0.24133022288E-01  0.00000000000E+00 0. -1.
     999901    1    3    3    0    0 -0.70866615055E-02  0.50642146087E-01 -0.95560368702E-01  0.88664910297E+00  0.88000000000E+00 0.  1.
        -11    1    4    4    0    0 -0.50235798967E-03 -0.59570268451E-01  0.99324535971E-01  0.11582095585E+00  0.51100000000E-03 0.  1.
         11    1    4    4    0    0  0.97544443267E-03 -0.88283915101E-03  0.17269339899E-01  0.17326918893E-01  0.51100000000E-03 0. -1.
</event>
<event>
 8    1  0.1094829E+005  0.1043930E+01  0.7957747E-01            NaN
         13   -1    0    0    0    0  0.00000000000E+00  0.00000000000E+00  0.74505805969E-08  0.10566000000E+00  0.10566000000E+00 0. -1.
     999900   -1    0    0    0    0 -0.00000000000E+00 -0.00000000000E+00 -0.74505805969E-08  0.93827000000E+00  0.93827000000E+00 0.  1.
     999902    2    1    2    0    0  0.53989769513E-02  0.19674408676E-01  0.10916757267E-01  0.10207911388E+01  0.10205288541E+01 0.  0.
     999903    2    3    3    0    0  0.12971965131E+00 -0.72260562656E-03 -0.60068188446E-02  0.13165781038E+00  0.21679185111E-01 0.  0.
         14    1    1    2    0    0 -0.53989769513E-02 -0.19674408676E-01 -0.10916757267E-01  0.23138861210E-01  0.00000000000E+00 0.  1.
     999901    1    3    3    0    0 -0.12432067435E+00  0.20397014303E-01  0.16923576111E-01  0.88913332841E+00  0.88000000000E+00 0.  1.
        -11    1    4    4    0    0  0.42405747053E-01 -0.21572960021E-02  0.80109786225E-02  0.43212708878E-01  0.51100000000E-03 0. -1.
         11    1    4    4    0    0  0.87313904253E-01  0.14346903755E-02 -0.14017797467E-01  0.88445101500E-01  0.51100000000E-03 0.  1.
</event>
<event>
 8    1  0.1094829E+005  0.1043930E+01  0.7957747E-01            NaN
         13   -1    0    0    0    0  0.00000000000E+00  0.00000000000E+00  0.74505805969E-08  0.10566000000E+00  0.10566000000E+00 0.  1.
     999900   -1    0    0    0    0 -0.00000000000E+00 -0.00000000000E+00 -0.74505805969E-08  0.93827000000E+00  0.93827000000E+00 0.  1.
     999902    2    1    2    0    0  0.69941660389E-02 -0.19300741571E-01 -0.12450705403E-01  0.10199204800E+01  0.10196378419E+01 0.  0.
     999903    2    3    3    0    0 -0.86253520487E-01 -0.47931415067E-01  0.81478042711E-01  0.12956243058E+00  0.20264787878E-01 0.  0.
         14    1    1    2    0    0 -0.69941660389E-02  0.19300741571E-01  0.12450705403E-01  0.24009519962E-01  0.00000000000E+00 0. -1.
     999901    1    3    3    0    0  0.93247686526E-01  0.28630673496E-01 -0.93928748113E-01  0.89035804946E+00  0.88000000000E+00 0.  1.
        -11    1    4    4    0    0 -0.78154760863E-01 -0.35422125736E-01  0.70236275590E-01  0.11088863407E+00  0.51100000000E-03 0. -1.
         11    1    4    4    0    0 -0.80987596241E-02 -0.12509289331E-01  0.11241767121E-01  0.18673796508E-01  0.51100000000E-03 0.  1.
</event>
<event>
 8    1  0.1094829E+005  0.1043930E+01  0.7957747E-01            NaN
         13   -1    0    0    0    0  0.00000000000E+00  0.00000000000E+00  0.74505805969E-08  0.10566000000E+00  0.10566000000E+00 0. -1.
     999900   -1    0    0    0    0 -0.00000000000E+00 -0.00000000000E+00 -0.74505805969E-08  0.93827000000E+00  0.93827000000E+00 0. -1.
     999902    2    1    2    0    0 -0.12688462399E-01  0.20670182763E-01 -0.10005040469E-03  0.10196758551E+01  0.10193873582E+01 0.  0.
     999903    2    3    3    0    0  0.68360990526E-01  0.11024532913E+00 -0.61170051691E-02  0.13140285407E+00  0.20050802542E-01 0.  0.
         14    1    1    2    0    0  0.12688462399E-01 -0.20670182763E-01  0.10005040469E-03  0.24254144875E-01  0.00000000000E+00 0.  1.
     999901    1    3    3    0    0 -0.81049452925E-01 -0.89575146372E-01  0.60169547644E-02  0.88827300106E+00  0.88000000000E+00 0. -1.
        -11    1    4    4    0    0  0.25326097861E-01  0.55410378319E-01  0.35441953103E-02  0.61029039807E-01  0.51100000000E-03 0. -1.
         11    1    4    4    0    0  0.43034892664E-01  0.54834950816E-01 -0.96612004794E-02  0.70373814259E-01  0.51100000000E-03 0.  1.
</event>
<event>
 8    1  0.1094829E+005  0.1043930E+01  0.7957747E-01            NaN
         13   -1    0    0    0    0  0.00000000000E+00  0.00000000000E+00  0.74505805969E-08  0.10566000000E+00  0.10566000000E+00 0.  1.
     999900   -1    0    0    0    0 -0.00000000000E+00 -0.00000000000E+00 -0.74505805969E-08  0.93827000000E+00  0.93827000000E+00 0.  1.
     999902    2    1    2    0    0 -0.11849997654E-01  0.17673532883E-01 -0.12009860029E-01  0.10194961516E+01  0.10192033115E+01 0.  0.
     999903    2    3    3    0    0 -0.84905839858E-01 -0.92369213594E-01 -0.25310362451E-01  0.12953914957E+00  0.19967562715E-01 0.  0.
         14    1    1    2    0    0  0.11849997654E-01 -0.17673532883E-01  0.12009860029E-01  0.24433848385E-01  0.00000000000E+00 0.  1.
     999901    1    3    3    0    0  0.73055842204E-01  0.11004274648E+00  0.13300502422E-01  0.88995700205E+00  0.88000000000E+00 0. -1.
        -11    1    4    4    0    0 -0.56576290049E-01 -0.68902669883E-01 -0.25564212483E-01  0.92748286203E-01  0.51100000000E-03 0.  1.
         11    1    4    4    0    0 -0.28329549809E-01 -0.23466543710E-01  0.25385003203E-03  0.36790863362E-01  0.51100000000E-03 0. -1.
</event>
<event>
 8    1  0.1094829E+005  0.1043930E+01  0.7957747E-01            NaN
         13   -1    0    0    0    0  0.00000000000E+00  0.00000000000E+00  0.74505805969E-08  0.10566000000E+00  0.10566000000E+00 0. -1.
     999900   -1    0    0    0    0 -0.00000000000E+00 -0.00000000000E+00 -0.74505805969E-08  0.93827000000E+00  0.93827000000E+00 0. -1.
     999902    2    1    2    0    0  0.13071199389E-02 -0.75177304579E-03 -0.26461468090E-01  0.10174256038E+01  0.10170803195E+01 0.  0.
     999903    2    3    3    0    0 -0.72438138533E-01  0.10347297566E+00  0.14102057165E-02  0.12777511534E+00  0.19249696441E-01 0.  0.
         14    1    1    2    0    0 -0.13071199389E-02  0.75177304579E-03  0.26461468090E-01  0.26504396215E-01  0.00000000000E+00 0. -1.
     999901    1    3    3    0    0  0.73745258472E-01 -0.10422474871E+00 -0.27871673807E-01  0.88965048845E+00  0.88000000000E+00 0. -1.
        -11    1    4    4    0    0 -0.31981884551E-01  0.30439931764E-01 -0.21536345613E-02  0.44207800760E-01  0.51100000000E-03 0.  1.
         11    1    4    4    0    0 -0.40456253982E-01  0.73033043899E-01  0.35638402778E-02  0.83567314579E-01  0.51100000000E-03 0. -1.
</event>
<event>
 8    1  0.1094829E+005  0.1043930E+01  0.7957747E-01            NaN
         13   -1    0    0    0    0  0.00000000000E+00  0.00000000000E+00  0.74505805969E-08  0.10566000000E+00  0.10566000000E+00 0.  1.
     999900   -1    0    0    0    0 -0.00000000000E+00 -0.00000000000E+00 -0.74505805969E-08  0.93827000000E+00  0.93827000000E+00 0. -1.
     999902    2    1    2    0    0 -0.19216225403E-01  0.71942656398E-02 -0.58755316374E-02  0.10225865549E+01  0.10223637902E+01 0.  0.
     999903    2    3    3    0    0 -0.10894925687E+00 -0.55483830109E-01  0.51033829161E-01  0.13398133548E+00  0.19953710492E-01 0.  0.
         14    1    1    2    0    0  0.19216225403E-01 -0.71942656398E-02  0.58755316374E-02  0.21343445103E-01  0.00000000000E+00 0.  1.
     999901    1    3    3    0    0  0.89733031469E-01  0.62678095749E-01 -0.56909360798E-01  0.88860521941E+00  0.88000000000E+00 0. -1.
        -11    1    4    4    0    0 -0.27797638043E-02  0.15484452592E-02  0.24045755771E-02  0.40209295237E-02  0.51100000000E-03 0.  1.
         11    1    4    4    0    0 -0.10616949307E+00 -0.57032275369E-01  0.48629253584E-01  0.12996040596E+00  0.51100000000E-03 0. -1.
</event>
<event>
 8    1  0.1094829E+005  0.1043930E+01  0.7957747E-01            NaN
         13   -1    0    0    0    0  0.00000000000E+00  0.00000000000E+00  0.74505805969E-08  0.10566000000E+00  0.10566000000E+00 0. -1.
     999900   -1    0    0    0    0 -0.00000000000E+00 -0.00000000000E+00 -0.74505805969E-08  0.93827000000E+00  0.93827000000E+00 0. -1.
     999902    2    1    2    0    0  0.15742338067E-01 -0.11683277971E-02 -0.23469345065E-01  0.10156457932E+01  0.10152518805E+01 0.  0.
     999903    2    3    3    0    0 -0.39197645103E-01  0.10542476241E+00  0.49685139036E-01  0.12450491365E+00  0.19545448823E-01 0.  0.
         14    1    1    2    0    0 -0.15742338067E-01  0.11683277971E-02  0.23469345065E-01  0.28284206820E-01  0.00000000000E+00 0. -1.
     999901    1    3    3    0    0  0.54939983170E-01 -0.10659309021E+00 -0.73154484101E-01  0.89114087953E+00  0.88000000000E+00 0. -1.
        -11    1    4    4    0    0 -0.51185397918E-02  0.40411155349E-01  0.18808385937E-01  0.44869560158E-01  0.51100000000E-03 0. -1.
         11    1    4    4    0    0 -0.34079105311E-01  0.65013607064E-01  0.30876753099E-01  0.79635353489E-01  0.51100000000E-03 0.  1.
</event>
<event>
 8    1  0.1094829E+005  0.1043930E+01  0.7957747E-01            NaN
         13   -1    0    0    0    0  0.00000000000E+00  0.00000000000E+00  0.74505805969E-08  0.10566000000E+00  0.10566000000E+00 0.  1.
     999900   -1    0    0    0    0 -0.00000000000E+00 -0.00000000000E+00 -0.74505805969E-08  0.93827000000E+00  0.93827000000E+00 0. -1.
     999902    2    1    2    0    0  0.18331060987E-01 -0.14005512817E-01  0.57324222822E-02  0.10201593700E+01  0.10198823939E+01 0.  0.
     999903    2    3    3    0    0  0.92553438221E-01 -0.35788644755E-02  0.92910308612E-01  0.13268111101E+00  0.19824343015E-01 0.  0.
         14    1    1    2    0    0 -0.18331060987E-01  0.14005512817E-01 -0.57324222822E-02  0.23770630017E-01  0.00000000000E+00 0.  1.
     999901    1    3    3    0    0 -0.74222377234E-01 -0.10426648342E-01 -0.87177886330E-01  0.88747825897E+00  0.88000000000E+00 0. -1.
        -11    1    4    4    0    0  0.64897992859E-01 -0.31872806472E-02  0.51648656187E-01  0.83004536274E-01  0.51100000000E-03 0.  1.
         11    1    4    4    0    0  0.27655445362E-01 -0.39158382829E-03  0.41261652425E-01  0.49676574740E-01  0.51100000000E-03 0. -1.
</event>
<event>
 7    1  0.1094829E+005  0.1043930E+01  0.7957747E-01            NaN
         13   -1    0    0    0    0  0.00000000000E+00  0.00000000000E+00  0.74505805969E-08  0.10566000000E+00  0.10566000000E+00 0.  1.
     999900   -1    0    0    0    0 -0.00000000000E+00 -0.00000000000E+00 -0.74505805969E-08  0.93827000000E+00  0.93827000000E+00 0.  1.
     999903    2    1    2    0    0  0.28245802310E-01  0.15325418136E-01 -0.65779077896E-02  0.37784970200E-01  0.18754767739E-01 0.  0.
         14    1    1    2    0    0  0.89984877438E-01  0.62080892160E-01 -0.32388941120E-01  0.11401911614E+00  0.00000000000E+00 0. -1.
     999901    1    1    2    0    0 -0.11823067975E+00 -0.77406310296E-01  0.38966848909E-01  0.89212591366E+00  0.88000000000E+00 0. -1.
        -11    1    3    3    0    0 -0.18055000773E-02  0.47455087044E-02  0.55449117873E-03  0.51330560936E-02  0.51100000000E-03 0. -1.
         11    1    3    3    0    0  0.30051302387E-01  0.10579909432E-01 -0.71323989683E-02  0.32651914106E-01  0.51100000000E-03 0.  1.
</event>
<event>
 8    1  0.1094829E+005  0.1043930E+01  0.7957747E-01            NaN
         13   -1    0    0    0    0  0.00000000000E+00  0.00000000000E+00  0.74505805969E-08  0.10566000000E+00  0.10566000000E+00 0. -1.
     999900   -1    0    0    0    0 -0.00000000000E+00 -0.00000000000E+00 -0.74505805969E-08  0.93827000000E+00  0.93827000000E+00 0.  1.
     999902    2    1    2    0    0 -0.38577997025E-02  0.74334041513E-03  0.23975567845E-01  0.10196346707E+01  0.10193451813E+01 0.  0.
     999903    2    3    3    0    0 -0.59176155906E-01  0.80590858043E-01 -0.77814445840E-01  0.12845738557E+00  0.21201606021E-01 0.  0.
         14    1    1    2    0    0  0.38577997025E-02 -0.74334041513E-03 -0.23975567845E-01  0.24295329325E-01  0.00000000000E+00 0.  1.
     999901    1    3    3    0    0  0.55318356203E-01 -0.79847517627E-01  0.10179001368E+00  0.89117728511E+00  0.88000000000E+00 0. -1.
        -11    1    4    4    0    0 -0.38613379974E-01  0.61877346642E-01 -0.46136171380E-01  0.86305310214E-01  0.51100000000E-03 0.  1.
         11    1    4    4    0    0 -0.20562775932E-01  0.18713511400E-01 -0.31678274459E-01  0.42152075354E-01  0.51100000000E-03 0. -1.
</event>
<event>
 8    1  0.1094829E+005  0.1043930E+01  0.7957747E-01            NaN
         13   -1    0    0    0    0  0.00000000000E+00  0.00000000000E+00  0.74505805969E-08  0.10566000000E+00  0.10566000000E+00 0. -1.
     999900   -1    0    0    0    0 -0.00000000000E+00 -0.00000000000E+00 -0.74505805969E-08  0.93827000000E+00  0.93827000000E+00 0. -1.
     999902    2    1    2    0    0 -0.15450248031E-02  0.89461694341E-02 -0.21174519140E-01  0.10208913084E+01  0.10206313156E+01 0.  0.
     999903    2    3    3    0    0  0.55048222648E-01 -0.11651247636E+00  0.62845060336E-02  0.12977029221E+00  0.13977473251E-01 0.  0.
         14    1    1    2    0    0  0.15450248031E-02 -0.89461694341E-02  0.21174519140E-01  0.23038691586E-01  0.00000000000E+00 0. -1.
     999901    1    3    3    0    0 -0.56593247451E-01  0.12545864580E+00 -0.27459025173E-01  0.89112101621E+00  0.88000000000E+00 0. -1.
        -11    1    4    4    0    0  0.14848568452E-01 -0.47263983962E-01  0.26756741535E-02  0.49616373489E-01  0.51100000000E-03 0.  1.
         11    1    4    4    0    0  0.40199654196E-01 -0.69248492401E-01  0.36088318801E-02  0.80153918718E-01  0.51100000000E-03 0. -1.
</event>
<event>
 8    1  0.1094829E+005  0.1043930E+01  0.7957747E-01            NaN
         13   -1    0    0    0    0  0.00000000000E+00  0.00000000000E+00  0.74505805969E-08  0.10566000000E+00  0.10566000000E+00 0. -1.
     999900   -1    0    0    0    0 -0.00000000000E+00 -0.00000000000E+00 -0.74505805969E-08  0.93827000000E+00  0.93827000000E+00 0. -1.
     999902    2    1    2    0    0  0.17588428893E-01  0.96993565154E-02 -0.11818241636E-01  0.10206254686E+01  0.10203593710E+01 0.  0.
     999903    2    3    3    0    0  0.95694250850E-01  0.78564788288E-01 -0.44277580518E-01  0.13389181311E+00  0.25232872964E-01 0.  0.
         14    1    1    2    0    0 -0.17588428893E-01 -0.96993565154E-02  0.11818241636E-01  0.23304531385E-01  0.00000000000E+00 0. -1.
     999901    1    3    3    0    0 -0.78105821958E-01 -0.68865431772E-01  0.32459338882E-01  0.88673365550E+00  0.88000000000E+00 0.  1.
        -11    1    4    4    0    0  0.16303332306E-01  0.27443937770E-01 -0.11754045805E-01  0.34020392096E-01  0.51100000000E-03 0. -1.
         11    1    4    4    0    0  0.79390918544E-01  0.51120850518E-01 -0.32523534713E-01  0.99871421018E-01  0.51100000000E-03 0.  1.
</event>
<event>
 8    1  0.1094829E+005  0.1043930E+01  0.7957747E-01            NaN
         13   -1    0    0    0    0  0.00000000000E+00  0.00000000000E+00  0.74505805969E-08  0.10566000000E+00  0.10566000000E+00 0. -1.
     999900   -1    0    0    0    0 -0.00000000000E+00 -0.00000000000E+00 -0.74505805969E-08  0.93827000000E+00  0.93827000000E+00 0. -1.
     999902    2    1    2    0    0 -0.12225081686E-01  0.20377376679E-01 -0.14030349542E-02  0.10201254078E+01  0.10198476303E+01 0.  0.
     999903    2    3    3    0    0  0.87180783884E-01  0.32307104356E-01  0.88513449895E-01  0.12989576397E+00  0.19850456283E-01 0.  0.
         14    1    1    2    0    0  0.12225081686E-01 -0.20377376679E-01  0.14030349542E-02  0.23804592196E-01  0.00000000000E+00 0. -1.
     999901    1    3    3    0    0 -0.99405865570E-01 -0.11929727677E-01 -0.89916484850E-01  0.89022964383E+00  0.88000000000E+00 0. -1.
        -11    1    4    4    0    0  0.53320764210E-01  0.13023457295E-01  0.41391529665E-01  0.68747612212E-01  0.51100000000E-03 0.  1.
         11    1    4    4    0    0  0.33860019674E-01  0.19283647061E-01  0.47121920230E-01  0.61148151758E-01  0.51100000000E-03 0. -1.
</event>
<event>
 8    1  0.1094829E+005  0.1043930E+01  0.7957747E-01            NaN
         13   -1    0    0    0    0  0.00000000000E+00  0.00000000000E+00  0.74505805969E-08  0.10566000000E+00  0.10566000000E+00 0.  1.
     999900   -1    0    0    0    0 -0.00000000000E+00 -0.00000000000E+00 -0.74505805969E-08  0.93827000000E+00  0.93827000000E+00 0. -1.
     999902    2    1    2    0    0 -0.74454933520E-02 -0.85602871666E-02 -0.20075533757E-01  0.10208704913E+01  0.10206100230E+01 0.  0.
     999903    2    3    3    0    0 -0.68902386204E-01 -0.21183874892E-01  0.10585382520E+00  0.12969457816E+00  0.20478181437E-01 0.  0.
         14    1    1    2    0    0  0.74454933520E-02  0.85602871666E-02  0.20075533757E-01  0.23059508739E-01  0.00000000000E+00 0.  1.
     999901    1    3    3    0    0  0.61456892852E-01  0.12623587725E-01 -0.12592935895E+00  0.89117591310E+00  0.88000000000E+00 0. -1.
        -11    1    4    4    0    0 -0.21111867947E-01  0.30465311813E-02  0.31380410817E-01  0.37947116155E-01  0.51100000000E-03 0. -1.
         11    1    4    4    0    0 -0.47790518257E-01 -0.24230406073E-01  0.74473414380E-01  0.91747462004E-01  0.51100000000E-03 0.  1.
</event>
<event>
 8    1  0.1094829E+005  0.1043930E+01  0.7957747E-01            NaN
         13   -1    0    0    0    0  0.00000000000E+00  0.00000000000E+00  0.74505805969E-08  0.10566000000E+00  0.10566000000E+00 0.  1.
     999900   -1    0    0    0    0 -0.00000000000E+00 -0.00000000000E+00 -0.74505805969E-08  0.93827000000E+00  0.93827000000E+00 0.  1.
     999902    2    1    2    0    0 -0.16091958615E-01 -0.15629559575E-02 -0.15556088208E-01  0.10214937382E+01  0.10212473115E+01 0.  0.
     999903    2    3    3    0    0  0.80751239702E-01  0.77036945099E-02 -0.10248080831E+00  0.13187562752E+00  0.17571438215E-01 0.  0.
         14    1    1    2    0    0  0.16091958615E-01  0.15629559575E-02  0.15556088208E-01  0.22436261803E-01  0.00000000000E+00 0.  1.
     999901    1    3    3    0    0 -0.96843198317E-01 -0.92666504674E-02  0.86924720100E-01  0.88961811067E+00  0.88000000000E+00 0.  1.
        -11    1    4    4    0    0  0.42110322570E-01  0.98962409497E-02 -0.64367958815E-01  0.77554562050E-01  0.51100000000E-03 0.  1.
         11    1    4    4    0    0  0.38640917133E-01 -0.21925464398E-02 -0.38112849493E-01  0.54321065474E-01  0.51100000000E-03 0. -1.
</event>
<event>
 8    1  0.1094829E+005  0.1043930E+01  0.7957747E-01            NaN
         13   -1    0    0    0    0  0.00000000000E+00  0.00000000000E+00  0.74505805969E-08  0.10566000000E+00  0.10566000000E+00 0.  1.
     999900   -1    0    0    0    0 -0.00000000000E+00 -0.00000000000E+00 -0.74505805969E-08  0.93827000000E+00  0.93827000000E+00 0.  1.
     999902    2    1    2    0    0  0.12180018168E-01 -0.76563239869E-02  0.18539899063E-01  0.10204630020E+01  0.10201931378E+01 0.  0.
     999903    2    3    3    0    0  0.66286872438E-01 -0.65560619742E-01 -0.89148736905E-01  0.13036339997E+00  0.18840765444E-01 0.  0.
         14    1    1    2    0    0 -0.12180018168E-01  0.76563239869E-02 -0.18539899063E-01  0.23466998036E-01  0.00000000000E+00 0.  1.
     999901    1    3    3    0    0 -0.54106854270E-01  0.57904295755E-01  0.10768863597E+00  0.89009960199E+00  0.88000000000E+00 0. -1.
        -11    1    4    4    0    0  0.21869345299E-01 -0.19992807557E-01 -0.40880220637E-01  0.50491921910E-01  0.51100000000E-03 0. -1.
         11    1    4    4    0    0  0.44417527139E-01 -0.45567812185E-01 -0.48268516268E-01  0.79871478064E-01  0.51100000000E-03 0.  1.
</event>
<event>
 8    1  0.1094829E+005  0.1043930E+01  0.7957747E-01            NaN
         13   -1    0    0    0    0  0.00000000000E+00  0.00000000000E+00  0.74505805969E-08  0.10566000000E+00  0.10566000000E+00 0. -1.
     999900   -1    0    0    0    0 -0.00000000000E+00 -0.00000000000E+00 -0.74505805969E-08  0.93827000000E+00  0.93827000000E+00 0.  1.
     999902    2    1    2    0    0  0.29895688750E-02  0.98464991223E-03 -0.23092953881E-01  0.10206235293E+01  0.10203573869E+01 0.  0.
     999903    2    3    3    0    0  0.12669719588E+00 -0.27818392842E-01  0.19217654276E-02  0.13115237832E+00  0.19266829791E-01 0.  0.
         14    1    1    2    0    0 -0.29895688750E-02 -0.98464991223E-03  0.23092953881E-01  0.23306470699E-01  0.00000000000E+00 0. -1.
     999901    1    3    3    0    0 -0.12370762701E+00  0.28803042755E-01 -0.25014719308E-01  0.88947115098E+00  0.88000000000E+00 0. -1.
        -11    1    4    4    0    0  0.52993879139E-01 -0.84547417596E-02  0.97504060335E-02  0.54545076984E-01  0.51100000000E-03 0.  1.
         11    1    4    4    0    0  0.73703316746E-01 -0.19363651083E-01 -0.78286406059E-02  0.76607301332E-01  0.51100000000E-03 0. -1.
</event>
<event>
 8    1  0.1094829E+005  0.1043930E+01  0.7957747E-01            NaN
         13   -1    0    0    0    0  0.00000000000E+00  0.00000000000E+00  0.74505805969E-08  0.10566000000E+00  0.10566000000E+00 0. -1.
     999900   -1    0    0    0    0 -0.00000000000E+00 -0.00000000000E+00 -0.74505805969E-08  0.93827000000E+00  0.93827000000E+00 0. -1.
     999902    2    1    2    0    0  0.11532263678E-01  0.19434177121E-01 -0.52029591951E-02  0.10207405384E+01  0.10204770921E+01 0.  0.
     999903    2    3    3    0    0  0.90118309711E-01 -0.86734148075E-01 -0.31443289020E-01  0.13049560870E+00  0.19907317210E-01 0.  0.
         14    1    1    2    0    0 -0.11532263678E-01 -0.19434177121E-01  0.52029591951E-02  0.23189461621E-01  0.00000000000E+00 0. -1.
     999901    1    3    3    0    0 -0.78586046034E-01  0.10616832520E+00  0.26240329825E-01  0.89024492968E+00  0.88000000000E+00 0.  1.
        -11    1    4    4    0    0  0.67750781931E-01 -0.56404753211E-01 -0.28677331105E-01  0.92705528840E-01  0.51100000000E-03 0.  1.
         11    1    4    4    0    0  0.22367527780E-01 -0.30329394864E-01 -0.27659579150E-02  0.37790079862E-01  0.51100000000E-03 0. -1.
</event>
<event>
 8    1  0.1094829E+005  0.1043930E+01  0.7957747E-01            NaN
         13   -1    0    0    0    0  0.00000000000E+00  0.00000000000E+00  0.74505805969E-08  0.10566000000E+00  0.10566000000E+00 0.  1.
     999900   -1    0    0    0    0 -0.00000000000E+00 -0.00000000000E+00 -0.74505805969E-08  0.93827000000E+00  0.93827000000E+00 0.  1.
     999902    2    1    2    0    0  0.14813286966E-01 -0.17656280940E-01 -0.59488636355E-02  0.10201273383E+01  0.10198496063E+01 0.  0.
     999903    2    3    3    0    0  0.10671102833E+00 -0.59493894657E-01 -0.49491407880E-01  0.13328375907E+00  0.19707711933E-01 0.  0.
         14    1    1    2    0    0 -0.14813286966E-01  0.17656280940E-01  0.59488636355E-02  0.23802661740E-01  0.00000000000E+00 0.  1.
     999901    1    3    3    0    0 -0.91897741363E-01  0.41837613717E-01  0.43542544245E-01  0.88684357919E+00  0.88000000000E+00 0.  1.
        -11    1    4    4    0    0  0.74298169736E-01 -0.40768472597E-01 -0.43857933825E-01  0.95425708613E-01  0.51100000000E-03 0.  1.
         11    1    4    4    0    0  0.32412858593E-01 -0.18725422060E-01 -0.56334740549E-02  0.37858050458E-01  0.51100000000E-03 0. -1.
</event>
<event>
 8    1  0.1351248E+005  0.1043930E+01  0.7957747E-01            NaN
         13   -1    0    0    0    0  0.00000000000E+00  0.00000000000E+00  0.74505805969E-08  0.10566000000E+00  0.10566000000E+00 0.  1.
     999900   -1    0    0    0    0 -0.00000000000E+00 -0.00000000000E+00 -0.74505805969E-08  0.93827000000E+00  0.93827000000E+00 0.  1.
     999902    2    1    2    0    0 -0.15205135702E-01  0.11109502443E-01  0.15820233193E-01  0.10193353466E+01  0.10190385920E+01 0.  0.
     999903    2    3    3    0    0  0.35664009141E-01  0.17740322190E-01  0.12461074686E+00  0.13115348826E+00  0.93144334559E-02 0.  0.
         14    1    1    2    0    0  0.15205135702E-01 -0.11109502443E-01 -0.15820233193E-01  0.24594653373E-01  0.00000000000E+00 0. -1.
     999901    1    3    3    0    0 -0.50869144842E-01 -0.66308197470E-02 -0.10879051367E+00  0.88818185837E+00  0.88000000000E+00 0.  1.
        -11    1    4    4    0    0  0.17546465947E-01  0.36499712695E-02  0.56705768245E-01  0.59472733507E-01  0.51100000000E-03 0.  1.
         11    1    4    4    0    0  0.18117543194E-01  0.14090350920E-01  0.67904978615E-01  0.71680754754E-01  0.51100000000E-03 0. -1.
</event>
<event>
 8    1  0.1094829E+005  0.1043930E+01  0.7957747E-01            NaN
         13   -1    0    0    0    0  0.00000000000E+00  0.00000000000E+00  0.74505805969E-08  0.10566000000E+00  0.10566000000E+00 0.  1.
     999900   -1    0    0    0    0 -0.00000000000E+00 -0.00000000000E+00 -0.74505805969E-08  0.93827000000E+00  0.93827000000E+00 0. -1.
     999902    2    1    2    0    0  0.89430351800E-02  0.11533521535E-01 -0.18832437090E-01  0.10201043692E+01  0.10198260947E+01 0.  0.
     999903    2    3    3    0    0 -0.10296260456E+00  0.47321501842E-01  0.58342079442E-01  0.12894806541E+00  0.19575057255E-01 0.  0.
         14    1    1    2    0    0 -0.89430351800E-02 -0.11533521535E-01  0.18832437090E-01  0.23825630820E-01  0.00000000000E+00 0.  1.
     999901    1    3    3    0    0  0.11190563974E+00 -0.35787980307E-01 -0.77174516532E-01  0.89115630377E+00  0.88000000000E+00 0.  1.
        -11    1    4    4    0    0 -0.77786320119E-01  0.40556004848E-01  0.52472984848E-01  0.10222121300E+00  0.51100000000E-03 0. -1.
         11    1    4    4    0    0 -0.25176284439E-01  0.67654969936E-02  0.58690945934E-02  0.26726852416E-01  0.51100000000E-03 0.  1.
</event>
<event>
 7    1  0.1094829E+005  0.1043930E+01  0.7957747E-01            NaN
         13   -1    0    0    0    0  0.00000000000E+00  0.00000000000E+00  0.74505805969E-08  0.10566000000E+00  0.10566000000E+00 0. -1.
     999900   -1    0    0    0    0 -0.00000000000E+00 -0.00000000000E+00 -0.74505805969E-08  0.93827000000E+00  0.93827000000E+00 0. -1.
     999902    2    1    2    0    0 -0.93657608523E-02  0.21526219309E-01  0.36410846465E-02  0.10201738831E+01  0.10198972490E+01 0.  0.
         14    1    1    2    0    0  0.93657608523E-02 -0.21526219309E-01 -0.36410846465E-02  0.23756116927E-01  0.00000000000E+00 0.  1.
     999901    1    3    3    0    0 -0.12536861671E+00  0.55188316301E-01 -0.24077553912E-01  0.89092242587E+00  0.88000000000E+00 0. -1.
        -11    1    3    3    0    0  0.79608288818E-01 -0.28256177936E-01  0.22606959892E-02  0.84505994506E-01  0.51100000000E-03 0.  1.
         11    1    3    3    0    0  0.36394567045E-01 -0.54059190568E-02  0.25457942569E-01  0.44745462698E-01  0.51100000000E-03 0. -1.
</event>
<event>
 8    1  0.1094829E+005  0.1043930E+01  0.7957747E-01            NaN
         13   -1    0    0    0    0  0.00000000000E+00  0.00000000000E+00  0.74505805969E-08  0.10566000000E+00  0.10566000000E+00 0. -1.
     999900   -1    0    0    0    0 -0.00000000000E+00 -0.00000000000E+00 -0.74505805969E-08  0.93827000000E+00  0.93827000000E+00 0.  1.
     999902    2    1    2    0    0 -0.77449400170E-02 -0.18071254234E-01  0.11947385504E-01  0.10209236021E+01  0.10206643459E+01 0.  0.
     999903    2    3    3    0    0  0.46379923479E-01 -0.11917369373E+00  0.31722959578E-01  0.13326247447E+00  0.19976845574E-01 0.  0.
         14    1    1    2    0    0  0.77449400170E-02  0.18071254234E-01 -0.11947385504E-01  0.23006397933E-01  0.00000000000E+00 0.  1.
     999901    1    3    3    0    0 -0.54124863496E-01  0.10110243949E+00 -0.19775574074E-01  0.88766112760E+00  0.88000000000E+00 0.  1.
        -11    1    4    4    0    0  0.21094089145E-01 -0.77568079501E-01  0.14950952653E-01  0.81765271727E-01  0.51100000000E-03 0. -1.
         11    1    4    4    0    0  0.25285834334E-01 -0.41605614224E-01  0.16772006925E-01  0.51497202742E-01  0.51100000000E-03 0.  1.
</event>
<event>
 8    1  0.1094829E+005  0.1043930E+01  0.7957747E-01            NaN
         13   -1    0    0    0    0  0.00000000000E+00  0.00000000000E+00  0.74505805969E-08  0.10566000000E+00  0.10566000000E+00 0. -1.
     999900   -1    0    0    0    0 -0.00000000000E+00 -0.00000000000E+00 -0.74505805969E-08  0.93827000000E+00  0.93827000000E+00 0. -1.
     999902    2    1    2    0    0 -0.14799537754E-02  0.21527688114E-01  0.85141456683E-02  0.10207325369E+01  0.10204689067E+01 0.  0.
     999903    2    3    3    0    0 -0.12156632850E+00 -0.37541255504E-01  0.21359925924E-01  0.13052194856E+00  0.19799356831E-01 0.  0.
         14    1    1    2    0    0  0.14799537754E-02 -0.21527688114E-01 -0.85141456683E-02  0.23197463119E-01  0.00000000000E+00 0.  1.
     999901    1    3    3    0    0  0.12008637472E+00  0.59068943618E-01 -0.12845780256E-01  0.89021058832E+00  0.88000000000E+00 0.  1.
        -11    1    4    4    0    0 -0.68513450365E-01 -0.31199932136E-01  0.14184867839E-01  0.76609400486E-01  0.51100000000E-03 0.  1.
         11    1    4    4    0    0 -0.53052878131E-01 -0.63413233686E-02  0.71750580851E-02  0.53912548072E-01  0.51100000000E-03 0. -1.
</event>
<event>
 8    1  0.1094829E+005  0.1043930E+01  0.7957747E-01            NaN
         13   -1    0    0    0    0  0.00000000000E+00  0.00000000000E+00  0.74505805969E-08  0.10566000000E+00  0.10566000000E+00 0. -1.
     999900   -1    0    0    0    0 -0.00000000000E+00 -0.00000000000E+00 -0.74505805969E-08  0.93827000000E+00  0.93827000000E+00 0. -1.
     999902    2    1    2    0    0  0.12166337821E-01 -0.10952860225E-01 -0.16406253793E-01  0.10207535014E+01  0.10204903530E+01 0.  0.
     999903    2    3    3    0    0 -0.63079033367E-01 -0.73705008573E-01 -0.87721629689E-01  0.13244860959E+00  0.20884375193E-01 0.  0.
         14    1    1    2    0    0 -0.12166337821E-01  0.10952860225E-01  0.16406253793E-01  0.23176498584E-01  0.00000000000E+00 0. -1.
     999901    1    3    3    0    0  0.75245371187E-01  0.62752148348E-01  0.71315375896E-01  0.88830489183E+00  0.88000000000E+00 0.  1.
        -11    1    4    4    0    0 -0.25456852654E-01 -0.44814411096E-01 -0.50403991502E-01  0.72091651870E-01  0.51100000000E-03 0. -1.
         11    1    4    4    0    0 -0.37622180712E-01 -0.28890597476E-01 -0.37317638187E-01  0.60356957718E-01  0.51100000000E-03 0.  1.
</event>
<event>
 8    1  0.1094829E+005  0.1043930E+01  0.7957747E-01            NaN
         13   -1    0    0    0    0  0.00000000000E+00  0.00000000000E+00  0.74505805969E-08  0.10566000000E+00  0.10566000000E+00 0. -1.
     999900   -1    0    0    0    0 -0.00000000000E+00 -0.00000000000E+00 -0.74505805969E-08  0.93827000000E+00  0.93827000000E+00 0. -1.
     999902    2    1    2    0    0  0.17314241013E-01  0.14608774397E-01  0.33818566081E-02  0.10210250620E+01  0.10207681132E+01 0.  0.
     999903    2    3    3    0    0 -0.79008800017E-01  0.17984820764E-01  0.10003001530E+00  0.13050252297E+00  0.21425692129E-01 0.  0.
         14    1    1    2    0    0 -0.17314241013E-01 -0.14608774397E-01 -0.33818566081E-02  0.22904938012E-01  0.00000000000E+00 0. -1.
     999901    1    3    3    0    0  0.96323041030E-01 -0.33760463672E-02 -0.96648158688E-01  0.89052253902E+00  0.88000000000E+00 0. -1.
        -11    1    4    4    0    0 -0.19872119603E-01 -0.47738891493E-02  0.24943198049E-01  0.32250820223E-01  0.51100000000E-03 0. -1.
         11    1    4    4    0    0 -0.59136680413E-01  0.22758709914E-01  0.75086817247E-01  0.98251702746E-01  0.51100000000E-03 0.  1.
</event>
<event>
 8    1  0.1094829E+005  0.1043930E+01  0.7957747E-01            NaN
         13   -1    0    0    0    0  0.00000000000E+00  0.00000000000E+00  0.74505805969E-08  0.10566000000E+00  0.10566000000E+00 0. -1.
     999900   -1    0    0    0    0 -0.00000000000E+00 -0.00000000000E+00 -0.74505805969E-08  0.93827000000E+00  0.93827000000E+00 0. -1.
     999902    2    1    2    0    0  0.27535352470E-01  0.97673992916E-03  0.71882270900E-02  0.10154550941E+01  0.10150557758E+01 0.  0.
     999903    2    3    3    0    0  0.11743728882E+00 -0.52425577892E-02  0.51167234691E-01  0.12976034369E+00  0.20016484951E-01 0.  0.
         14    1    1    2    0    0 -0.27535352470E-01 -0.97673992916E-03 -0.71882270900E-02  0.28474905886E-01  0.00000000000E+00 0.  1.
     999901    1    3    3    0    0 -0.89901936353E-01  0.62192977184E-02 -0.43979007601E-01  0.88569475043E+00  0.88000000000E+00 0. -1.
        -11    1    4    4    0    0  0.89417283243E-01 -0.10135675002E-02  0.47277073978E-01  0.10115266040E+00  0.51100000000E-03 0. -1.
         11    1    4    4    0    0  0.28020005579E-01 -0.42289902891E-02  0.38901607129E-02  0.28607683285E-01  0.51100000000E-03 0.  1.
</event>
<event>
 8    1  0.1094829E+005  0.1043930E+01  0.7957747E-01            NaN
         13   -1    0    0    0    0  0.00000000000E+00  0.00000000000E+00  0.74505805969E-08  0.10566000000E+00  0.10566000000E+00 0.  1.
     999900   -1    0    0    0    0 -0.00000000000E+00 -0.00000000000E+00 -0.74505805969E-08  0.93827000000E+00  0.93827000000E+00 0.  1.
     999902    2    1    2    0    0 -0.65948840549E-02  0.39808111002E-02 -0.23102259133E-01  0.10195773055E+01  0.10192864309E+01 0.  0.
     999903    2    3    3    0    0  0.12239381411E+00  0.27213372801E-02 -0.38804643305E-01  0.13003459410E+00  0.20384894208E-01 0.  0.
         14    1    1    2    0    0  0.65948840549E-02 -0.39808111002E-02  0.23102259133E-01  0.24352694507E-01  0.00000000000E+00 0.  1.
     999901    1    3    3    0    0 -0.12898869816E+00  0.12594738201E-02  0.15702384172E-01  0.88954271140E+00  0.88000000000E+00 0.  1.
        -11    1    4    4    0    0  0.66574047982E-01  0.11470844395E-01 -0.22949058580E-01  0.71348472629E-01  0.51100000000E-03 0. -1.
         11    1    4    4    0    0  0.55819766125E-01 -0.87495071152E-02 -0.15855584725E-01  0.58686121468E-01  0.51100000000E-03 0.  1.
</event>
<event>
 8    1  0.1094829E+005  0.1043930E+01  0.7957747E-01            NaN
         13   -1    0    0    0    0  0.00000000000E+00  0.00000000000E+00  0.74505805969E-08  0.10566000000E+00  0.10566000000E+00 0.  1.
     999900   -1    0    0    0    0 -0.00000000000E+00 -0.00000000000E+00 -0.74505805969E-08  0.93827000000E+00  0.93827000000E+00 0. -1.
     999902    2    1    2    0    0 -0.11134280788E-02 -0.21459048034E-01 -0.96789912069E-02  0.10203627911E+01  0.10200905902E+01 0.  0.
     999903    2    3    3    0    0 -0.10207056391E+00  0.67572571535E-01 -0.37820140830E-01  0.12968277175E+00  0.20070022310E-01 0.  0.
         14    1    1    2    0    0  0.11134280788E-02  0.21459048034E-01  0.96789912069E-02  0.23567208901E-01  0.00000000000E+00 0.  1.
     999901    1    3    3    0    0  0.10095713584E+00 -0.89031619570E-01  0.28141149623E-01  0.89068001935E+00  0.88000000000E+00 0. -1.
        -11    1    4    4    0    0 -0.76213498868E-01  0.51885912377E-01 -0.37218938110E-01  0.99429149589E-01  0.51100000000E-03 0.  1.
         11    1    4    4    0    0 -0.25857065046E-01  0.15686659158E-01 -0.60120271980E-03  0.30253622164E-01  0.51100000000E-03 0. -1.
</event>
<event>
 8    1  0.1094829E+005  0.1043930E+01  0.7957747E-01            NaN
         13   -1    0    0    0    0  0.00000000000E+00  0.00000000000E+00  0.74505805969E-08  0.10566000000E+00  0.10566000000E+00 0. -1.
     999900   -1    0    0    0    0 -0.00000000000E+00 -0.00000000000E+00 -0.74505805969E-08  0.93827000000E+00  0.93827000000E+00 0. -1.
     999902    2    1    2    0    0  0.16249396787E-01 -0.16597678167E-01 -0.10713013533E-03  0.10207020579E+01  0.10204377265E+01 0.  0.
     999903    2    3    3    0    0 -0.18138905307E-01 -0.97741340309E-02 -0.12765920818E+00  0.13081518382E+00  0.19778404995E-01 0.  0.
         14    1    1    2    0    0 -0.16249396787E-01  0.16597678167E-01  0.10713013533E-03  0.23227942082E-01  0.00000000000E+00 0. -1.
     999901    1    3    3    0    0  0.34388302095E-01 -0.68235441361E-02  0.12755207804E+00  0.88988687410E+00  0.88000000000E+00 0.  1.
        -11    1    4    4    0    0 -0.29649544184E-04  0.50544063873E-02 -0.26459805908E-01  0.26943094713E-01  0.51100000000E-03 0.  1.
         11    1    4    4    0    0 -0.18109255763E-01 -0.14828540418E-01 -0.10119940227E+00  0.10387208911E+00  0.51100000000E-03 0. -1.
</event>
<event>
 8    1  0.1094829E+005  0.1043930E+01  0.7957747E-01            NaN
         13   -1    0    0    0    0  0.00000000000E+00  0.00000000000E+00  0.74505805969E-08  0.10566000000E+00  0.10566000000E+00 0. -1.
     999900   -1    0    0    0    0 -0.00000000000E+00 -0.00000000000E+00 -0.74505805969E-08  0.93827000000E+00  0.93827000000E+00 0.  1.
     999902    2    1    2    0    0 -0.18896502217E-01 -0.13397343176E-01 -0.94373954318E-02  0.10189173825E+01  0.10186103285E+01 0.  0.
     999903    2    3    3    0    0  0.25481869380E-01 -0.11670861237E+00  0.47468632190E-01  0.12993990577E+00  0.18996899744E-01 0.  0.
         14    1    1    2    0    0  0.18896502217E-01  0.13397343176E-01  0.94373954318E-02  0.25012617470E-01  0.00000000000E+00 0. -1.
     999901    1    3    3    0    0 -0.44378371597E-01  0.10331126920E+00 -0.56906027621E-01  0.88897747676E+00  0.88000000000E+00 0.  1.
        -11    1    4    4    0    0 -0.20813739927E-02 -0.27561377066E-01  0.11165913201E-01  0.29814432111E-01  0.51100000000E-03 0.  1.
         11    1    4    4    0    0  0.27563243373E-01 -0.89147235307E-01  0.36302718989E-01  0.10012547366E+00  0.51100000000E-03 0. -1.
</event>
<event>
 8    1  0.1094829E+005  0.1043930E+01  0.7957747E-01            NaN
         13   -1    0    0    0    0  0.00000000000E+00  0.00000000000E+00  0.74505805969E-08  0.10566000000E+00  0.10566000000E+00 0. -1.
     999900   -1    0    0    0    0 -0.00000000000E+00 -0.00000000000E+00 -0.74505805969E-08  0.93827000000E+00  0.93827000000E+00 0. -1.
     999902    2    1    2    0    0  0.13516804065E-01  0.15068144589E-01 -0.65823038245E-02  0.10226443312E+01  0.10224227836E+01 0.  0.
     999903    2    3    3    0    0 -0.10992416621E+00  0.90770855042E-02  0.68330869616E-01  0.13085649235E+00  0.16988173768E-01 0.  0.
         14    1    1    2    0    0 -0.13516804065E-01 -0.15068144589E-01  0.65823038245E-02  0.21285668820E-01  0.00000000000E+00 0. -1.
     999901    1    3    3    0    0  0.12344097028E+00  0.59910590846E-02 -0.74913173440E-01  0.89178783883E+00  0.88000000000E+00 0.  1.
        -11    1    4    4    0    0 -0.76526878513E-01  0.53128040174E-02  0.56301108777E-01  0.95156003447E-01  0.51100000000E-03 0.  1.
         11    1    4    4    0    0 -0.33397287702E-01  0.37642814868E-02  0.12029760838E-01  0.35700488901E-01  0.51100000000E-03 0. -1.
</event>
<event>
 8    1  0.1094829E+005  0.1043930E+01  0.7957747E-01            NaN
         13   -1    0    0    0    0  0.00000000000E+00  0.00000000000E+00  0.74505805969E-08  0.10566000000E+00  0.10566000000E+00 0. -1.
     999900   -1    0    0    0    0 -0.00000000000E+00 -0.00000000000E+00 -0.74505805969E-08  0.93827000000E+00  0.93827000000E+00 0. -1.
     999902    2    1    2    0    0  0.21174601337E-01  0.55858141056E-02 -0.76218531554E-02  0.10207425528E+01  0.10204791529E+01 0.  0.
     999903    2    3    3    0    0 -0.10369859710E+00 -0.73180060939E-01 -0.90061780956E-03  0.12841831032E+00  0.19537936232E-01 0.  0.
         14    1    1    2    0    0 -0.21174601337E-01 -0.55858141056E-02  0.76218531554E-02  0.23187447175E-01  0.00000000000E+00 0.  1.
     999901    1    3    3    0    0  0.12487319844E+00  0.78765875045E-01 -0.67212353458E-02  0.89232424251E+00  0.88000000000E+00 0. -1.
        -11    1    4    4    0    0 -0.68405654332E-01 -0.40074404905E-01 -0.72442799999E-02  0.79611759098E-01  0.51100000000E-03 0. -1.
         11    1    4    4    0    0 -0.35292942771E-01 -0.33105656035E-01  0.63436621903E-02  0.48806551220E-01  0.51100000000E-03 0.  1.
</event>
<event>
 8    1  0.1094829E+005  0.1043930E+01  0.7957747E-01            NaN
         13   -1    0    0    0    0  0.00000000000E+00  0.00000000000E+00  0.74505805969E-08  0.10566000000E+00  0.10566000000E+00 0. -1.
     999900   -1    0    0    0    0 -0.00000000000E+00 -0.00000000000E+00 -0.74505805969E-08  0.93827000000E+00  0.93827000000E+00 0.  1.
     999902    2    1    2    0    0  0.17718640204E-01  0.17092377978E-01  0.19430537646E-04  0.10193109023E+01  0.10190135502E+01 0.  0.
     999903    2    3    3    0    0 -0.23206826313E-01  0.12698519100E+00  0.12931586654E-01  0.13143813664E+00  0.21094129762E-01 0.  0.
         14    1    1    2    0    0 -0.17718640204E-01 -0.17092377978E-01 -0.19430537646E-04  0.24619097733E-01  0.00000000000E+00 0. -1.
     999901    1    3    3    0    0  0.40925466517E-01 -0.10989281302E+00 -0.12912156117E-01  0.88787276562E+00  0.88000000000E+00 0.  1.
        -11    1    4    4    0    0 -0.16194889125E-01  0.66858773170E-01  0.16675810779E-01  0.70786395371E-01  0.51100000000E-03 0. -1.
         11    1    4    4    0    0 -0.70119371885E-02  0.60126417828E-01 -0.37442241245E-02  0.60651741271E-01  0.51100000000E-03 0.  1.
</event>
<event>
 8    1  0.1094829E+005  0.1043930E+01  0.7957747E-01            NaN
         13   -1    0    0    0    0  0.00000000000E+00  0.00000000000E+00  0.74505805969E-08  0.10566000000E+00  0.10566000000E+00 0.  1.
     999900   -1    0    0    0    0 -0.00000000000E+00 -0.00000000000E+00 -0.74505805969E-08  0.93827000000E+00  0.93827000000E+00 0.  1.
     999902    2    1    2    0    0 -0.41990119787E-02 -0.22378190090E-01 -0.71102761266E-02  0.10200768845E+01  0.10197979600E+01 0.  0.
     999903    2    3    3    0    0  0.33443017952E-01  0.94897961265E-01 -0.77572648322E-01  0.12870964031E+00  0.20605757402E-01 0.  0.
         14    1    1    2    0    0  0.41990119787E-02  0.22378190090E-01  0.71102761266E-02  0.23853115518E-01  0.00000000000E+00 0. -1.
     999901    1    3    3    0    0 -0.37642029931E-01 -0.11727615136E+00  0.70462372196E-01  0.89136724418E+00  0.88000000000E+00 0.  1.
        -11    1    4    4    0    0  0.15871932585E-01  0.24768454751E-01 -0.14667649200E-01  0.32875456632E-01  0.51100000000E-03 0.  1.
         11    1    4    4    0    0  0.17571085367E-01  0.70129506514E-01 -0.62904999123E-01  0.95834183674E-01  0.51100000000E-03 0. -1.
</event>
<event>
 8    1  0.1094829E+005  0.1043930E+01  0.7957747E-01            NaN
         13   -1    0    0    0    0  0.00000000000E+00  0.00000000000E+00  0.74505805969E-08  0.10566000000E+00  0.10566000000E+00 0.  1.
     999900   -1    0    0    0    0 -0.00000000000E+00 -0.00000000000E+00 -0.74505805969E-08  0.93827000000E+00  0.93827000000E+00 0. -1.
     999902    2    1    2    0    0  0.58039541917E-02  0.13334490794E-02 -0.23299824674E-01  0.10198811788E+01  0.10195976035E+01 0.  0.
     999903    2    3    3    0    0 -0.38494199097E-01  0.76038597014E-01  0.93222321055E-01  0.12796156587E+00  0.20496087334E-01 0.  0.
         14    1    1    2    0    0 -0.58039541917E-02 -0.13334490794E-02  0.23299824674E-01  0.24048821188E-01  0.00000000000E+00 0.  1.
     999901    1    3    3    0    0  0.44298153289E-01 -0.74705147934E-01 -0.11652214573E+00  0.89191961295E+00  0.88000000000E+00 0. -1.
        -11    1    4    4    0    0 -0.21310649255E-02  0.24278041995E-01  0.27207078070E-01  0.36530137954E-01  0.51100000000E-03 0.  1.
         11    1    4    4    0    0 -0.36363134172E-01  0.51760555019E-01  0.66015242985E-01  0.91431427912E-01  0.51100000000E-03 0. -1.
</event>
<event>
 8    1  0.1094829E+005  0.1043930E+01  0.7957747E-01            NaN
         13   -1    0    0    0    0  0.00000000000E+00  0.00000000000E+00  0.74505805969E-08  0.10566000000E+00  0.10566000000E+00 0.  1.
     999900   -1    0    0    0    0 -0.00000000000E+00 -0.00000000000E+00 -0.74505805969E-08  0.93827000000E+00  0.93827000000E+00 0.  1.
     999902    2    1    2    0    0  0.23370398369E-01 -0.60816997405E-02 -0.67260180866E-03  0.10197718754E+01  0.10194856855E+01 0.  0.
     999903    2    3    3    0    0  0.61650006672E-01 -0.11482890229E+00 -0.12424723540E-01  0.13217433436E+00  0.18146095567E-01 0.  0.
         14    1    1    2    0    0 -0.23370398369E-01  0.60816997405E-02  0.67260180866E-03  0.24158124614E-01  0.00000000000E+00 0.  1.
     999901    1    3    3    0    0 -0.38279608303E-01  0.10874720255E+00  0.11752121731E-01  0.88759754103E+00  0.88000000000E+00 0. -1.
        -11    1    4    4    0    0  0.40089992429E-01 -0.88882647786E-01 -0.50412685945E-02  0.97637124499E-01  0.51100000000E-03 0. -1.
         11    1    4    4    0    0  0.21560014243E-01 -0.25946254503E-01 -0.73834549450E-02  0.34537209858E-01  0.51100000000E-03 0.  1.
</event>
<event>
 8    1  0.1094829E+005  0.1043930E+01  0.7957747E-01            NaN
         13   -1    0    0    0    0  0.00000000000E+00  0.00000000000E+00  0.74505805969E-08  0.10566000000E+00  0.10566000000E+00 0.  1.
     999900   -1    0    0    0    0 -0.00000000000E+00 -0.00000000000E+00 -0.74505805969E-08  0.93827000000E+00  0.93827000000E+00 0.  1.
     999902    2    1    2    0    0  0.16651451745E-01  0.67512084616E-02 -0.14977067748E-01  0.10205385011E+01  0.10202703907E+01 0.  0.
     999903    2    3    3    0    0  0.10643744184E+00  0.74107521105E-01  0.20534234254E-01  0.13269873550E+00  0.19142777161E-01 0.  0.
         14    1    1    2    0    0 -0.16651451745E-01 -0.67512084616E-02  0.14977067748E-01  0.23391498867E-01  0.00000000000E+00 0.  1.
     999901    1    3    3    0    0 -0.89785990094E-01 -0.67356312643E-01 -0.35511302003E-01  0.88783976563E+00  0.88000000000E+00 0. -1.
        -11    1    4    4    0    0  0.56543838831E-01  0.30206340679E-01  0.41144861089E-02  0.64240321013E-01  0.51100000000E-03 0. -1.
         11    1    4    4    0    0  0.49893603008E-01  0.43901180426E-01  0.16419748146E-01  0.68458414486E-01  0.51100000000E-03 0.  1.
</event>
<event>
 8    1  0.1154794E+005  0.1043930E+01  0.7957747E-01            NaN
         13   -1    0    0    0    0  0.00000000000E+00  0.00000000000E+00  0.74505805969E-08  0.10566000000E+00  0.10566000000E+00 0. -1.
     999900   -1    0    0    0    0 -0.00000000000E+00 -0.00000000000E+00 -0.74505805969E-08  0.93827000000E+00  0.93827000000E+00 0. -1.
     999902    2    1    2    0    0 -0.19906182426E-01  0.71919039216E-02  0.99190013457E-02  0.10205555231E+01  0.10202878073E+01 0.  0.
     999903    2    3    3    0    0 -0.12332523880E+00 -0.21725381158E-01  0.41352660841E-01  0.13347052972E+00  0.20572628281E-01 0.  0.
         14    1    1    2    0    0  0.19906182426E-01 -0.71919039216E-02 -0.99190013457E-02  0.23374476861E-01  0.00000000000E+00 0.  1.
     999901    1    3    3    0    0  0.10341905637E+00  0.28917285080E-01 -0.31433659496E-01  0.88708499342E+00  0.88000000000E+00 0. -1.
        -11    1    4    4    0    0 -0.58535980991E-01 -0.45558637924E-04  0.20803417054E-01  0.62124925982E-01  0.51100000000E-03 0. -1.
         11    1    4    4    0    0 -0.64789257808E-01 -0.21679822520E-01  0.20549243787E-01  0.71345603740E-01  0.51100000000E-03 0.  1.
</event>
<event>
 8    1  0.1094829E+005  0.1043930E+01  0.7957747E-01            NaN
         13   -1    0    0    0    0  0.00000000000E+00  0.00000000000E+00  0.74505805969E-08  0.10566000000E+00  0.10566000000E+00 0.  1.
     999900   -1    0    0    0    0 -0.00000000000E+00 -0.00000000000E+00 -0.74505805969E-08  0.93827000000E+00  0.93827000000E+00 0.  1.
     999902    2    1    2    0    0  0.11014569755E-01 -0.12603161694E-01  0.16380585640E-01  0.10205102644E+01  0.10202414987E+01 0.  0.
     999903    2    3    3    0    0 -0.90454614153E-01  0.32764845222E-02 -0.88669432572E-01  0.12833109806E+00  0.20342809172E-01 0.  0.
         14    1    1    2    0    0 -0.11014569755E-01  0.12603161694E-01 -0.16380585640E-01  0.23419735641E-01  0.00000000000E+00 0. -1.
     999901    1    3    3    0    0  0.10146918391E+00 -0.15879646216E-01  0.10505001821E+00  0.89217916630E+00  0.88000000000E+00 0.  1.
        -11    1    4    4    0    0 -0.44684173127E-01  0.11750206273E-01 -0.45309992977E-01  0.64714753033E-01  0.51100000000E-03 0. -1.
         11    1    4    4    0    0 -0.45770441026E-01 -0.84737217507E-02 -0.43359439595E-01  0.63616345030E-01  0.51100000000E-03 0.  1.
</event>
<event>
 8    1  0.1094829E+005  0.1043930E+01  0.7957747E-01            NaN
         13   -1    0    0    0    0  0.00000000000E+00  0.00000000000E+00  0.74505805969E-08  0.10566000000E+00  0.10566000000E+00 0. -1.
     999900   -1    0    0    0    0 -0.00000000000E+00 -0.00000000000E+00 -0.74505805969E-08  0.93827000000E+00  0.93827000000E+00 0. -1.
     999902    2    1    2    0    0 -0.50619714904E-02 -0.16350144214E-01  0.13189879489E-01  0.10223215828E+01  0.10220931929E+01 0.  0.
     999903    2    3    3    0    0 -0.72349257275E-03  0.16499190506E-02 -0.12913760452E+00  0.13069389295E+00  0.20028157125E-01 0.  0.
         14    1    1    2    0    0  0.50619714904E-02  0.16350144214E-01 -0.13189879489E-01  0.21608417159E-01  0.00000000000E+00 0. -1.
     999901    1    3    3    0    0 -0.43384789177E-02 -0.18000063264E-01  0.14232748401E+00  0.89162768989E+00  0.88000000000E+00 0.  1.
        -11    1    4    4    0    0 -0.25375809007E-03  0.10754702389E-01 -0.79119145042E-01  0.79848783647E-01  0.51100000000E-03 0.  1.
         11    1    4    4    0    0 -0.46973448268E-03 -0.91047833383E-02 -0.50018459481E-01  0.50845109303E-01  0.51100000000E-03 0. -1.
</event>
<event>
 8    1  0.1094829E+005  0.1043930E+01  0.7957747E-01            NaN
         13   -1    0    0    0    0  0.00000000000E+00  0.00000000000E+00  0.74505805969E-08  0.10566000000E+00  0.10566000000E+00 0. -1.
     999900   -1    0    0    0    0 -0.00000000000E+00 -0.00000000000E+00 -0.74505805969E-08  0.93827000000E+00  0.93827000000E+00 0.  1.
     999902    2    1    2    0    0  0.20844606435E-01  0.86533244379E-02  0.56636303122E-02  0.10206608283E+01  0.10203955469E+01 0.  0.
     999903    2    3    3    0    0  0.11486689342E+00  0.52556149251E-01  0.39980557591E-01  0.13389969930E+00  0.19342504013E-01 0.  0.
         14    1    1    2    0    0 -0.20844606435E-01 -0.86533244379E-02 -0.56636303122E-02  0.23269171657E-01  0.00000000000E+00 0.  1.
     999901    1    3    3    0    0 -0.94022286981E-01 -0.43902824813E-01 -0.34316927279E-01  0.88676112904E+00  0.88000000000E+00 0. -1.
        -11    1    4    4    0    0  0.32605920002E-01  0.20237697985E-01  0.20033894631E-01  0.43293515611E-01  0.51100000000E-03 0. -1.
         11    1    4    4    0    0  0.82260973414E-01  0.32318451266E-01  0.19946662960E-01  0.90606183694E-01  0.51100000000E-03 0.  1.
</event>
<event>
 8    1  0.1094829E+005  0.1043930E+01  0.7957747E-01            NaN
         13   -1    0    0    0    0  0.00000000000E+00  0.00000000000E+00  0.74505805969E-08  0.10566000000E+00  0.10566000000E+00 0. -1.
     999900   -1    0    0    0    0 -0.00000000000E+00 -0.00000000000E+00 -0.74505805969E-08  0.93827000000E+00  0.93827000000E+00 0. -1.
     999902    2    1    2    0    0 -0.14194030496E-01  0.88094873130E-02  0.18444128338E-01  0.10190449957E+01  0.10187411054E+01 0.  0.
     999903    2    3    3    0    0  0.10293619776E+00  0.22774385285E-01  0.72657974347E-01  0.12952060040E+00  0.19541526498E-01 0.  0.
         14    1    1    2    0    0  0.14194030496E-01 -0.88094873130E-02 -0.18444128338E-01  0.24885004292E-01  0.00000000000E+00 0.  1.
     999901    1    3    3    0    0 -0.11713022826E+00 -0.13964897972E-01 -0.54213846009E-01  0.88952439531E+00  0.88000000000E+00 0.  1.
        -11    1    4    4    0    0  0.70922578617E-01  0.15812076531E-01  0.38685494431E-01  0.82321701405E-01  0.51100000000E-03 0.  1.
         11    1    4    4    0    0  0.32013619143E-01  0.69623087543E-02  0.33972479917E-01  0.47198898997E-01  0.51100000000E-03 0. -1.
</event>
<event>
 8    1  0.1094829E+005  0.1043930E+01  0.7957747E-01            NaN
         13   -1    0    0    0    0  0.00000000000E+00  0.00000000000E+00  0.74505805969E-08  0.10566000000E+00  0.10566000000E+00 0.  1.
     999900   -1    0    0    0    0 -0.00000000000E+00 -0.00000000000E+00 -0.74505805969E-08  0.93827000000E+00  0.93827000000E+00 0.  1.
     999902    2    1    2    0    0  0.23387474566E-01  0.46382954365E-02  0.16199191664E-02  0.10200320526E+01  0.10197520662E+01 0.  0.
     999903    2    3    3    0    0 -0.63412182578E-01  0.19394457700E-01  0.10907276260E+00  0.12913473060E+00  0.19536151559E-01 0.  0.
         14    1    1    2    0    0 -0.23387474566E-01 -0.46382954365E-02 -0.16199191664E-02  0.23897947386E-01  0.00000000000E+00 0. -1.
     999901    1    3    3    0    0  0.86799657144E-01 -0.14756162264E-01 -0.10745284343E+00  0.89089732201E+00  0.88000000000E+00 0.  1.
        -11    1    4    4    0    0 -0.21499490882E-01 -0.19431666920E-02  0.41834731648E-01  0.47078762708E-01  0.51100000000E-03 0. -1.
         11    1    4    4    0    0 -0.41912691695E-01  0.21337624392E-01  0.67238030953E-01  0.82055967895E-01  0.51100000000E-03 0.  1.
</event>
<event>
 8    1  0.1094829E+005  0.1043930E+01  0.7957747E-01            NaN
         13   -1    0    0    0    0  0.00000000000E+00  0.00000000000E+00  0.74505805969E-08  0.10566000000E+00  0.10566000000E+00 0.  1.
     999900   -1    0    0    0    0 -0.00000000000E+00 -0.00000000000E+00 -0.74505805969E-08  0.93827000000E+00  0.93827000000E+00 0. -1.
     999902    2    1    2    0    0 -0.15759591370E-01  0.17917424175E-03  0.17832677877E-01  0.10201308146E+01  0.10198531648E+01 0.  0.
     999903    2    3    3    0    0 -0.11207917825E+00 -0.53415031433E-01  0.42823745993E-01  0.13290234621E+00  0.20353197001E-01 0.  0.
         14    1    1    2    0    0  0.15759591370E-01 -0.17917424175E-03 -0.17832677877E-01  0.23799185361E-01  0.00000000000E+00 0. -1.
     999901    1    3    3    0    0  0.96319586880E-01  0.53594205675E-01 -0.24991068116E-01  0.88722846843E+00  0.88000000000E+00 0.  1.
        -11    1    4    4    0    0 -0.53558150986E-01 -0.19672261160E-01  0.28770392085E-01  0.63902034224E-01  0.51100000000E-03 0.  1.
         11    1    4    4    0    0 -0.58521027264E-01 -0.33742770273E-01  0.14053353908E-01  0.69000311990E-01  0.51100000000E-03 0. -1.
</event>
<event>
 8    1  0.1094829E+005  0.1043930E+01  0.7957747E-01            NaN
         13   -1    0    0    0    0  0.00000000000E+00  0.00000000000E+00  0.74505805969E-08  0.10566000000E+00  0.10566000000E+00 0. -1.
     999900   -1    0    0    0    0 -0.00000000000E+00 -0.00000000000E+00 -0.74505805969E-08  0.93827000000E+00  0.93827000000E+00 0. -1.
     999902    2    1    2    0    0 -0.32290880269E-02  0.15115716947E-01  0.17681896145E-01  0.10204446565E+01  0.10201743653E+01 0.  0.
     999903    2    3    3    0    0  0.78507434106E-01  0.11991912993E-01  0.10372941294E+00  0.13247236394E+00  0.21952514919E-01 0.  0.
         14    1    1    2    0    0  0.32290880269E-02 -0.15115716947E-01 -0.17681896145E-01  0.23485343505E-01  0.00000000000E+00 0.  1.
     999901    1    3    3    0    0 -0.81736522133E-01  0.31238039538E-02 -0.86047516796E-01  0.88797229256E+00  0.88000000000E+00 0. -1.
        -11    1    4    4    0    0  0.52325978822E-01  0.73900855367E-02  0.51121486786E-01  0.73527470758E-01  0.51100000000E-03 0. -1.
         11    1    4    4    0    0  0.26181455284E-01  0.46018274563E-02  0.52607926154E-01  0.58944893179E-01  0.51100000000E-03 0.  1.
</event>
<event>
 8    1  0.1094829E+005  0.1043930E+01  0.7957747E-01            NaN
         13   -1    0    0    0    0  0.00000000000E+00  0.00000000000E+00  0.74505805969E-08  0.10566000000E+00  0.10566000000E+00 0.  1.
     999900   -1    0    0    0    0 -0.00000000000E+00 -0.00000000000E+00 -0.74505805969E-08  0.93827000000E+00  0.93827000000E+00 0. -1.
     999902    2    1    2    0    0  0.21213010497E-01 -0.44323435806E-02 -0.10736075226E-01  0.10197452776E+01  0.10194584496E+01 0.  0.
     999903    2    3    3    0    0  0.25430820434E-01 -0.12176169534E+00  0.34680935526E-01  0.13078708315E+00  0.20732986946E-01 0.  0.
         14    1    1    2    0    0 -0.21213010497E-01  0.44323435806E-02  0.10736075226E-01  0.24184722352E-01  0.00000000000E+00 0.  1.
     999901    1    3    3    0    0 -0.42178099364E-02  0.11732935176E+00 -0.45417010753E-01  0.88895819450E+00  0.88000000000E+00 0.  1.
        -11    1    4    4    0    0  0.47789034157E-02 -0.57120253019E-01  0.80412414284E-02  0.57883364687E-01  0.51100000000E-03 0. -1.
         11    1    4    4    0    0  0.20651917018E-01 -0.64641442326E-01  0.26639694098E-01  0.72903718459E-01  0.51100000000E-03 0.  1.
</event>
<event>
 8    1  0.1094829E+005  0.1043930E+01  0.7957747E-01            NaN
         13   -1    0    0    0    0  0.00000000000E+00  0.00000000000E+00  0.74505805969E-08  0.10566000000E+00  0.10566000000E+00 0.  1.
     999900   -1    0    0    0    0 -0.00000000000E+00 -0.00000000000E+00 -0.74505805969E-08  0.93827000000E+00  0.93827000000E+00 0.  1.
     999902    2    1    2    0    0  0.16385034036E-01 -0.12668924363E-01  0.12803403779E-01  0.10195805004E+01  0.10192897030E+01 0.  0.
     999903    2    3    3    0    0 -0.43799691752E-02 -0.10160319317E+00 -0.78272316570E-01  0.13017886084E+00  0.21853770284E-01 0.  0.
         14    1    1    2    0    0 -0.16385034036E-01  0.12668924363E-01 -0.12803403779E-01  0.24349499650E-01  0.00000000000E+00 0.  1.
     999901    1    3    3    0    0  0.20765003211E-01  0.88934268809E-01  0.91075720349E-01  0.88940163951E+00  0.88000000000E+00 0. -1.
        -11    1    4    4    0    0  0.80986139867E-02 -0.60120436800E-01 -0.47239723707E-01  0.76888926943E-01  0.51100000000E-03 0. -1.
         11    1    4    4    0    0 -0.12478583162E-01 -0.41482756371E-01 -0.31032592864E-01  0.53289933897E-01  0.51100000000E-03 0.  1.
</event>
<event>
 8    1  0.1094829E+005  0.1043930E+01  0.7957747E-01            NaN
         13   -1    0    0    0    0  0.00000000000E+00  0.00000000000E+00  0.74505805969E-08  0.10566000000E+00  0.10566000000E+00 0. -1.
     999900   -1    0    0    0    0 -0.00000000000E+00 -0.00000000000E+00 -0.74505805969E-08  0.93827000000E+00  0.93827000000E+00 0.  1.
     999902    2    1    2    0    0 -0.12184237080E-01 -0.19825325728E-01 -0.49686703915E-03  0.10206545612E+01  0.10203891352E+01 0.  0.
     999903    2    3    3    0    0 -0.37237877823E-01 -0.10689383816E+00 -0.67813061771E-01  0.13344540840E+00  0.19902600214E-01 0.  0.
         14    1    1    2    0    0  0.12184237080E-01  0.19825325728E-01  0.49686703915E-03  0.23275438778E-01  0.00000000000E+00 0. -1.
     999901    1    3    3    0    0  0.25053640743E-01  0.87068512434E-01  0.67316194732E-01  0.88720915282E+00  0.88000000000E+00 0. -1.
        -11    1    4    4    0    0 -0.37183971659E-02 -0.38407992555E-01 -0.25289812209E-01  0.46139311787E-01  0.51100000000E-03 0. -1.
         11    1    4    4    0    0 -0.33519480657E-01 -0.68485845607E-01 -0.42523249562E-01  0.87306096616E-01  0.51100000000E-03 0.  1.
</event>
<event>
 8    1  0.1094829E+005  0.1043930E+01  0.7957747E-01            NaN
         13   -1    0    0    0    0  0.00000000000E+00  0.00000000000E+00  0.74505805969E-08  0.10566000000E+00  0.10566000000E+00 0.  1.
     999900   -1    0    0    0    0 -0.00000000000E+00 -0.00000000000E+00 -0.74505805969E-08  0.93827000000E+00  0.93827000000E+00 0.  1.
     999902    2    1    2    0    0  0.69358401584E-02  0.29414727734E-02  0.21939816716E-01  0.10207327222E+01  0.10204690963E+01 0.  0.
     999903    2    3    3    0    0  0.75607382094E-01 -0.99850954591E-01  0.35798970709E-01  0.13198408508E+00  0.21249542368E-01 0.  0.
         14    1    1    2    0    0 -0.69358401584E-02 -0.29414727734E-02 -0.21939816716E-01  0.23197277821E-01  0.00000000000E+00 0. -1.
     999901    1    3    3    0    0 -0.68671541936E-01  0.10279242736E+00 -0.13859153993E-01  0.88874863710E+00  0.88000000000E+00 0. -1.
        -11    1    4    4    0    0  0.62002904926E-01 -0.67508669201E-01  0.29793591070E-01  0.96383088902E-01  0.51100000000E-03 0.  1.
         11    1    4    4    0    0  0.13604477169E-01 -0.32342285390E-01  0.60053796391E-02  0.35600996178E-01  0.51100000000E-03 0. -1.
</event>
<event>
 8    1  0.1094829E+005  0.1043930E+01  0.7957747E-01            NaN
         13   -1    0    0    0    0  0.00000000000E+00  0.00000000000E+00  0.74505805969E-08  0.10566000000E+00  0.10566000000E+00 0. -1.
     999900   -1    0    0    0    0 -0.00000000000E+00 -0.00000000000E+00 -0.74505805969E-08  0.93827000000E+00  0.93827000000E+00 0. -1.
     999902    2    1    2    0    0 -0.20025037087E-01 -0.94045280168E-03 -0.12987251208E-01  0.10200437015E+01  0.10197639912E+01 0.  0.
     999903    2    3    3    0    0  0.12621632983E+00  0.94536896959E-03 -0.62550949950E-02  0.12794762168E+00  0.20000300997E-01 0.  0.
         14    1    1    2    0    0  0.20025037087E-01  0.94045280168E-03  0.12987251208E-01  0.23886298494E-01  0.00000000000E+00 0.  1.
     999901    1    3    3    0    0 -0.14624136692E+00 -0.18858217713E-02 -0.67321562128E-02  0.89209607983E+00  0.88000000000E+00 0. -1.
        -11    1    4    4    0    0  0.59547370649E-01 -0.22222597292E-02  0.66647990952E-02  0.59962558797E-01  0.51100000000E-03 0. -1.
         11    1    4    4    0    0  0.66668959185E-01  0.31676286988E-02 -0.12919894090E-01  0.67985062879E-01  0.51100000000E-03 0.  1.
</event>
<event>
 8    1  0.1094829E+005  0.1043930E+01  0.7957747E-01            NaN
         13   -1    0    0    0    0  0.00000000000E+00  0.00000000000E+00  0.74505805969E-08  0.10566000000E+00  0.10566000000E+00 0.  1.
     999900   -1    0    0    0    0 -0.00000000000E+00 -0.00000000000E+00 -0.74505805969E-08  0.93827000000E+00  0.93827000000E+00 0.  1.
     999902    2    1    2    0    0  0.60651378294E-02 -0.22976330872E-01  0.63924555272E-02  0.10193218476E+01  0.10190247631E+01 0.  0.
     999903    2    3    3    0    0  0.82551378844E-01  0.33587071561E-01 -0.91039111784E-01  0.12884867345E+00  0.19262379146E-01 0.  0.
         14    1    1    2    0    0 -0.60651378294E-02  0.22976330872E-01 -0.63924555272E-02  0.24608152407E-01  0.00000000000E+00 0.  1.
     999901    1    3    3    0    0 -0.76486241014E-01 -0.56563402432E-01  0.97431567312E-01  0.89047317414E+00  0.88000000000E+00 0. -1.
        -11    1    4    4    0    0  0.37646988799E-01  0.17453700671E-01 -0.29214643467E-01  0.50751196505E-01  0.51100000000E-03 0. -1.
         11    1    4    4    0    0  0.44904390044E-01  0.16133370890E-01 -0.61824468317E-01  0.78097476945E-01  0.51100000000E-03 0.  1.
</event>
<event>
 8    1  0.1094829E+005  0.1043930E+01  0.7957747E-01            NaN
         13   -1    0    0    0    0  0.00000000000E+00  0.00000000000E+00  0.74505805969E-08  0.10566000000E+00  0.10566000000E+00 0.  1.
     999900   -1    0    0    0    0 -0.00000000000E+00 -0.00000000000E+00 -0.74505805969E-08  0.93827000000E+00  0.93827000000E+00 0.  1.
     999902    2    1    2    0    0 -0.75427571750E-02 -0.38547852228E-02  0.28814959095E-01  0.10138957791E+01  0.10134508358E+01 0.  0.
     999903    2    3    3    0    0  0.14138639982E-01 -0.11208143996E+00  0.53151297128E-01  0.12666675058E+00  0.21383521513E-01 0.  0.
         14    1    1    2    0    0  0.75427571750E-02  0.38547852228E-02 -0.28814959095E-01  0.30034220858E-01  0.00000000000E+00 0. -1.
     999901    1    3    3    0    0 -0.21681397157E-01  0.10822665473E+00 -0.24336338033E-01  0.88722902856E+00  0.88000000000E+00 0.  1.
        -11    1    4    4    0    0  0.15353336849E-01 -0.39499705730E-01  0.19471470401E-01  0.46640658076E-01  0.51100000000E-03 0. -1.
         11    1    4    4    0    0 -0.12146968665E-02 -0.72581734227E-01  0.33679826726E-01  0.80026092502E-01  0.51100000000E-03 0.  1.
</event>
<event>
 8    1  0.1094829E+005  0.1043930E+01  0.7957747E-01            NaN
         13   -1    0    0    0    0  0.00000000000E+00  0.00000000000E+00  0.74505805969E-08  0.10566000000E+00  0.10566000000E+00 0.  1.
     999900   -1    0    0    0    0 -0.00000000000E+00 -0.00000000000E+00 -0.74505805969E-08  0.93827000000E+00  0.93827000000E+00 0.  1.
     999902    2    1    2    0    0 -0.22075279595E-01  0.20107447511E-02 -0.85012785976E-02  0.10201890480E+01  0.10199127712E+01 0.  0.
     999903    2    3    3    0    0  0.77741364739E-01  0.33403056604E-01  0.93983452215E-01  0.12808369561E+00  0.20323872881E-01 0.  0.
         14    1    1    2    0    0  0.22075279595E-01 -0.20107447511E-02  0.85012785976E-02  0.23740951991E-01  0.00000000000E+00 0.  1.
     999901    1    3    3    0    0 -0.99816644333E-01 -0.31392311853E-01 -0.10248473081E+00  0.89210535240E+00  0.88000000000E+00 0.  1.
        -11    1    4    4    0    0  0.47363212338E-01  0.30055323796E-01  0.55180453289E-01  0.78687609683E-01  0.51100000000E-03 0.  1.
         11    1    4    4    0    0  0.30378152401E-01  0.33477328080E-02  0.38802998926E-01  0.49396085927E-01  0.51100000000E-03 0. -1.
</event>
<event>
 8    1  0.1094829E+005  0.1043930E+01  0.7957747E-01            NaN
         13   -1    0    0    0    0  0.00000000000E+00  0.00000000000E+00  0.74505805969E-08  0.10566000000E+00  0.10566000000E+00 0.  1.
     999900   -1    0    0    0    0 -0.00000000000E+00 -0.00000000000E+00 -0.74505805969E-08  0.93827000000E+00  0.93827000000E+00 0. -1.
     999902    2    1    2    0    0 -0.14403766395E-01 -0.13899018443E-01 -0.12928618732E-01  0.10201014377E+01  0.10198230939E+01 0.  0.
     999903    2    3    3    0    0 -0.42437523963E-01 -0.11369948304E+00  0.47656704983E-01  0.13194795671E+00  0.20262918504E-01 0.  0.
         14    1    1    2    0    0  0.14403766395E-01  0.13899018443E-01  0.12928618732E-01  0.23828562323E-01  0.00000000000E+00 0.  1.
     999901    1    3    3    0    0  0.28033757568E-01  0.99800464601E-01 -0.60585323716E-01  0.88815348096E+00  0.88000000000E+00 0.  1.
        -11    1    4    4    0    0 -0.26453087522E-01 -0.83614517306E-01  0.42612480741E-01  0.97505066431E-01  0.51100000000E-03 0. -1.
         11    1    4    4    0    0 -0.15984436441E-01 -0.30084965738E-01  0.50442242426E-02  0.34442890283E-01  0.51100000000E-03 0.  1.
</event>
<event>
 8    1  0.1094829E+005  0.1043930E+01  0.7957747E-01            NaN
         13   -1    0    0    0    0  0.00000000000E+00  0.00000000000E+00  0.74505805969E-08  0.10566000000E+00  0.10566000000E+00 0. -1.
     999900   -1    0    0    0    0 -0.00000000000E+00 -0.00000000000E+00 -0.74505805969E-08  0.93827000000E+00  0.93827000000E+00 0. -1.
     999902    2    1    2    0    0 -0.96580861871E-02 -0.22003660257E-01 -0.72824231736E-02  0.10188207710E+01  0.10185113107E+01 0.  0.
     999903    2    3    3    0    0  0.53991931667E-01 -0.25298449527E-01  0.11204892367E+00  0.12848254833E+00  0.19941506901E-01 0.  0.
         14    1    1    2    0    0  0.96580861871E-02  0.22003660257E-01  0.72824231736E-02  0.25109228996E-01  0.00000000000E+00 0. -1.
     999901    1    3    3    0    0 -0.63650017854E-01  0.32947892701E-02 -0.11933134684E+00  0.89033822267E+00  0.88000000000E+00 0. -1.
        -11    1    4    4    0    0  0.41936564495E-01 -0.10993968129E-01  0.87106098339E-01  0.97299929423E-01  0.51100000000E-03 0. -1.
         11    1    4    4    0    0  0.12055367172E-01 -0.14304481398E-01  0.24942825329E-01  0.31182618910E-01  0.51100000000E-03 0.  1.
</event>
<event>
 8    1  0.1094829E+005  0.1043930E+01  0.7957747E-01            NaN
         13   -1    0    0    0    0  0.00000000000E+00  0.00000000000E+00  0.74505805969E-08  0.10566000000E+00  0.10566000000E+00 0. -1.
     999900   -1    0    0    0    0 -0.00000000000E+00 -0.00000000000E+00 -0.74505805969E-08  0.93827000000E+00  0.93827000000E+00 0.  1.
     999902    2    1    2    0    0  0.13051667929E-01  0.16014573390E-01 -0.13043181440E-01  0.10194977021E+01  0.10192048997E+01 0.  0.
     999903    2    3    3    0    0  0.48888027150E-02  0.12115591117E+00 -0.49514865989E-01  0.13245118867E+00  0.19721567473E-01 0.  0.
         14    1    1    2    0    0 -0.13051667929E-01 -0.16014573390E-01  0.13043181440E-01  0.24432297859E-01  0.00000000000E+00 0. -1.
     999901    1    3    3    0    0  0.81628652142E-02 -0.10514133778E+00  0.36471684550E-01  0.88704651347E+00  0.88000000000E+00 0. -1.
        -11    1    4    4    0    0 -0.57969204834E-02  0.82544279766E-01 -0.31929748492E-01  0.88695729147E-01  0.51100000000E-03 0.  1.
         11    1    4    4    0    0  0.10685723198E-01  0.38611631406E-01 -0.17585117497E-01  0.43755459528E-01  0.51100000000E-03 0. -1.
</event>
<event>
 8    1  0.1094829E+005  0.1043930E+01  0.7957747E-01            NaN
         13   -1    0    0    0    0  0.00000000000E+00  0.00000000000E+00  0.74505805969E-08  0.10566000000E+00  0.10566000000E+00 0. -1.
     999900   -1    0    0    0    0 -0.00000000000E+00 -0.00000000000E+00 -0.74505805969E-08  0.93827000000E+00  0.93827000000E+00 0. -1.
     999902    2    1    2    0    0  0.36390832535E-02 -0.18090621440E-01 -0.14965201934E-01  0.10201714062E+01  0.10198947138E+01 0.  0.
     999903    2    3    3    0    0  0.33805751508E-01  0.11975403987E+00 -0.25485098110E-01  0.12886795240E+00  0.21762353500E-01 0.  0.
         14    1    1    2    0    0 -0.36390832535E-02  0.18090621440E-01  0.14965201934E-01  0.23758593812E-01  0.00000000000E+00 0. -1.
     999901    1    3    3    0    0 -0.30166668255E-01 -0.13784466131E+00  0.10519896177E-01  0.89130345379E+00  0.88000000000E+00 0. -1.
        -11    1    4    4    0    0  0.24904090029E-02  0.20054042107E-01 -0.11973440218E-01  0.23494491556E-01  0.51100000000E-03 0.  1.
         11    1    4    4    0    0  0.31315342505E-01  0.99699997760E-01 -0.13511657892E-01  0.10537346084E+00  0.51100000000E-03 0. -1.
</event>
<event>
 8    1  0.1094829E+005  0.1043930E+01  0.7957747E-01            NaN
         13   -1    0    0    0    0  0.00000000000E+00  0.00000000000E+00  0.74505805969E-08  0.10566000000E+00  0.10566000000E+00 0.  1.
     999900   -1    0    0    0    0 -0.00000000000E+00 -0.00000000000E+00 -0.74505805969E-08  0.93827000000E+00  0.93827000000E+00 0.  1.
     999902    2    1    2    0    0  0.11489645604E-01 -0.16718641556E-01  0.12404782200E-01  0.10201517841E+01  0.10198746290E+01 0.  0.
     999903    2    3    3    0    0  0.13435548243E-01  0.91203871292E-01 -0.86191662966E-01  0.12809107183E+00  0.21901137464E-01 0.  0.
         14    1    1    2    0    0 -0.11489645604E-01  0.16718641556E-01 -0.12404782200E-01  0.23778215934E-01  0.00000000000E+00 0.  1.
     999901    1    3    3    0    0 -0.19459026389E-02 -0.10792251285E+00  0.98596445166E-01  0.89206071224E+00  0.88000000000E+00 0. -1.
        -11    1    4    4    0    0  0.19351697728E-01  0.63460727080E-01 -0.61951680885E-01  0.90774577784E-01  0.51100000000E-03 0.  1.
         11    1    4    4    0    0 -0.59161494846E-02  0.27743144212E-01 -0.24239982081E-01  0.37316494045E-01  0.51100000000E-03 0. -1.
</event>
<event>
 8    1  0.1094829E+005  0.1043930E+01  0.7957747E-01            NaN
         13   -1    0    0    0    0  0.00000000000E+00  0.00000000000E+00  0.74505805969E-08  0.10566000000E+00  0.10566000000E+00 0.  1.
     999900   -1    0    0    0    0 -0.00000000000E+00 -0.00000000000E+00 -0.74505805969E-08  0.93827000000E+00  0.93827000000E+00 0. -1.
     999902    2    1    2    0    0  0.17571153645E-01 -0.57135462432E-02  0.14894969754E-01  0.10201971077E+01  0.10199210207E+01 0.  0.
     999903    2    3    3    0    0  0.10777530630E+00  0.96735034868E-02  0.75610362181E-01  0.13337135860E+00  0.19023646056E-01 0.  0.
         14    1    1    2    0    0 -0.17571153645E-01  0.57135462432E-02 -0.14894969754E-01  0.23732892261E-01  0.00000000000E+00 0. -1.
     999901    1    3    3    0    0 -0.90204152651E-01 -0.15387049730E-01 -0.60715392427E-01  0.88682574914E+00  0.88000000000E+00 0. -1.
        -11    1    4    4    0    0  0.94154818893E-01  0.61234935781E-02  0.57749117316E-01  0.11062481081E+00  0.51100000000E-03 0.  1.
         11    1    4    4    0    0  0.13620487404E-01  0.35500099086E-02  0.17861244865E-01  0.22746547795E-01  0.51100000000E-03 0. -1.
</event>
<event>
 8    1  0.1094829E+005  0.1043930E+01  0.7957747E-01            NaN
         13   -1    0    0    0    0  0.00000000000E+00  0.00000000000E+00  0.74505805969E-08  0.10566000000E+00  0.10566000000E+00 0. -1.
     999900   -1    0    0    0    0 -0.00000000000E+00 -0.00000000000E+00 -0.74505805969E-08  0.93827000000E+00  0.93827000000E+00 0. -1.
     999902    2    1    2    0    0  0.86012470766E-02 -0.21309979497E-01 -0.51850900931E-02  0.10203719475E+01  0.10200999605E+01 0.  0.
     999903    2    3    3    0    0  0.24040387161E-01 -0.11082827355E-01 -0.12736436370E+00  0.13173775023E+00  0.20793855338E-01 0.  0.
         14    1    1    2    0    0 -0.86012470766E-02  0.21309979497E-01  0.51850900931E-02  0.23558052481E-01  0.00000000000E+00 0. -1.
     999901    1    3    3    0    0 -0.15439140085E-01 -0.10227152142E-01  0.12217927360E+00  0.88863419729E+00  0.88000000000E+00 0.  1.
        -11    1    4    4    0    0  0.20488739634E-01 -0.50027052973E-02 -0.11870486583E+00  0.12056501070E+00  0.51100000000E-03 0.  1.
         11    1    4    4    0    0  0.35516475276E-02 -0.60801220575E-02 -0.86594978613E-02  0.11172739530E-01  0.51100000000E-03 0. -1.
</event>
<event>
 8    1  0.1094829E+005  0.1043930E+01  0.7957747E-01            NaN
         13   -1    0    0    0    0  0.00000000000E+00  0.00000000000E+00  0.74505805969E-08  0.10566000000E+00  0.10566000000E+00 0. -1.
     999900   -1    0    0    0    0 -0.00000000000E+00 -0.00000000000E+00 -0.74505805969E-08  0.93827000000E+00  0.93827000000E+00 0.  1.
     999902    2    1    2    0    0  0.76620429968E-03  0.10518535734E-01  0.21899815900E-01  0.10196230339E+01  0.10193332638E+01 0.  0.
     999903    2    3    3    0    0 -0.38571249408E-01 -0.26502600676E-01 -0.11658923356E+00  0.12715610646E+00  0.19634075134E-01 0.  0.
         14    1    1    2    0    0 -0.76620429968E-03 -0.10518535734E-01 -0.21899815900E-01  0.24306966068E-01  0.00000000000E+00 0.  1.
     999901    1    3    3    0    0  0.39337453707E-01  0.37021136410E-01  0.13848904946E+00  0.89246692747E+00  0.88000000000E+00 0. -1.
        -11    1    4    4    0    0 -0.11029176371E-01 -0.12105017735E-01 -0.64039125974E-01  0.66101777301E-01  0.51100000000E-03 0. -1.
         11    1    4    4    0    0 -0.27542073036E-01 -0.14397582941E-01 -0.52550107582E-01  0.61054329163E-01  0.51100000000E-03 0.  1.
</event>
<event>
 8    1  0.1094829E+005  0.1043930E+01  0.7957747E-01            NaN
         13   -1    0    0    0    0  0.00000000000E+00  0.00000000000E+00  0.74505805969E-08  0.10566000000E+00  0.10566000000E+00 0. -1.
     999900   -1    0    0    0    0 -0.00000000000E+00 -0.00000000000E+00 -0.74505805969E-08  0.93827000000E+00  0.93827000000E+00 0. -1.
     999902    2    1    2    0    0  0.18734655116E-02 -0.20101010355E-01  0.22605790423E-02  0.10236157019E+01  0.10234141070E+01 0.  0.
     999903    2    3    3    0    0 -0.59034650882E-01 -0.10081279838E+00  0.66612076405E-01  0.13549110106E+00  0.16503315501E-01 0.  0.
         14    1    1    2    0    0 -0.18734655116E-02  0.20101010355E-01 -0.22605790423E-02  0.20314298116E-01  0.00000000000E+00 0. -1.
     999901    1    3    3    0    0  0.60908116393E-01  0.80711788025E-01 -0.64351497363E-01  0.88812460082E+00  0.88000000000E+00 0. -1.
        -11    1    4    4    0    0 -0.71507608559E-02 -0.25680921570E-01  0.14128700172E-01  0.30174896902E-01  0.51100000000E-03 0.  1.
         11    1    4    4    0    0 -0.51883890026E-01 -0.75131876811E-01  0.52483376233E-01  0.10531620416E+00  0.51100000000E-03 0. -1.
</event>
<event>
 8    1  0.1094829E+005  0.1043930E+01  0.7957747E-01            NaN
         13   -1    0    0    0    0  0.00000000000E+00  0.00000000000E+00  0.74505805969E-08  0.10566000000E+00  0.10566000000E+00 0. -1.
     999900   -1    0    0    0    0 -0.00000000000E+00 -0.00000000000E+00 -0.74505805969E-08  0.93827000000E+00  0.93827000000E+00 0.  1.
     999902    2    1    2    0    0  0.11157330104E-01  0.11508672451E-01  0.14977713842E-01  0.10219921909E+01  0.10217567082E+01 0.  0.
     999903    2    3    3    0    0  0.11187819017E+00  0.21360205935E-01 -0.64784327736E-01  0.13260828748E+00  0.20370590466E-01 0.  0.
         14    1    1    2    0    0 -0.11157330104E-01 -0.11508672451E-01 -0.14977713842E-01  0.21937809111E-01  0.00000000000E+00 0.  1.
     999901    1    3    3    0    0 -0.10072086006E+00 -0.98515334842E-02  0.79762041578E-01  0.88938390341E+00  0.88000000000E+00 0.  1.
        -11    1    4    4    0    0  0.41317626471E-01 -0.72340303624E-03 -0.17743883338E-01  0.44975283057E-01  0.51100000000E-03 0. -1.
         11    1    4    4    0    0  0.70560563696E-01  0.22083608971E-01 -0.47040444398E-01  0.87633004425E-01  0.51100000000E-03 0.  1.
</event>
<event>
 8    1  0.1094829E+005  0.1043930E+01  0.7957747E-01            NaN
         13   -1    0    0    0    0  0.00000000000E+00  0.00000000000E+00  0.74505805969E-08  0.10566000000E+00  0.10566000000E+00 0.  1.
     999900   -1    0    0    0    0 -0.00000000000E+00 -0.00000000000E+00 -0.74505805969E-08  0.93827000000E+00  0.93827000000E+00 0.  1.
     999902    2    1    2    0    0  0.12603485049E-01 -0.19918198816E-01 -0.31086118669E-02  0.10201550984E+01  0.10198780215E+01 0.  0.
     999903    2    3    3    0    0  0.98557828531E-01  0.34986220415E-01  0.75752025468E-01  0.13076112238E+00  0.20552872807E-01 0.  0.
         14    1    1    2    0    0 -0.12603485049E-01  0.19918198816E-01  0.31086118669E-02  0.23774901623E-01  0.00000000000E+00 0.  1.
     999901    1    3    3    0    0 -0.85954343482E-01 -0.54904419231E-01 -0.78860637335E-01  0.88939397599E+00  0.88000000000E+00 0.  1.
        -11    1    4    4    0    0  0.50065530764E-01  0.14836875452E-01  0.49899188255E-01  0.72227974867E-01  0.51100000000E-03 0.  1.
         11    1    4    4    0    0  0.48492297767E-01  0.20149344963E-01  0.25852837213E-01  0.58533147515E-01  0.51100000000E-03 0. -1.
</event>
<event>
 8    1  0.1094829E+005  0.1043930E+01  0.7957747E-01            NaN
         13   -1    0    0    0    0  0.00000000000E+00  0.00000000000E+00  0.74505805969E-08  0.10566000000E+00  0.10566000000E+00 0.  1.
     999900   -1    0    0    0    0 -0.00000000000E+00 -0.00000000000E+00 -0.74505805969E-08  0.93827000000E+00  0.93827000000E+00 0.  1.
     999902    2    1    2    0    0  0.10503615384E-01  0.10180789843E-01  0.17378345523E-01  0.10212147780E+01  0.10209621156E+01 0.  0.
     999903    2    3    3    0    0  0.49520885353E-01 -0.24941042590E-01 -0.11590009197E+00  0.12963245853E+00  0.17244398918E-01 0.  0.
         14    1    1    2    0    0 -0.10503615384E-01 -0.10180789843E-01 -0.17378345523E-01  0.22715222013E-01  0.00000000000E+00 0. -1.
     999901    1    3    3    0    0 -0.39017269969E-01  0.35121832434E-01  0.13327843749E+00  0.89158231946E+00  0.88000000000E+00 0. -1.
        -11    1    4    4    0    0  0.77114769285E-02  0.85859025917E-03 -0.84554351497E-02  0.11487365156E-01  0.51100000000E-03 0.  1.
         11    1    4    4    0    0  0.41809408424E-01 -0.25799632849E-01 -0.10744465682E+00  0.11814509337E+00  0.51100000000E-03 0. -1.
</event>
<event>
 8    1  0.1094829E+005  0.1043930E+01  0.7957747E-01            NaN
         13   -1    0    0    0    0  0.00000000000E+00  0.00000000000E+00  0.74505805969E-08  0.10566000000E+00  0.10566000000E+00 0. -1.
     999900   -1    0    0    0    0 -0.00000000000E+00 -0.00000000000E+00 -0.74505805969E-08  0.93827000000E+00  0.93827000000E+00 0.  1.
     999902    2    1    2    0    0 -0.16684088988E-01 -0.16731471211E-01 -0.22174312184E-01  0.10115262799E+01  0.10110071285E+01 0.  0.
     999903    2    3    3    0    0  0.92314665257E-01 -0.97468961567E-02  0.72730251089E-01  0.11970993737E+00  0.20585924182E-01 0.  0.
         14    1    1    2    0    0  0.16684088988E-01  0.16731471211E-01  0.22174312184E-01  0.32403720081E-01  0.00000000000E+00 0. -1.
     999901    1    3    3    0    0 -0.10899875424E+00 -0.69845750542E-02 -0.94904563273E-01  0.89181634255E+00  0.88000000000E+00 0.  1.
        -11    1    4    4    0    0  0.44956317063E-01 -0.12609246244E-01  0.27677567397E-01  0.54280497351E-01  0.51100000000E-03 0.  1.
         11    1    4    4    0    0  0.47358348194E-01  0.28623500877E-02  0.45052683693E-01  0.65429440014E-01  0.51100000000E-03 0. -1.
</event>
<event>
 8    1  0.1094829E+005  0.1043930E+01  0.7957747E-01            NaN
         13   -1    0    0    0    0  0.00000000000E+00  0.00000000000E+00  0.74505805969E-08  0.10566000000E+00  0.10566000000E+00 0. -1.
     999900   -1    0    0    0    0 -0.00000000000E+00 -0.00000000000E+00 -0.74505805969E-08  0.93827000000E+00  0.93827000000E+00 0. -1.
     999902    2    1    2    0    0 -0.12789785234E-01  0.51102204154E-02  0.18952738041E-01  0.10205014013E+01  0.10202324298E+01 0.  0.
     999903    2    3    3    0    0 -0.53197884838E-01 -0.73319625645E-01 -0.90180578828E-01  0.12938180430E+00  0.20033273056E-01 0.  0.
         14    1    1    2    0    0  0.12789785234E-01 -0.51102204154E-02 -0.18952738041E-01  0.23428598726E-01  0.00000000000E+00 0.  1.
     999901    1    3    3    0    0  0.40408099604E-01  0.78429846060E-01  0.10913331687E+00  0.89111959698E+00  0.88000000000E+00 0. -1.
        -11    1    4    4    0    0 -0.15061401666E-01 -0.80470929777E-02 -0.18913012473E-01  0.25486558955E-01  0.51100000000E-03 0. -1.
         11    1    4    4    0    0 -0.38136483172E-01 -0.65272532667E-01 -0.71267566355E-01  0.10389524534E+00  0.51100000000E-03 0.  1.
</event>
<event>
 8    1  0.1094829E+005  0.1043930E+01  0.7957747E-01            NaN
         13   -1    0    0    0    0  0.00000000000E+00  0.00000000000E+00  0.74505805969E-08  0.10566000000E+00  0.10566000000E+00 0. -1.
     999900   -1    0    0    0    0 -0.00000000000E+00 -0.00000000000E+00 -0.74505805969E-08  0.93827000000E+00  0.93827000000E+00 0. -1.
     999902    2    1    2    0    0 -0.15757333398E-01 -0.12234370955E-01 -0.17676006611E-02  0.10239025738E+01  0.10237066879E+01 0.  0.
     999903    2    3    3    0    0  0.10931065463E+00  0.55355121977E-01  0.43045800063E-01  0.13136765455E+00  0.19786637258E-01 0.  0.
         14    1    1    2    0    0  0.15757333398E-01  0.12234370955E-01  0.17676006611E-02  0.20027426209E-01  0.00000000000E+00 0. -1.
     999901    1    3    3    0    0 -0.12506798803E+00 -0.67589492932E-01 -0.44813400724E-01  0.89253491924E+00  0.88000000000E+00 0. -1.
        -11    1    4    4    0    0  0.56046162031E-01  0.29468584670E-01  0.11823529644E-01  0.64417596471E-01  0.51100000000E-03 0. -1.
         11    1    4    4    0    0  0.53264492597E-01  0.25886537307E-01  0.31222270419E-01  0.66950058077E-01  0.51100000000E-03 0.  1.
</event>
<event>
 8    1  0.1154908E+005  0.1043930E+01  0.7957747E-01            NaN
         13   -1    0    0    0    0  0.00000000000E+00  0.00000000000E+00  0.74505805969E-08  0.10566000000E+00  0.10566000000E+00 0. -1.
     999900   -1    0    0    0    0 -0.00000000000E+00 -0.00000000000E+00 -0.74505805969E-08  0.93827000000E+00  0.93827000000E+00 0. -1.
     999902    2    1    2    0    0 -0.15751025408E-02  0.21769767462E-01 -0.92581233725E-02  0.10202210023E+01  0.10199454775E+01 0.  0.
     999903    2    3    3    0    0  0.11978448683E+00 -0.38679945329E-01 -0.24206533671E-01  0.12971228664E+00  0.19871073897E-01 0.  0.
         14    1    1    2    0    0  0.15751025408E-02 -0.21769767462E-01  0.92581233725E-02  0.23708997695E-01  0.00000000000E+00 0. -1.
     999901    1    3    3    0    0 -0.12135958937E+00  0.60449712791E-01  0.14948410299E-01  0.89050871567E+00  0.88000000000E+00 0. -1.
        -11    1    4    4    0    0  0.51712482310E-01 -0.66762065767E-02 -0.78326664934E-02  0.52729160304E-01  0.51100000000E-03 0.  1.
         11    1    4    4    0    0  0.68072004515E-01 -0.32003738752E-01 -0.16373867178E-01  0.76983126334E-01  0.51100000000E-03 0. -1.
</event>
<event>
 8    1  0.1094829E+005  0.1043930E+01  0.7957747E-01            NaN
         13   -1    0    0    0    0  0.00000000000E+00  0.00000000000E+00  0.74505805969E-08  0.10566000000E+00  0.10566000000E+00 0.  1.
     999900   -1    0    0    0    0 -0.00000000000E+00 -0.00000000000E+00 -0.74505805969E-08  0.93827000000E+00  0.93827000000E+00 0.  1.
     999902    2    1    2    0    0  0.92717377811E-02 -0.77139744793E-02 -0.18624144344E-01  0.10217415058E+01  0.10215005508E+01 0.  0.
     999903    2    3    3    0    0 -0.47936355319E-01  0.19690517917E-02 -0.12294950833E+00  0.13368164940E+00  0.21270412818E-01 0.  0.
         14    1    1    2    0    0 -0.92717377811E-02  0.77139744793E-02  0.18624144344E-01  0.22188494232E-01  0.00000000000E+00 0.  1.
     999901    1    3    3    0    0  0.57208093100E-01 -0.96830262710E-02  0.10432536399E+00  0.88805985636E+00  0.88000000000E+00 0. -1.
        -11    1    4    4    0    0 -0.26725258465E-01  0.38015561797E-02 -0.93623715805E-01  0.97438968342E-01  0.51100000000E-03 0.  1.
         11    1    4    4    0    0 -0.21211096854E-01 -0.18325043880E-02 -0.29325792529E-01  0.36242681062E-01  0.51100000000E-03 0. -1.
</event>
<event>
 8    1  0.1094829E+005  0.1043930E+01  0.7957747E-01            NaN
         13   -1    0    0    0    0  0.00000000000E+00  0.00000000000E+00  0.74505805969E-08  0.10566000000E+00  0.10566000000E+00 0.  1.
     999900   -1    0    0    0    0 -0.00000000000E+00 -0.00000000000E+00 -0.74505805969E-08  0.93827000000E+00  0.93827000000E+00 0. -1.
     999902    2    1    2    0    0 -0.12033622115E-01 -0.10441354873E-01  0.17216601608E-01  0.10204727767E+01  0.10202031399E+01 0.  0.
     999903    2    3    3    0    0  0.50092318764E-01 -0.11802112106E+00 -0.18073383318E-01  0.13104688231E+00  0.20209224727E-01 0.  0.
         14    1    1    2    0    0  0.12033622115E-01  0.10441354873E-01 -0.17216601608E-01  0.23457223274E-01  0.00000000000E+00 0. -1.
     999901    1    3    3    0    0 -0.62125940879E-01  0.10757976618E+00  0.35289984927E-01  0.88942589442E+00  0.88000000000E+00 0. -1.
        -11    1    4    4    0    0  0.36436920095E-01 -0.86963843288E-01 -0.41819907609E-02  0.94382781020E-01  0.51100000000E-03 0.  1.
         11    1    4    4    0    0  0.13655398670E-01 -0.31057277768E-01 -0.13891392557E-01  0.36664101289E-01  0.51100000000E-03 0. -1.
</event>
<event>
 8    1  0.1094829E+005  0.1043930E+01  0.7957747E-01            NaN
         13   -1    0    0    0    0  0.00000000000E+00  0.00000000000E+00  0.74505805969E-08  0.10566000000E+00  0.10566000000E+00 0. -1.
     999900   -1    0    0    0    0 -0.00000000000E+00 -0.00000000000E+00 -0.74505805969E-08  0.93827000000E+00  0.93827000000E+00 0.  1.
     999902    2    1    2    0    0  0.10318241221E-01  0.13161314076E-01  0.18168002396E-01  0.10192366284E+01  0.10189374574E+01 0.  0.
     999903    2    3    3    0    0  0.95588355397E-01  0.65411234664E-01  0.61267923551E-01  0.13252435839E+00  0.19828862882E-01 0.  0.
         14    1    1    2    0    0 -0.10318241221E-01 -0.13161314076E-01 -0.18168002396E-01  0.24693371603E-01  0.00000000000E+00 0.  1.
     999901    1    3    3    0    0 -0.85270114176E-01 -0.52249920588E-01 -0.43099921156E-01  0.88671227000E+00  0.88000000000E+00 0.  1.
        -11    1    4    4    0    0  0.10708546696E-01  0.90057879751E-02  0.15250300004E-01  0.20702897397E-01  0.51100000000E-03 0. -1.
         11    1    4    4    0    0  0.84879808701E-01  0.56405446689E-01  0.46017623547E-01  0.11182146100E+00  0.51100000000E-03 0.  1.
</event>
<event>
 8    1  0.1094829E+005  0.1043930E+01  0.7957747E-01            NaN
         13   -1    0    0    0    0  0.00000000000E+00  0.00000000000E+00  0.74505805969E-08  0.10566000000E+00  0.10566000000E+00 0. -1.
     999900   -1    0    0    0    0 -0.00000000000E+00 -0.00000000000E+00 -0.74505805969E-08  0.93827000000E+00  0.93827000000E+00 0. -1.
     999902    2    1    2    0    0  0.33845118146E-02  0.35989070710E-02 -0.22368966415E-01  0.10210219728E+01  0.10207649539E+01 0.  0.
     999903    2    3    3    0    0 -0.20246631856E-01 -0.65106637885E-01  0.10668249066E+00  0.12864696113E+00  0.22805402789E-01 0.  0.
         14    1    1    2    0    0 -0.33845118146E-02 -0.35989070710E-02  0.22368966415E-01  0.22908027213E-01  0.00000000000E+00 0. -1.
     999901    1    3    3    0    0  0.23631143670E-01  0.68705544956E-01 -0.12905145707E+00  0.89237501166E+00  0.88000000000E+00 0. -1.
        -11    1    4    4    0    0 -0.53971156680E-02 -0.20886150810E-01  0.16681606263E-01  0.27274480045E-01  0.51100000000E-03 0. -1.
         11    1    4    4    0    0 -0.14849516188E-01 -0.44220487075E-01  0.90000884395E-01  0.10137248108E+00  0.51100000000E-03 0.  1.
</event>
<event>
 8    1  0.1094829E+005  0.1043930E+01  0.7957747E-01            NaN
         13   -1    0    0    0    0  0.00000000000E+00  0.00000000000E+00  0.74505805969E-08  0.10566000000E+00  0.10566000000E+00 0.  1.
     999900   -1    0    0    0    0 -0.00000000000E+00 -0.00000000000E+00 -0.74505805969E-08  0.93827000000E+00  0.93827000000E+00 0.  1.
     999902    2    1    2    0    0 -0.51954540795E-02  0.17094591033E-01 -0.93762826913E-02  0.10237524763E+01  0.10235536138E+01 0.  0.
     999903    2    3    3    0    0 -0.42152022698E-02 -0.12980853715E+00 -0.47894204482E-02  0.13156273792E+00  0.20439941648E-01 0.  0.
         14    1    1    2    0    0  0.51954540795E-02 -0.17094591033E-01  0.93762826913E-02  0.20177523703E-01  0.00000000000E+00 0.  1.
     999901    1    3    3    0    0 -0.98025180967E-03  0.14690312818E+00 -0.45868622431E-02  0.89218973838E+00  0.88000000000E+00 0.  1.
        -11    1    4    4    0    0 -0.12714510661E-02 -0.38854863175E-01 -0.10831550969E-01  0.40359640701E-01  0.51100000000E-03 0.  1.
         11    1    4    4    0    0 -0.29437512037E-02 -0.90953673971E-01  0.60421305209E-02  0.91203097218E-01  0.51100000000E-03 0. -1.
</event>
<event>
 8    1  0.1094829E+005  0.1043930E+01  0.7957747E-01            NaN
         13   -1    0    0    0    0  0.00000000000E+00  0.00000000000E+00  0.74505805969E-08  0.10566000000E+00  0.10566000000E+00 0.  1.
     999900   -1    0    0    0    0 -0.00000000000E+00 -0.00000000000E+00 -0.74505805969E-08  0.93827000000E+00  0.93827000000E+00 0. -1.
     999902    2    1    2    0    0  0.73793047691E-02  0.69327579568E-02  0.14818343346E-01  0.10259828395E+01  0.10258258557E+01 0.  0.
     999903    2    3    3    0    0  0.81133742159E-01  0.98223175115E-01  0.47763374686E-01  0.13758032236E+00  0.20409039518E-01 0.  0.
         14    1    1    2    0    0 -0.73793047691E-02 -0.69327579568E-02 -0.14818343346E-01  0.17947160535E-01  0.00000000000E+00 0. -1.
     999901    1    3    3    0    0 -0.73754437390E-01 -0.91290417158E-01 -0.32945031341E-01  0.88840251710E+00  0.88000000000E+00 0. -1.
        -11    1    4    4    0    0  0.74181437338E-01  0.95153677013E-01  0.48258991596E-01  0.12994729426E+00  0.51100000000E-03 0. -1.
         11    1    4    4    0    0  0.69523048215E-02  0.30694981023E-02 -0.49561690921E-03  0.76330281050E-02  0.51100000000E-03 0.  1.
</event>
<event>
 8    1  0.1094829E+005  0.1043930E+01  0.7957747E-01            NaN
         13   -1    0    0    0    0  0.00000000000E+00  0.00000000000E+00  0.74505805969E-08  0.10566000000E+00  0.10566000000E+00 0.  1.
     999900   -1    0    0    0    0 -0.00000000000E+00 -0.00000000000E+00 -0.74505805969E-08  0.93827000000E+00  0.93827000000E+00 0.  1.
     999902    2    1    2    0    0 -0.25623464319E-02  0.19806950790E-01  0.12040366889E-01  0.10206093792E+01  0.10203429098E+01 0.  0.
     999903    2    3    3    0    0 -0.80963636497E-01  0.39652795108E-01  0.95482863535E-01  0.13297022389E+00  0.20896138838E-01 0.  0.
         14    1    1    2    0    0  0.25623464319E-02 -0.19806950790E-01 -0.12040366889E-01  0.23320620782E-01  0.00000000000E+00 0. -1.
     999901    1    3    3    0    0  0.78401290065E-01 -0.19845844318E-01 -0.83442496646E-01  0.88763915533E+00  0.88000000000E+00 0.  1.
        -11    1    4    4    0    0 -0.51949471053E-01  0.35824101076E-01  0.68872928152E-01  0.93412285668E-01  0.51100000000E-03 0. -1.
         11    1    4    4    0    0 -0.29014165444E-01  0.38286940322E-02  0.26609935383E-01  0.39557938224E-01  0.51100000000E-03 0.  1.
</event>
<event>
 8    1  0.1094829E+005  0.1043930E+01  0.7957747E-01            NaN
         13   -1    0    0    0    0  0.00000000000E+00  0.00000000000E+00  0.74505805969E-08  0.10566000000E+00  0.10566000000E+00 0.  1.
     999900   -1    0    0    0    0 -0.00000000000E+00 -0.00000000000E+00 -0.74505805969E-08  0.93827000000E+00  0.93827000000E+00 0. -1.
     999902    2    1    2    0    0  0.16824822112E-01  0.11222500994E-01  0.13658555812E-01  0.10195255882E+01  0.10192334618E+01 0.  0.
     999903    2    3    3    0    0  0.12026840720E+00 -0.30900808413E-01 -0.36302770325E-01  0.13106001060E+00  0.20963909824E-01 0.  0.
         14    1    1    2    0    0 -0.16824822112E-01 -0.11222500994E-01 -0.13658555812E-01  0.24404411784E-01  0.00000000000E+00 0.  1.
     999901    1    3    3    0    0 -0.10344358509E+00  0.42123309407E-01  0.49961326137E-01  0.88846557761E+00  0.88000000000E+00 0.  1.
        -11    1    4    4    0    0  0.85449326554E-01 -0.30587364851E-01 -0.21834221086E-01  0.93349711454E-01  0.51100000000E-03 0.  1.
         11    1    4    4    0    0  0.34819080646E-01 -0.31344356269E-03 -0.14468549239E-01  0.37710299150E-01  0.51100000000E-03 0. -1.
</event>
<event>
 8    1  0.1094829E+005  0.1043930E+01  0.7957747E-01            NaN
         13   -1    0    0    0    0  0.00000000000E+00  0.00000000000E+00  0.74505805969E-08  0.10566000000E+00  0.10566000000E+00 0. -1.
     999900   -1    0    0    0    0 -0.00000000000E+00 -0.00000000000E+00 -0.74505805969E-08  0.93827000000E+00  0.93827000000E+00 0. -1.
     999902    2    1    2    0    0 -0.12771537195E-01 -0.18870442595E-01  0.80608153269E-02  0.10197601322E+01  0.10194736606E+01 0.  0.
     999903    2    3    3    0    0 -0.35390635600E-01 -0.95058199818E-02 -0.12254636068E+00  0.12978397847E+00  0.21986651608E-01 0.  0.
         14    1    1    2    0    0  0.12771537195E-01  0.18870442595E-01 -0.80608153269E-02  0.24169867806E-01  0.00000000000E+00 0. -1.
     999901    1    3    3    0    0  0.22619098404E-01 -0.93646226128E-02  0.13060717601E+00  0.88997615372E+00  0.88000000000E+00 0.  1.
        -11    1    4    4    0    0 -0.15051180775E-01  0.67984700469E-02 -0.42529436963E-01  0.45626432768E-01  0.51100000000E-03 0. -1.
         11    1    4    4    0    0 -0.20339454825E-01 -0.16304290029E-01 -0.80016923722E-01  0.84157545703E-01  0.51100000000E-03 0.  1.
</event>
<event>
 8    1  0.1094829E+005  0.1043930E+01  0.7957747E-01            NaN
         13   -1    0    0    0    0  0.00000000000E+00  0.00000000000E+00  0.74505805969E-08  0.10566000000E+00  0.10566000000E+00 0.  1.
     999900   -1    0    0    0    0 -0.00000000000E+00 -0.00000000000E+00 -0.74505805969E-08  0.93827000000E+00  0.93827000000E+00 0. -1.
     999902    2    1    2    0    0  0.86686543509E-02 -0.63601805648E-02 -0.21043002005E-01  0.10202993970E+01  0.10200257125E+01 0.  0.
     999903    2    3    3    0    0  0.60552116080E-01 -0.10982596632E+00 -0.38388237409E-01  0.13255060391E+00  0.19175614356E-01 0.  0.
         14    1    1    2    0    0 -0.86686543509E-02  0.63601805648E-02  0.21043002005E-01  0.23630603007E-01  0.00000000000E+00 0.  1.
     999901    1    3    3    0    0 -0.51883461729E-01  0.10346578576E+00  0.17345235404E-01  0.88774879308E+00  0.88000000000E+00 0.  1.
        -11    1    4    4    0    0  0.46039432333E-01 -0.69320560488E-01 -0.31462583349E-01  0.88966986619E-01  0.51100000000E-03 0. -1.
         11    1    4    4    0    0  0.14512683747E-01 -0.40505405834E-01 -0.69256540602E-02  0.43583617295E-01  0.51100000000E-03 0.  1.
</event>
<event>
 8    1  0.1094829E+005  0.1043930E+01  0.7957747E-01            NaN
         13   -1    0    0    0    0  0.00000000000E+00  0.00000000000E+00  0.74505805969E-08  0.10566000000E+00  0.10566000000E+00 0. -1.
     999900   -1    0    0    0    0 -0.00000000000E+00 -0.00000000000E+00 -0.74505805969E-08  0.93827000000E+00  0.93827000000E+00 0. -1.
     999902    2    1    2    0    0 -0.96078336248E-02  0.13132183863E-01  0.14528594703E-01  0.10221161332E+01  0.10218833324E+01 0.  0.
     999903    2    3    3    0    0 -0.11092526713E+00 -0.47995327143E-01  0.53208416396E-01  0.13335411584E+00  0.18553121554E-01 0.  0.
         14    1    1    2    0    0  0.96078336248E-02 -0.13132183863E-01 -0.14528594703E-01  0.21813866783E-01  0.00000000000E+00 0.  1.
     999901    1    3    3    0    0  0.10131743351E+00  0.61127511006E-01 -0.38679821693E-01  0.88876201738E+00  0.88000000000E+00 0.  1.
        -11    1    4    4    0    0 -0.41921435693E-01 -0.13731680865E-01  0.10838247604E-01  0.45427905103E-01  0.51100000000E-03 0. -1.
         11    1    4    4    0    0 -0.69003831437E-01 -0.34263646278E-01  0.42370168792E-01  0.87926210732E-01  0.51100000000E-03 0.  1.
</event>
<event>
 8    1  0.1094829E+005  0.1043930E+01  0.7957747E-01            NaN
         13   -1    0    0    0    0  0.00000000000E+00  0.00000000000E+00  0.74505805969E-08  0.10566000000E+00  0.10566000000E+00 0. -1.
     999900   -1    0    0    0    0 -0.00000000000E+00 -0.00000000000E+00 -0.74505805969E-08  0.93827000000E+00  0.93827000000E+00 0.  1.
     999902    2    1    2    0    0  0.14037104624E-01  0.98346509823E-02 -0.15628002597E-01  0.10207352779E+01  0.10204717108E+01 0.  0.
     999903    2    3    3    0    0 -0.98199222177E-01 -0.74569811583E-01 -0.33775020101E-01  0.12941579504E+00  0.20098556855E-01 0.  0.
         14    1    1    2    0    0 -0.14037104624E-01 -0.98346509823E-02  0.15628002597E-01  0.23194722058E-01  0.00000000000E+00 0. -1.
     999901    1    3    3    0    0  0.11223632680E+00  0.84404462565E-01  0.18147017504E-01  0.89131948290E+00  0.88000000000E+00 0.  1.
        -11    1    4    4    0    0 -0.78378957630E-01 -0.63864573288E-01 -0.34619201299E-01  0.10686765151E+00  0.51100000000E-03 0.  1.
         11    1    4    4    0    0 -0.19820264547E-01 -0.10705238295E-01  0.84418119773E-03  0.22548143528E-01  0.51100000000E-03 0. -1.
</event>
<event>
 8    1  0.1094829E+005  0.1043930E+01  0.7957747E-01            NaN
         13   -1    0    0    0    0  0.00000000000E+00  0.00000000000E+00  0.74505805969E-08  0.10566000000E+00  0.10566000000E+00 0.  1.
     999900   -1    0    0    0    0 -0.00000000000E+00 -0.00000000000E+00 -0.74505805969E-08  0.93827000000E+00  0.93827000000E+00 0.  1.
     999902    2    1    2    0    0  0.13512628794E-01  0.11710539601E-01  0.14804140271E-01  0.10207159860E+01  0.10204519752E+01 0.  0.
     999903    2    3    3    0    0 -0.39803086916E-01  0.51818543763E-01  0.11378975217E+00  0.13265665869E+00  0.19499594637E-01 0.  0.
         14    1    1    2    0    0 -0.13512628794E-01 -0.11710539601E-01 -0.14804140271E-01  0.23214013953E-01  0.00000000000E+00 0. -1.
     999901    1    3    3    0    0  0.53315715710E-01 -0.40108004162E-01 -0.98985611897E-01  0.88805932736E+00  0.88000000000E+00 0.  1.
        -11    1    4    4    0    0 -0.34546558420E-01  0.30699725198E-01  0.72492073503E-01  0.85972668143E-01  0.51100000000E-03 0. -1.
         11    1    4    4    0    0 -0.52565284961E-02  0.21118818565E-01  0.41297678665E-01  0.46683990549E-01  0.51100000000E-03 0.  1.
</event>
<event>
 8    1  0.1094829E+005  0.1043930E+01  0.7957747E-01            NaN
         13   -1    0    0    0    0  0.00000000000E+00  0.00000000000E+00  0.74505805969E-08  0.10566000000E+00  0.10566000000E+00 0.  1.
     999900   -1    0    0    0    0 -0.00000000000E+00 -0.00000000000E+00 -0.74505805969E-08  0.93827000000E+00  0.93827000000E+00 0.  1.
     999902    2    1    2    0    0 -0.55702579745E-02  0.21473646346E-01  0.83054811632E-02  0.10202418958E+01  0.10199668621E+01 0.  0.
     999903    2    3    3    0    0  0.52178804758E-01 -0.11004183202E+00 -0.33092215964E-01  0.12763613481E+00  0.19080243469E-01 0.  0.
         14    1    1    2    0    0  0.55702579745E-02 -0.21473646346E-01 -0.83054811632E-02  0.23688104159E-01  0.00000000000E+00 0. -1.
     999901    1    3    3    0    0 -0.57749062732E-01  0.13151547837E+00  0.41397697127E-01  0.89260576103E+00  0.88000000000E+00 0. -1.
        -11    1    4    4    0    0  0.19550903066E-01 -0.31145455102E-01 -0.17956508699E-01  0.40926452446E-01  0.51100000000E-03 0.  1.
         11    1    4    4    0    0  0.32627901692E-01 -0.78896376923E-01 -0.15135707264E-01  0.86709682365E-01  0.51100000000E-03 0. -1.
</event>
<event>
 8    1  0.1094829E+005  0.1043930E+01  0.7957747E-01            NaN
         13   -1    0    0    0    0  0.00000000000E+00  0.00000000000E+00  0.74505805969E-08  0.10566000000E+00  0.10566000000E+00 0. -1.
     999900   -1    0    0    0    0 -0.00000000000E+00 -0.00000000000E+00 -0.74505805969E-08  0.93827000000E+00  0.93827000000E+00 0. -1.
     999902    2    1    2    0    0  0.59948282050E-03  0.72019924315E-02  0.22042357095E-01  0.10207331558E+01  0.10204695399E+01 0.  0.
     999903    2    3    3    0    0 -0.25933278387E-01 -0.11072623632E+00 -0.57512581897E-01  0.12891476460E+00  0.19454693980E-01 0.  0.
         14    1    1    2    0    0 -0.59948282050E-03 -0.72019924315E-02 -0.22042357095E-01  0.23196844202E-01  0.00000000000E+00 0.  1.
     999901    1    3    3    0    0  0.26532761207E-01  0.11792822876E+00  0.79554938993E-01  0.89181839119E+00  0.88000000000E+00 0.  1.
        -11    1    4    4    0    0 -0.19923148250E-01 -0.73658337445E-01 -0.48086180457E-01  0.90194370020E-01  0.51100000000E-03 0. -1.
         11    1    4    4    0    0 -0.60101301365E-02 -0.37067898879E-01 -0.94264014398E-02  0.38720394583E-01  0.51100000000E-03 0.  1.
</event>
<event>
 8    1  0.1094829E+005  0.1043930E+01  0.7957747E-01            NaN
         13   -1    0    0    0    0  0.00000000000E+00  0.00000000000E+00  0.74505805969E-08  0.10566000000E+00  0.10566000000E+00 0. -1.
     999900   -1    0    0    0    0 -0.00000000000E+00 -0.00000000000E+00 -0.74505805969E-08  0.93827000000E+00  0.93827000000E+00 0.  1.
     999902    2    1    2    0    0 -0.15558393849E-01  0.13770474008E-01 -0.11018203042E-01  0.10204121265E+01  0.10201410773E+01 0.  0.
     999903    2    3    3    0    0 -0.12141217574E-01  0.10267839987E+00  0.78553161132E-01  0.13140181971E+00  0.20138920914E-01 0.  0.
         14    1    1    2    0    0  0.15558393849E-01 -0.13770474008E-01  0.11018203042E-01  0.23517873455E-01  0.00000000000E+00 0. -1.
     999901    1    3    3    0    0 -0.34171762744E-02 -0.88907925863E-01 -0.89571364174E-01  0.88901030683E+00  0.88000000000E+00 0.  1.
        -11    1    4    4    0    0 -0.97674123420E-02  0.26715918007E-01  0.14109763830E-01  0.31756718583E-01  0.51100000000E-03 0.  1.
         11    1    4    4    0    0 -0.23738052323E-02  0.75962481864E-01  0.64443397302E-01  0.99645101129E-01  0.51100000000E-03 0. -1.
</event>
<event>
 8    1  0.1094829E+005  0.1043930E+01  0.7957747E-01            NaN
         13   -1    0    0    0    0  0.00000000000E+00  0.00000000000E+00  0.74505805969E-08  0.10566000000E+00  0.10566000000E+00 0. -1.
     999900   -1    0    0    0    0 -0.00000000000E+00 -0.00000000000E+00 -0.74505805969E-08  0.93827000000E+00  0.93827000000E+00 0.  1.
     999902    2    1    2    0    0  0.57541111319E-02  0.21945555159E-01 -0.60695181809E-02  0.10204447656E+01  0.10201744769E+01 0.  0.
     999903    2    3    3    0    0  0.60719246172E-01 -0.77694084579E-01  0.80627548209E-01  0.12889240859E+00  0.19729516680E-01 0.  0.
         14    1    1    2    0    0 -0.57541111319E-02 -0.21945555159E-01  0.60695181809E-02  0.23485234449E-01  0.00000000000E+00 0. -1.
     999901    1    3    3    0    0 -0.54965135040E-01  0.99639639738E-01 -0.86697066390E-01  0.89155235696E+00  0.88000000000E+00 0.  1.
        -11    1    4    4    0    0  0.16248122060E-01 -0.10626757155E-01  0.10117215299E-01  0.21898598232E-01  0.51100000000E-03 0. -1.
         11    1    4    4    0    0  0.44471124112E-01 -0.67067327424E-01  0.70510332910E-01  0.10699381036E+00  0.51100000000E-03 0.  1.
</event>
<event>
 8    1  0.1094829E+005  0.1043930E+01  0.7957747E-01            NaN
         13   -1    0    0    0    0  0.00000000000E+00  0.00000000000E+00  0.74505805969E-08  0.10566000000E+00  0.10566000000E+00 0. -1.
     999900   -1    0    0    0    0 -0.00000000000E+00 -0.00000000000E+00 -0.74505805969E-08  0.93827000000E+00  0.93827000000E+00 0.  1.
     999902    2    1    2    0    0 -0.18237003149E-01 -0.78337632524E-02  0.13230425828E-01  0.10200762729E+01  0.10197973339E+01 0.  0.
     999903    2    3    3    0    0 -0.10676281287E+00 -0.64461371271E-01  0.42966832419E-01  0.13332503444E+00  0.19386838890E-01 0.  0.
         14    1    1    2    0    0  0.18237003149E-01  0.78337632524E-02 -0.13230425828E-01  0.23853727133E-01  0.00000000000E+00 0.  1.
     999901    1    3    3    0    0  0.88525809721E-01  0.56627608018E-01 -0.29736406591E-01  0.88675123843E+00  0.88000000000E+00 0.  1.
        -11    1    4    4    0    0 -0.57765290323E-01 -0.39419159918E-01  0.33281485471E-01  0.77450741319E-01  0.51100000000E-03 0. -1.
         11    1    4    4    0    0 -0.48997522547E-01 -0.25042211353E-01  0.96853469481E-02  0.55874293121E-01  0.51100000000E-03 0.  1.
</event>
<event>
 8    1  0.1094829E+005  0.1043930E+01  0.7957747E-01            NaN
         13   -1    0    0    0    0  0.00000000000E+00  0.00000000000E+00  0.74505805969E-08  0.10566000000E+00  0.10566000000E+00 0. -1.
     999900   -1    0    0    0    0 -0.00000000000E+00 -0.00000000000E+00 -0.74505805969E-08  0.93827000000E+00  0.93827000000E+00 0.  1.
     999902    2    1    2    0    0  0.60661513902E-03 -0.96144813523E-02  0.20451923696E-01  0.10213227574E+01  0.10210725182E+01 0.  0.
     999903    2    3    3    0    0 -0.76596259881E-01 -0.10611808282E+00  0.73948812736E-02  0.13259123703E+00  0.19942851828E-01 0.  0.
         14    1    1    2    0    0 -0.60661513902E-03  0.96144813523E-02 -0.20451923696E-01  0.22607242567E-01  0.00000000000E+00 0.  1.
     999901    1    3    3    0    0  0.77202875020E-01  0.96503601463E-01  0.13057042423E-01  0.88873152041E+00  0.88000000000E+00 0.  1.
        -11    1    4    4    0    0 -0.31226200081E-01 -0.28354356813E-01  0.54967181352E-02  0.42538454991E-01  0.51100000000E-03 0. -1.
         11    1    4    4    0    0 -0.45370059800E-01 -0.77763726003E-01  0.18981631383E-02  0.90052782036E-01  0.51100000000E-03 0.  1.
</event>
<event>
 8    1  0.1094829E+005  0.1043930E+01  0.7957747E-01            NaN
         13   -1    0    0    0    0  0.00000000000E+00  0.00000000000E+00  0.74505805969E-08  0.10566000000E+00  0.10566000000E+00 0.  1.
     999900   -1    0    0    0    0 -0.00000000000E+00 -0.00000000000E+00 -0.74505805969E-08  0.93827000000E+00  0.93827000000E+00 0. -1.
     999902    2    1    2    0    0  0.19580698481E-01  0.58201956465E-02 -0.11064106804E-01  0.10206987088E+01  0.10204343003E+01 0.  0.
     999903    2    3    3    0    0 -0.12400840645E+00 -0.83845721511E-02 -0.27595527806E-01  0.12879462521E+00  0.19446244039E-01 0.  0.
         14    1    1    2    0    0 -0.19580698481E-01 -0.58201956465E-02  0.11064106804E-01  0.23231291177E-01  0.00000000000E+00 0.  1.
     999901    1    3    3    0    0  0.14358910493E+00  0.14204767798E-01  0.16531421002E-01  0.89190408361E+00  0.88000000000E+00 0.  1.
        -11    1    4    4    0    0 -0.28359685956E-01  0.33688631286E-02 -0.12782272151E-01  0.31293268105E-01  0.51100000000E-03 0. -1.
         11    1    4    4    0    0 -0.95648720497E-01 -0.11753435280E-01 -0.14813255655E-01  0.97501357107E-01  0.51100000000E-03 0.  1.
</event>
<event>
 8    1  0.1094829E+005  0.1043930E+01  0.7957747E-01            NaN
         13   -1    0    0    0    0  0.00000000000E+00  0.00000000000E+00  0.74505805969E-08  0.10566000000E+00  0.10566000000E+00 0.  1.
     999900   -1    0    0    0    0 -0.00000000000E+00 -0.00000000000E+00 -0.74505805969E-08  0.93827000000E+00  0.93827000000E+00 0.  1.
     999902    2    1    2    0    0  0.64486959145E-03 -0.10286258546E-01 -0.17024778881E-01  0.10240285913E+01  0.10238351868E+01 0.  0.
     999903    2    3    3    0    0  0.12151944328E+00 -0.13123961338E-01 -0.53760768174E-01  0.13500201802E+00  0.19902543004E-01 0.  0.
         14    1    1    2    0    0 -0.64486959145E-03  0.10286258546E-01  0.17024778881E-01  0.19901408684E-01  0.00000000000E+00 0. -1.
     999901    1    3    3    0    0 -0.12087457369E+00  0.28377027924E-02  0.36735989293E-01  0.88902657330E+00  0.88000000000E+00 0. -1.
        -11    1    4    4    0    0  0.97851116252E-01 -0.18357502568E-01 -0.42027013335E-01  0.10806650648E+00  0.51100000000E-03 0.  1.
         11    1    4    4    0    0  0.23668327028E-01  0.52335412300E-02 -0.11733754839E-01  0.26935511536E-01  0.51100000000E-03 0. -1.
</event>
<event>
 8    1  0.1094829E+005  0.1043930E+01  0.7957747E-01            NaN
         13   -1    0    0    0    0  0.00000000000E+00  0.00000000000E+00  0.74505805969E-08  0.10566000000E+00  0.10566000000E+00 0. -1.
     999900   -1    0    0    0    0 -0.00000000000E+00 -0.00000000000E+00 -0.74505805969E-08  0.93827000000E+00  0.93827000000E+00 0. -1.
     999902    2    1    2    0    0 -0.87943915598E-02  0.20808439660E-01 -0.57510026491E-02  0.10206189186E+01  0.10203526697E+01 0.  0.
     999903    2    3    3    0    0  0.10022339540E+00 -0.63310921098E-01  0.45220519030E-01  0.12845355235E+00  0.20060360292E-01 0.  0.
         14    1    1    2    0    0  0.87943915598E-02 -0.20808439660E-01  0.57510026491E-02  0.23311081388E-01  0.00000000000E+00 0.  1.
     999901    1    3    3    0    0 -0.10901778696E+00  0.84119360758E-01 -0.50971521679E-01  0.89216536626E+00  0.88000000000E+00 0. -1.
        -11    1    4    4    0    0  0.41514914793E-01 -0.36608197201E-01  0.15807075670E-01  0.57565380350E-01  0.51100000000E-03 0.  1.
         11    1    4    4    0    0  0.58708480609E-01 -0.26702723897E-01  0.29413443360E-01  0.70888172005E-01  0.51100000000E-03 0. -1.
</event>
<event>
 8    1  0.1094829E+005  0.1043930E+01  0.7957747E-01            NaN
         13   -1    0    0    0    0  0.00000000000E+00  0.00000000000E+00  0.74505805969E-08  0.10566000000E+00  0.10566000000E+00 0. -1.
     999900   -1    0    0    0    0 -0.00000000000E+00 -0.00000000000E+00 -0.74505805969E-08  0.93827000000E+00  0.93827000000E+00 0.  1.
     999902    2    1    2    0    0  0.12090052369E-01  0.15228291276E-01 -0.14128485396E-01  0.10198949356E+01  0.10196116885E+01 0.  0.
     999903    2    3    3    0    0  0.65185253344E-01  0.19392989866E-01 -0.11166095792E+00  0.13290619368E+00  0.23888940634E-01 0.  0.
         14    1    1    2    0    0 -0.12090052369E-01 -0.15228291276E-01  0.14128485396E-01  0.24035064407E-01  0.00000000000E+00 0. -1.
     999901    1    3    3    0    0 -0.53095200975E-01 -0.41646985900E-02  0.97532472529E-01  0.88698874191E+00  0.88000000000E+00 0. -1.
        -11    1    4    4    0    0  0.35517341368E-01  0.22080328442E-01 -0.72513410313E-01  0.83710681744E-01  0.51100000000E-03 0. -1.
         11    1    4    4    0    0  0.29667911977E-01 -0.26873385760E-02 -0.39147547612E-01  0.49195511937E-01  0.51100000000E-03 0.  1.
</event>
<event>
 8    1  0.1094829E+005  0.1043930E+01  0.7957747E-01            NaN
         13   -1    0    0    0    0  0.00000000000E+00  0.00000000000E+00  0.74505805969E-08  0.10566000000E+00  0.10566000000E+00 0. -1.
     999900   -1    0    0    0    0 -0.00000000000E+00 -0.00000000000E+00 -0.74505805969E-08  0.93827000000E+00  0.93827000000E+00 0.  1.
     999902    2    1    2    0    0 -0.76664543174E-02 -0.20661037329E-01 -0.17658349019E-02  0.10218218305E+01  0.10215826360E+01 0.  0.
     999903    2    3    3    0    0  0.61156433925E-01  0.26833786096E-02  0.11410283378E+00  0.13125622367E+00  0.21480913478E-01 0.  0.
         14    1    1    2    0    0  0.76664543174E-02  0.20661037329E-01  0.17658349019E-02  0.22108169490E-01  0.00000000000E+00 0. -1.
     999901    1    3    3    0    0 -0.68822888243E-01 -0.23344415938E-01 -0.11586866869E+00  0.89056560684E+00  0.88000000000E+00 0.  1.
        -11    1    4    4    0    0  0.10582705466E-01  0.59363498333E-02  0.11068290805E-01  0.16431740220E-01  0.51100000000E-03 0.  1.
         11    1    4    4    0    0  0.50573728459E-01 -0.32529712237E-02  0.10303454298E+00  0.11482448345E+00  0.51100000000E-03 0. -1.
</event>
<event>
 8    1  0.1094829E+005  0.1043930E+01  0.7957747E-01            NaN
         13   -1    0    0    0    0  0.00000000000E+00  0.00000000000E+00  0.74505805969E-08  0.10566000000E+00  0.10566000000E+00 0. -1.
     999900   -1    0    0    0    0 -0.00000000000E+00 -0.00000000000E+00 -0.74505805969E-08  0.93827000000E+00  0.93827000000E+00 0.  1.
     999902    2    1    2    0    0  0.17237973183E-01  0.61879165303E-02 -0.22043741920E-01  0.10152705410E+01  0.10148659551E+01 0.  0.
     999903    2    3    3    0    0  0.15882103443E-01 -0.38216106791E-01  0.11468430601E+00  0.12360461998E+00  0.20319941139E-01 0.  0.
         14    1    1    2    0    0 -0.17237973183E-01 -0.61879165303E-02  0.22043741920E-01  0.28659458967E-01  0.00000000000E+00 0.  1.
     999901    1    3    3    0    0  0.13558697395E-02  0.44404023321E-01 -0.13672804793E+00  0.89166592105E+00  0.88000000000E+00 0.  1.
        -11    1    4    4    0    0  0.20674770537E-01 -0.28089908124E-01  0.87740099381E-01  0.94419676104E-01  0.51100000000E-03 0.  1.
         11    1    4    4    0    0 -0.47926670939E-02 -0.10126198667E-01  0.26944206631E-01  0.29184943880E-01  0.51100000000E-03 0. -1.
</event>
<event>
 8    1  0.1094829E+005  0.1043930E+01  0.7957747E-01            NaN
         13   -1    0    0    0    0  0.00000000000E+00  0.00000000000E+00  0.74505805969E-08  0.10566000000E+00  0.10566000000E+00 0.  1.
     999900   -1    0    0    0    0 -0.00000000000E+00 -0.00000000000E+00 -0.74505805969E-08  0.93827000000E+00  0.93827000000E+00 0.  1.
     999902    2    1    2    0    0  0.11518092540E-01 -0.19641185183E-01  0.48151805364E-02  0.10206570850E+01  0.10203917172E+01 0.  0.
     999903    2    3    3    0    0  0.70579679545E-02 -0.50975654253E-01  0.12053833080E+00  0.13251656163E+00  0.19565727094E-01 0.  0.
         14    1    1    2    0    0 -0.11518092540E-01  0.19641185183E-01 -0.48151805364E-02  0.23272915046E-01  0.00000000000E+00 0.  1.
     999901    1    3    3    0    0  0.44601245856E-02  0.31334469069E-01 -0.11572315026E+00  0.88814052332E+00  0.88000000000E+00 0.  1.
        -11    1    4    4    0    0  0.13242433950E-01 -0.27502810068E-01  0.73314765412E-01  0.79417142777E-01  0.51100000000E-03 0. -1.
         11    1    4    4    0    0 -0.61844659951E-02 -0.23472844185E-01  0.47223565386E-01  0.53099418853E-01  0.51100000000E-03 0.  1.
</event>
<event>
 8    1  0.1094829E+005  0.1043930E+01  0.7957747E-01            NaN
         13   -1    0    0    0    0  0.00000000000E+00  0.00000000000E+00  0.74505805969E-08  0.10566000000E+00  0.10566000000E+00 0. -1.
     999900   -1    0    0    0    0 -0.00000000000E+00 -0.00000000000E+00 -0.74505805969E-08  0.93827000000E+00  0.93827000000E+00 0. -1.
     999902    2    1    2    0    0  0.19254027000E-01  0.14187859277E-01 -0.14918166425E-01  0.10157419778E+01  0.10153507772E+01 0.  0.
     999903    2    3    3    0    0 -0.81771196528E-01 -0.71764956336E-01  0.53782059082E-01  0.12315377303E+00  0.20918995960E-01 0.  0.
         14    1    1    2    0    0 -0.19254027000E-01 -0.14187859277E-01  0.14918166425E-01  0.28188022209E-01  0.00000000000E+00 0. -1.
     999901    1    3    3    0    0  0.10102522353E+00  0.85952815613E-01 -0.68700225507E-01  0.89258820476E+00  0.88000000000E+00 0. -1.
        -11    1    4    4    0    0 -0.48612474736E-01 -0.40392224864E-01  0.19770105381E-01  0.66225544296E-01  0.51100000000E-03 0. -1.
         11    1    4    4    0    0 -0.33158721792E-01 -0.31372731472E-01  0.34011953701E-01  0.56928228730E-01  0.51100000000E-03 0.  1.
</event>
<event>
 8    1  0.1094829E+005  0.1043930E+01  0.7957747E-01            NaN
         13   -1    0    0    0    0  0.00000000000E+00  0.00000000000E+00  0.74505805969E-08  0.10566000000E+00  0.10566000000E+00 0. -1.
     999900   -1    0    0    0    0 -0.00000000000E+00 -0.00000000000E+00 -0.74505805969E-08  0.93827000000E+00  0.93827000000E+00 0.  1.
     999902    2    1    2    0    0  0.13322902072E-01 -0.13549463703E-01  0.15526117856E-01  0.10193912954E+01  0.10190959058E+01 0.  0.
     999903    2    3    3    0    0 -0.75108850931E-01  0.51525383492E-01 -0.85388450510E-01  0.12684512812E+00  0.22411925725E-01 0.  0.
         14    1    1    2    0    0 -0.13322902072E-01  0.13549463703E-01 -0.15526117856E-01  0.24538704569E-01  0.00000000000E+00 0.  1.
     999901    1    3    3    0    0  0.88431753003E-01 -0.65074847195E-01  0.10091456837E+00  0.89254616731E+00  0.88000000000E+00 0. -1.
        -11    1    4    4    0    0 -0.42701255087E-01  0.40342951506E-01 -0.61549936572E-01  0.85085878589E-01  0.51100000000E-03 0.  1.
         11    1    4    4    0    0 -0.32407595843E-01  0.11182431986E-01 -0.23838513938E-01  0.41759249529E-01  0.51100000000E-03 0. -1.
</event>
<event>
 8    1  0.1094829E+005  0.1043930E+01  0.7957747E-01            NaN
         13   -1    0    0    0    0  0.00000000000E+00  0.00000000000E+00  0.74505805969E-08  0.10566000000E+00  0.10566000000E+00 0.  1.
     999900   -1    0    0    0    0 -0.00000000000E+00 -0.00000000000E+00 -0.74505805969E-08  0.93827000000E+00  0.93827000000E+00 0.  1.
     999902    2    1    2    0    0 -0.52393522755E-03 -0.96766720799E-02  0.22367300087E-01  0.10195536056E+01  0.10192621577E+01 0.  0.
     999903    2    3    3    0    0 -0.85096145403E-01  0.75302998346E-01 -0.55785519987E-01  0.12799212909E+00  0.18922614664E-01 0.  0.
         14    1    1    2    0    0  0.52393522755E-03  0.96766720799E-02 -0.22367300087E-01  0.24376394398E-01  0.00000000000E+00 0. -1.
     999901    1    3    3    0    0  0.84572210176E-01 -0.84979670426E-01  0.78152820074E-01  0.89156147651E+00  0.88000000000E+00 0.  1.
        -11    1    4    4    0    0 -0.77709845778E-01  0.68766496338E-01 -0.56383724254E-01  0.11809757250E+00  0.51100000000E-03 0.  1.
         11    1    4    4    0    0 -0.73862996254E-02  0.65365020081E-02  0.59820426639E-03  0.98945565844E-02  0.51100000000E-03 0. -1.
</event>
<event>
 8    1  0.1094829E+005  0.1043930E+01  0.7957747E-01            NaN
         13   -1    0    0    0    0  0.00000000000E+00  0.00000000000E+00  0.74505805969E-08  0.10566000000E+00  0.10566000000E+00 0. -1.
     999900   -1    0    0    0    0 -0.00000000000E+00 -0.00000000000E+00 -0.74505805969E-08  0.93827000000E+00  0.93827000000E+00 0. -1.
     999902    2    1    2    0    0  0.14614569827E-01  0.10454249726E-01 -0.12796218183E-01  0.10218705306E+01  0.10216324002E+01 0.  0.
     999903    2    3    3    0    0 -0.90683987466E-01  0.89349168030E-01  0.23706840898E-01  0.13133997663E+00  0.21938909411E-01 0.  0.
         14    1    1    2    0    0 -0.14614569827E-01 -0.10454249726E-01  0.12796218183E-01  0.22059469358E-01  0.00000000000E+00 0. -1.
     999901    1    3    3    0    0  0.10529855729E+00 -0.78894918304E-01 -0.36503059081E-01  0.89053055401E+00  0.88000000000E+00 0. -1.
        -11    1    4    4    0    0 -0.32617724774E-01  0.19131644628E-01  0.10669409453E-01  0.39294188053E-01  0.51100000000E-03 0. -1.
         11    1    4    4    0    0 -0.58066262692E-01  0.70217523402E-01  0.13037431444E-01  0.92045788580E-01  0.51100000000E-03 0.  1.
</event>
<event>
 8    1  0.1094829E+005  0.1043930E+01  0.7957747E-01            NaN
         13   -1    0    0    0    0  0.00000000000E+00  0.00000000000E+00  0.74505805969E-08  0.10566000000E+00  0.10566000000E+00 0.  1.
     999900   -1    0    0    0    0 -0.00000000000E+00 -0.00000000000E+00 -0.74505805969E-08  0.93827000000E+00  0.93827000000E+00 0. -1.
     999902    2    1    2    0    0  0.20076449678E-01  0.14479184052E-01  0.72075970386E-02  0.10181489981E+01  0.10178225397E+01 0.  0.
     999903    2    3    3    0    0 -0.10188703573E+00 -0.62574660127E-01  0.34587546748E-01  0.12598194633E+00  0.19457550490E-01 0.  0.
         14    1    1    2    0    0 -0.20076449678E-01 -0.14479184052E-01 -0.72075970386E-02  0.25781001872E-01  0.00000000000E+00 0. -1.
     999901    1    3    3    0    0  0.12196348540E+00  0.77053844179E-01 -0.27379949709E-01  0.89216705180E+00  0.88000000000E+00 0.  1.
        -11    1    4    4    0    0 -0.70883085245E-01 -0.40173740345E-01  0.14439857239E-01  0.82747276603E-01  0.51100000000E-03 0.  1.
         11    1    4    4    0    0 -0.31003950481E-01 -0.22400919782E-01  0.20147689509E-01  0.43234669723E-01  0.51100000000E-03 0. -1.
</event>
<event>
 8    1  0.1094829E+005  0.1043930E+01  0.7957747E-01            NaN
         13   -1    0    0    0    0  0.00000000000E+00  0.00000000000E+00  0.74505805969E-08  0.10566000000E+00  0.10566000000E+00 0.  1.
     999900   -1    0    0    0    0 -0.00000000000E+00 -0.00000000000E+00 -0.74505805969E-08  0.93827000000E+00  0.93827000000E+00 0.  1.
     999902    2    1    2    0    0 -0.85190618688E-02  0.13057169797E-01  0.16829419135E-01  0.10209889136E+01  0.10207311439E+01 0.  0.
     999903    2    3    3    0    0  0.26018461589E-01  0.10384034253E+00  0.77375399341E-01  0.13357681049E+00  0.19900623013E-01 0.  0.
         14    1    1    2    0    0  0.85190618688E-02 -0.13057169797E-01 -0.16829419135E-01  0.22941086431E-01  0.00000000000E+00 0. -1.
     999901    1    3    3    0    0 -0.34537523458E-01 -0.90783172733E-01 -0.60545980206E-01  0.88741210308E+00  0.88000000000E+00 0.  1.
        -11    1    4    4    0    0  0.10187482365E-01  0.61204700808E-01  0.54873851370E-01  0.82832366156E-01  0.51100000000E-03 0.  1.
         11    1    4    4    0    0  0.15830979224E-01  0.42635641722E-01  0.22501547971E-01  0.50744444330E-01  0.51100000000E-03 0. -1.
</event>
<event>
 8    1  0.1094829E+005  0.1043930E+01  0.7957747E-01            NaN
         13   -1    0    0    0    0  0.00000000000E+00  0.00000000000E+00  0.74505805969E-08  0.10566000000E+00  0.10566000000E+00 0. -1.
     999900   -1    0    0    0    0 -0.00000000000E+00 -0.00000000000E+00 -0.74505805969E-08  0.93827000000E+00  0.93827000000E+00 0. -1.
     999902    2    1    2    0    0  0.21946109278E-01 -0.30983846099E-02  0.11786333175E-01  0.10188272243E+01  0.10185179250E+01 0.  0.
     999903    2    3    3    0    0  0.20473545270E-01  0.40829059293E-01 -0.11814892209E+00  0.12820106289E+00  0.19752635156E-01 0.  0.
         14    1    1    2    0    0 -0.21946109278E-01  0.30983846099E-02 -0.11786333175E-01  0.25102775730E-01  0.00000000000E+00 0. -1.
     999901    1    3    3    0    0  0.14725640078E-02 -0.43927443903E-01  0.12993525527E+00  0.89062616138E+00  0.88000000000E+00 0.  1.
        -11    1    4    4    0    0  0.52089196042E-02  0.22374054111E-01 -0.36677805248E-01  0.43281100490E-01  0.51100000000E-03 0. -1.
         11    1    4    4    0    0  0.15264625666E-01  0.18455005182E-01 -0.81471116846E-01  0.84919962400E-01  0.51100000000E-03 0.  1.
</event>
<event>
 8    1  0.1094829E+005  0.1043930E+01  0.7957747E-01            NaN
         13   -1    0    0    0    0  0.00000000000E+00  0.00000000000E+00  0.74505805969E-08  0.10566000000E+00  0.10566000000E+00 0.  1.
     999900   -1    0    0    0    0 -0.00000000000E+00 -0.00000000000E+00 -0.74505805969E-08  0.93827000000E+00  0.93827000000E+00 0. -1.
     999902    2    1    2    0    0 -0.48301436746E-02  0.69849703612E-02  0.22470533489E-01  0.10199082396E+01  0.10196253097E+01 0.  0.
     999903    2    3    3    0    0 -0.12831192913E+00 -0.26521445791E-02  0.18749304922E-01  0.13122692838E+00  0.19949568115E-01 0.  0.
         14    1    1    2    0    0  0.48301436746E-02 -0.69849703612E-02 -0.22470533489E-01  0.24021760430E-01  0.00000000000E+00 0. -1.
     999901    1    3    3    0    0  0.12348178546E+00  0.96371149404E-02  0.37212285675E-02  0.88868131119E+00  0.88000000000E+00 0.  1.
        -11    1    4    4    0    0 -0.27911203835E-01 -0.42635698557E-02 -0.32633189992E-02  0.28427516587E-01  0.51100000000E-03 0. -1.
         11    1    4    4    0    0 -0.10040072530E+00  0.16114252766E-02  0.22012623921E-01  0.10279941179E+00  0.51100000000E-03 0.  1.
</event>
<event>
 8    1  0.1094829E+005  0.1043930E+01  0.7957747E-01            NaN
         13   -1    0    0    0    0  0.00000000000E+00  0.00000000000E+00  0.74505805969E-08  0.10566000000E+00  0.10566000000E+00 0.  1.
     999900   -1    0    0    0    0 -0.00000000000E+00 -0.00000000000E+00 -0.74505805969E-08  0.93827000000E+00  0.93827000000E+00 0. -1.
     999902    2    1    2    0    0  0.14282062928E-01  0.16038895721E-01 -0.11276126357E-01  0.10196735674E+01  0.10193850153E+01 0.  0.
     999903    2    3    3    0    0 -0.83210206696E-01 -0.73800074585E-01 -0.60908565694E-01  0.12836040006E+00  0.19903502731E-01 0.  0.
         14    1    1    2    0    0 -0.14282062928E-01 -0.16038895721E-01  0.11276126357E-01  0.24256432612E-01  0.00000000000E+00 0.  1.
     999901    1    3    3    0    0  0.97492269625E-01  0.89838970306E-01  0.49632439336E-01  0.89131316733E+00  0.88000000000E+00 0.  1.
        -11    1    4    4    0    0 -0.53184719764E-02 -0.65030094579E-02  0.61318110802E-03  0.84387432858E-02  0.51100000000E-03 0. -1.
         11    1    4    4    0    0 -0.77891734720E-01 -0.67297065127E-01 -0.61521746802E-01  0.11992165677E+00  0.51100000000E-03 0.  1.
</event>
<event>
 8    1  0.1094829E+005  0.1043930E+01  0.7957747E-01            NaN
         13   -1    0    0    0    0  0.00000000000E+00  0.00000000000E+00  0.74505805969E-08  0.10566000000E+00  0.10566000000E+00 0. -1.
     999900   -1    0    0    0    0 -0.00000000000E+00 -0.00000000000E+00 -0.74505805969E-08  0.93827000000E+00  0.93827000000E+00 0.  1.
     999902    2    1    2    0    0  0.20133310040E-02 -0.12399667504E-01 -0.20010898479E-01  0.10203028691E+01  0.10200292660E+01 0.  0.
     999903    2    3    3    0    0 -0.98395506918E-01  0.80362202723E-01  0.13495547550E-01  0.12911861138E+00  0.18700978423E-01 0.  0.
         14    1    1    2    0    0 -0.20133310040E-02  0.12399667504E-01  0.20010898479E-01  0.23627130886E-01  0.00000000000E+00 0.  1.
     999901    1    3    3    0    0  0.10040883792E+00 -0.92761870227E-01 -0.33506446029E-01  0.89118425773E+00  0.88000000000E+00 0. -1.
        -11    1    4    4    0    0 -0.80492651860E-01  0.59791038543E-01  0.16711949791E-01  0.10165424576E+00  0.51100000000E-03 0. -1.
         11    1    4    4    0    0 -0.17902855057E-01  0.20571164180E-01 -0.32164022414E-02  0.27464365627E-01  0.51100000000E-03 0.  1.
</event>
<event>
 8    1  0.1094829E+005  0.1043930E+01  0.7957747E-01            NaN
         13   -1    0    0    0    0  0.00000000000E+00  0.00000000000E+00  0.74505805969E-08  0.10566000000E+00  0.10566000000E+00 0. -1.
     999900   -1    0    0    0    0 -0.00000000000E+00 -0.00000000000E+00 -0.74505805969E-08  0.93827000000E+00  0.93827000000E+00 0. -1.
     999902    2    1    2    0    0 -0.65199117963E-02 -0.20318552478E-01 -0.51683861466E-02  0.10219740204E+01  0.10217381432E+01 0.  0.
     999903    2    3    3    0    0 -0.31185527624E-01  0.10678938543E+00  0.63906987151E-01  0.12982143946E+00  0.19824055159E-01 0.  0.
         14    1    1    2    0    0  0.65199117963E-02  0.20318552478E-01  0.51683861466E-02  0.21955979596E-01  0.00000000000E+00 0.  1.
     999901    1    3    3    0    0  0.24665615828E-01 -0.12710793791E+00 -0.69075373298E-01  0.89215258094E+00  0.88000000000E+00 0.  1.
        -11    1    4    4    0    0 -0.18537322176E-01  0.64274301332E-01  0.49367747236E-01  0.83139964598E-01  0.51100000000E-03 0.  1.
         11    1    4    4    0    0 -0.12648205448E-01  0.42515084102E-01  0.14539239915E-01  0.46681474865E-01  0.51100000000E-03 0. -1.
</event>
<event>
 8    1  0.1094829E+005  0.1043930E+01  0.7957747E-01            NaN
         13   -1    0    0    0    0  0.00000000000E+00  0.00000000000E+00  0.74505805969E-08  0.10566000000E+00  0.10566000000E+00 0.  1.
     999900   -1    0    0    0    0 -0.00000000000E+00 -0.00000000000E+00 -0.74505805969E-08  0.93827000000E+00  0.93827000000E+00 0. -1.
     999902    2    1    2    0    0  0.18056011765E-01  0.33745887443E-02  0.14834458151E-01  0.10203192279E+01  0.10200460079E+01 0.  0.
     999903    2    3    3    0    0 -0.68179490146E-01  0.79712563167E-01 -0.73852180105E-01  0.12839469751E+00  0.53402470740E-02 0.  0.
         14    1    1    2    0    0 -0.18056011765E-01 -0.33745887443E-02 -0.14834458151E-01  0.23610772089E-01  0.00000000000E+00 0. -1.
     999901    1    3    3    0    0  0.86235501910E-01 -0.76337974422E-01  0.88686638256E-01  0.89192453040E+00  0.88000000000E+00 0. -1.
        -11    1    4    4    0    0 -0.48771057179E-01  0.56016033383E-01 -0.55041927680E-01  0.92446129925E-01  0.51100000000E-03 0.  1.
         11    1    4    4    0    0 -0.19408432966E-01  0.23696529784E-01 -0.18810252425E-01  0.35948567583E-01  0.51100000000E-03 0. -1.
</event>
<event>
 8    1  0.1094829E+005  0.1043930E+01  0.7957747E-01            NaN
         13   -1    0    0    0    0  0.00000000000E+00  0.00000000000E+00  0.74505805969E-08  0.10566000000E+00  0.10566000000E+00 0. -1.
     999900   -1    0    0    0    0 -0.00000000000E+00 -0.00000000000E+00 -0.74505805969E-08  0.93827000000E+00  0.93827000000E+00 0.  1.
     999902    2    1    2    0    0 -0.49485433598E-02  0.25446513275E-01  0.24723150277E-02  0.10178891578E+01  0.10175559995E+01 0.  0.
     999903    2    3    3    0    0 -0.97861880810E-01  0.80695351574E-01 -0.25635598550E-01  0.13082919525E+00  0.19245958942E-01 0.  0.
         14    1    1    2    0    0  0.49485433598E-02 -0.25446513275E-01 -0.24723150277E-02  0.26040842168E-01  0.00000000000E+00 0.  1.
     999901    1    3    3    0    0  0.92913337450E-01 -0.55248838299E-01  0.28107913578E-01  0.88705996258E+00  0.88000000000E+00 0. -1.
        -11    1    4    4    0    0 -0.49801991736E-01  0.44108657009E-01 -0.22914145573E-01  0.70364274972E-01  0.51100000000E-03 0.  1.
         11    1    4    4    0    0 -0.48059889073E-01  0.36586694565E-01 -0.27214529772E-02  0.60464920278E-01  0.51100000000E-03 0. -1.
</event>
<event>
 8    1  0.1094829E+005  0.1043930E+01  0.7957747E-01            NaN
         13   -1    0    0    0    0  0.00000000000E+00  0.00000000000E+00  0.74505805969E-08  0.10566000000E+00  0.10566000000E+00 0. -1.
     999900   -1    0    0    0    0 -0.00000000000E+00 -0.00000000000E+00 -0.74505805969E-08  0.93827000000E+00  0.93827000000E+00 0. -1.
     999902    2    1    2    0    0  0.16317893598E-01  0.63037423155E-02  0.17231690943E-01  0.10193751229E+01  0.10190793390E+01 0.  0.
     999903    2    3    3    0    0 -0.23840051859E-01  0.46304193008E-01 -0.11513389317E+00  0.12767262511E+00  0.18222499320E-01 0.  0.
         14    1    1    2    0    0 -0.16317893598E-01 -0.63037423155E-02 -0.17231690943E-01  0.24554877141E-01  0.00000000000E+00 0.  1.
     999901    1    3    3    0    0  0.40157945457E-01 -0.40000450693E-01  0.13236558412E+00  0.89170249775E+00  0.88000000000E+00 0.  1.
        -11    1    4    4    0    0 -0.23137394309E-01  0.27543537135E-01 -0.67895946388E-01  0.76838181331E-01  0.51100000000E-03 0. -1.
         11    1    4    4    0    0 -0.70265754929E-03  0.18760655873E-01 -0.47237946786E-01  0.50834443775E-01  0.51100000000E-03 0.  1.
</event>
<event>
 8    1  0.1094829E+005  0.1043930E+01  0.7957747E-01            NaN
         13   -1    0    0    0    0  0.00000000000E+00  0.00000000000E+00  0.74505805969E-08  0.10566000000E+00  0.10566000000E+00 0.  1.
     999900   -1    0    0    0    0 -0.00000000000E+00 -0.00000000000E+00 -0.74505805969E-08  0.93827000000E+00  0.93827000000E+00 0. -1.
     999902    2    1    2    0    0  0.21905409939E-01  0.66108668425E-02  0.74410641772E-02  0.10198692440E+01  0.10195853838E+01 0.  0.
     999903    2    3    3    0    0  0.73093204835E-01  0.86525838026E-01  0.66469038666E-01  0.13280053482E+00  0.19710700350E-01 0.  0.
         14    1    1    2    0    0 -0.21905409939E-01 -0.66108668425E-02 -0.74410641772E-02  0.24060756037E-01  0.00000000000E+00 0.  1.
     999901    1    3    3    0    0 -0.51187794896E-01 -0.79914971184E-01 -0.59027974489E-01  0.88706870914E+00  0.88000000000E+00 0. -1.
        -11    1    4    4    0    0  0.25417633003E-01  0.26904554203E-01  0.11613364313E-01  0.38794876672E-01  0.51100000000E-03 0.  1.
         11    1    4    4    0    0  0.47675571832E-01  0.59621283824E-01  0.54855674353E-01  0.94005658149E-01  0.51100000000E-03 0. -1.
</event>
<event>
 8    1  0.1094829E+005  0.1043930E+01  0.7957747E-01            NaN
         13   -1    0    0    0    0  0.00000000000E+00  0.00000000000E+00  0.74505805969E-08  0.10566000000E+00  0.10566000000E+00 0. -1.
     999900   -1    0    0    0    0 -0.00000000000E+00 -0.00000000000E+00 -0.74505805969E-08  0.93827000000E+00  0.93827000000E+00 0.  1.
     999902    2    1    2    0    0 -0.22208723296E-01  0.33852863579E-02 -0.86366175475E-02  0.10198617903E+01  0.10195777521E+01 0.  0.
     999903    2    3    3    0    0  0.10167853653E+00  0.16453317436E-01 -0.74464873845E-01  0.12865351730E+00  0.19936740744E-01 0.  0.
         14    1    1    2    0    0  0.22208723296E-01 -0.33852863579E-02  0.86366175475E-02  0.24068209672E-01  0.00000000000E+00 0. -1.
     999901    1    3    3    0    0 -0.12388725983E+00 -0.13068031078E-01  0.65828256297E-01  0.89120827303E+00  0.88000000000E+00 0. -1.
        -11    1    4    4    0    0  0.78891238217E-01  0.10290783888E-01 -0.66629122998E-01  0.10377585872E+00  0.51100000000E-03 0. -1.
         11    1    4    4    0    0  0.22787298314E-01  0.61625335482E-02 -0.78357508467E-02  0.24877658582E-01  0.51100000000E-03 0.  1.
</event>
<event>
 8    1  0.1094829E+005  0.1043930E+01  0.7957747E-01            NaN
         13   -1    0    0    0    0  0.00000000000E+00  0.00000000000E+00  0.74505805969E-08  0.10566000000E+00  0.10566000000E+00 0.  1.
     999900   -1    0    0    0    0 -0.00000000000E+00 -0.00000000000E+00 -0.74505805969E-08  0.93827000000E+00  0.93827000000E+00 0. -1.
     999902    2    1    2    0    0  0.19128958622E-01 -0.51790144353E-02  0.17716837395E-02  0.10240333141E+01  0.10238400022E+01 0.  0.
     999903    2    3    3    0    0  0.94243255803E-01  0.87294968960E-01 -0.36308677524E-01  0.13518928434E+00  0.21345249253E-01 0.  0.
         14    1    1    2    0    0 -0.19128958622E-01  0.51790144353E-02 -0.17716837395E-02  0.19896685949E-01  0.00000000000E+00 0. -1.
     999901    1    3    3    0    0 -0.75114297181E-01 -0.92473983395E-01  0.38080361264E-01  0.88884402971E+00  0.88000000000E+00 0. -1.
        -11    1    4    4    0    0  0.61035271213E-01  0.45668098127E-01 -0.28417168347E-01  0.81355246275E-01  0.51100000000E-03 0.  1.
         11    1    4    4    0    0  0.33207984590E-01  0.41626870833E-01 -0.78915091770E-02  0.53834038061E-01  0.51100000000E-03 0. -1.
</event>
<event>
 8    1  0.1094829E+005  0.1043930E+01  0.7957747E-01            NaN
         13   -1    0    0    0    0  0.00000000000E+00  0.00000000000E+00  0.74505805969E-08  0.10566000000E+00  0.10566000000E+00 0. -1.
     999900   -1    0    0    0    0 -0.00000000000E+00 -0.00000000000E+00 -0.74505805969E-08  0.93827000000E+00  0.93827000000E+00 0.  1.
     999902    2    1    2    0    0  0.22609826456E-01  0.40978522377E-03 -0.72826689736E-02  0.10201726970E+01  0.10198960351E+01 0.  0.
     999903    2    3    3    0    0  0.26871503637E-01 -0.12340204181E+00 -0.29792840447E-01  0.13121024664E+00  0.19451834167E-01 0.  0.
         14    1    1    2    0    0 -0.22609826456E-01 -0.40978522377E-03  0.72826689736E-02  0.23757302955E-01  0.00000000000E+00 0. -1.
     999901    1    3    3    0    0 -0.42616771808E-02  0.12381182703E+00  0.22510171474E-01  0.88896245040E+00  0.88000000000E+00 0. -1.
        -11    1    4    4    0    0  0.25148383797E-01 -0.78649222105E-01 -0.14206197126E-01  0.83786744197E-01  0.51100000000E-03 0.  1.
         11    1    4    4    0    0  0.17231198400E-02 -0.44752819701E-01 -0.15586643322E-01  0.47423502446E-01  0.51100000000E-03 0. -1.
</event>
<event>
 8    1  0.1094829E+005  0.1043930E+01  0.7957747E-01            NaN
         13   -1    0    0    0    0  0.00000000000E+00  0.00000000000E+00  0.74505805969E-08  0.10566000000E+00  0.10566000000E+00 0.  1.
     999900   -1    0    0    0    0 -0.00000000000E+00 -0.00000000000E+00 -0.74505805969E-08  0.93827000000E+00  0.93827000000E+00 0. -1.
     999902    2    1    2    0    0  0.68317424600E-02 -0.21505156062E-02  0.22508263781E-01  0.10203096833E+01  0.10200362398E+01 0.  0.
     999903    2    3    3    0    0  0.59816869626E-01 -0.83436929385E-02 -0.11177277694E+00  0.12852653867E+00  0.19448454310E-01 0.  0.
         14    1    1    2    0    0 -0.68317424600E-02  0.21505156062E-02 -0.22508263781E-01  0.23620316697E-01  0.00000000000E+00 0. -1.
     999901    1    3    3    0    0 -0.52985127166E-01  0.61931773323E-02  0.13428104072E+00  0.89178314463E+00  0.88000000000E+00 0.  1.
        -11    1    4    4    0    0  0.25492180606E-01 -0.28648538023E-03 -0.65944596073E-01  0.70702787910E-01  0.51100000000E-03 0.  1.
         11    1    4    4    0    0  0.34324689021E-01 -0.80572075582E-02 -0.45828180867E-01  0.57823750765E-01  0.51100000000E-03 0. -1.
</event>
<event>
 8    1  0.1094829E+005  0.1043930E+01  0.7957747E-01            NaN
         13   -1    0    0    0    0  0.00000000000E+00  0.00000000000E+00  0.74505805969E-08  0.10566000000E+00  0.10566000000E+00 0.  1.
     999900   -1    0    0    0    0 -0.00000000000E+00 -0.00000000000E+00 -0.74505805969E-08  0.93827000000E+00  0.93827000000E+00 0. -1.
     999902    2    1    2    0    0 -0.22816657587E-01  0.10109498406E-02  0.74252494262E-02  0.10199142507E+01  0.10196314641E+01 0.  0.
     999903    2    3    3    0    0 -0.10946481193E+00  0.21748192536E-01  0.70063087342E-01  0.13320041042E+00  0.19441815766E-01 0.  0.
         14    1    1    2    0    0  0.22816657587E-01 -0.10109498406E-02 -0.74252494262E-02  0.24015749251E-01  0.00000000000E+00 0. -1.
     999901    1    3    3    0    0  0.86648154341E-01 -0.20737242695E-01 -0.62637837916E-01  0.88671384033E+00  0.88000000000E+00 0. -1.
        -11    1    4    4    0    0 -0.54620031461E-01  0.19821935437E-01  0.31214906409E-01  0.65961264879E-01  0.51100000000E-03 0. -1.
         11    1    4    4    0    0 -0.54844780467E-01  0.19262570986E-02  0.38848180933E-01  0.67239145545E-01  0.51100000000E-03 0.  1.
</event>
<event>
 8    1  0.1094829E+005  0.1043930E+01  0.7957747E-01            NaN
         13   -1    0    0    0    0  0.00000000000E+00  0.00000000000E+00  0.74505805969E-08  0.10566000000E+00  0.10566000000E+00 0.  1.
     999900   -1    0    0    0    0 -0.00000000000E+00 -0.00000000000E+00 -0.74505805969E-08  0.93827000000E+00  0.93827000000E+00 0.  1.
     999902    2    1    2    0    0  0.20486336367E-02  0.11461583112E-01  0.18347028982E-01  0.10222003369E+01  0.10219693491E+01 0.  0.
     999903    2    3    3    0    0 -0.85326942302E-01  0.66285536791E-01  0.77401422912E-01  0.13420958320E+00  0.18621828135E-01 0.  0.
         14    1    1    2    0    0 -0.20486336367E-02 -0.11461583112E-01 -0.18347028982E-01  0.21729663128E-01  0.00000000000E+00 0. -1.
     999901    1    3    3    0    0  0.87375575939E-01 -0.54823953678E-01 -0.59054393930E-01  0.88799075367E+00  0.88000000000E+00 0.  1.
        -11    1    4    4    0    0 -0.58433552182E-01  0.52067097901E-01  0.47512933813E-01  0.91559831285E-01  0.51100000000E-03 0.  1.
         11    1    4    4    0    0 -0.26893390121E-01  0.14218438890E-01  0.29888489099E-01  0.42649751913E-01  0.51100000000E-03 0. -1.
</event>
<event>
 8    1  0.1094829E+005  0.1043930E+01  0.7957747E-01            NaN
         13   -1    0    0    0    0  0.00000000000E+00  0.00000000000E+00  0.74505805969E-08  0.10566000000E+00  0.10566000000E+00 0. -1.
     999900   -1    0    0    0    0 -0.00000000000E+00 -0.00000000000E+00 -0.74505805969E-08  0.93827000000E+00  0.93827000000E+00 0.  1.
     999902    2    1    2    0    0  0.54519594204E-02  0.34637676161E-02  0.23144070103E-01  0.10199014851E+01  0.10196183942E+01 0.  0.
     999903    2    3    3    0    0  0.62967711951E-01 -0.54423521623E-01 -0.95384127374E-01  0.12821323596E+00  0.20338379157E-01 0.  0.
         14    1    1    2    0    0 -0.54519594204E-02 -0.34637676161E-02 -0.23144070103E-01  0.24028514905E-01  0.00000000000E+00 0.  1.
     999901    1    3    3    0    0 -0.57515752530E-01  0.57887289240E-01  0.11852819748E+00  0.89168824913E+00  0.88000000000E+00 0. -1.
        -11    1    4    4    0    0  0.47890364130E-01 -0.51415523812E-01 -0.79487050250E-01  0.10609191931E+00  0.51100000000E-03 0. -1.
         11    1    4    4    0    0  0.15077347820E-01 -0.30079978114E-02 -0.15897077124E-01  0.22121316647E-01  0.51100000000E-03 0.  1.
</event>
<event>
 8    1  0.1094829E+005  0.1043930E+01  0.7957747E-01            NaN
         13   -1    0    0    0    0  0.00000000000E+00  0.00000000000E+00  0.74505805969E-08  0.10566000000E+00  0.10566000000E+00 0. -1.
     999900   -1    0    0    0    0 -0.00000000000E+00 -0.00000000000E+00 -0.74505805969E-08  0.93827000000E+00  0.93827000000E+00 0.  1.
     999902    2    1    2    0    0  0.11574618748E-01  0.16090188467E-01 -0.38813330133E-02  0.10237327054E+01  0.10235334491E+01 0.  0.
     999903    2    3    3    0    0 -0.10234357984E+00 -0.66232880606E-01 -0.45779103061E-01  0.13159489831E+00  0.18986526192E-01 0.  0.
         14    1    1    2    0    0 -0.11574618748E-01 -0.16090188467E-01  0.38813330133E-02  0.20197294621E-01  0.00000000000E+00 0. -1.
     999901    1    3    3    0    0  0.11391819858E+00  0.82323069072E-01  0.41897770047E-01  0.89213780707E+00  0.88000000000E+00 0.  1.
        -11    1    4    4    0    0 -0.65136146512E-01 -0.44337506925E-01 -0.19943932633E-01  0.81280709106E-01  0.51100000000E-03 0. -1.
         11    1    4    4    0    0 -0.37207433323E-01 -0.21895373680E-01 -0.25835170427E-01  0.50314189203E-01  0.51100000000E-03 0.  1.
</event>
<event>
 8    1  0.1094829E+005  0.1043930E+01  0.7957747E-01            NaN
         13   -1    0    0    0    0  0.00000000000E+00  0.00000000000E+00  0.74505805969E-08  0.10566000000E+00  0.10566000000E+00 0. -1.
     999900   -1    0    0    0    0 -0.00000000000E+00 -0.00000000000E+00 -0.74505805969E-08  0.93827000000E+00  0.93827000000E+00 0.  1.
     999902    2    1    2    0    0  0.36226607869E-03  0.24223433129E-01 -0.69150031091E-02  0.10187362862E+01  0.10184247137E+01 0.  0.
     999903    2    3    3    0    0  0.60938105985E-01 -0.79598804270E-01  0.74968284141E-01  0.12679830508E+00  0.20202577587E-01 0.  0.
         14    1    1    2    0    0 -0.36226607869E-03 -0.24223433129E-01  0.69150031091E-02  0.25193713844E-01  0.00000000000E+00 0.  1.
     999901    1    3    3    0    0 -0.60575839907E-01  0.10382223740E+00 -0.81883287250E-01  0.89193798108E+00  0.88000000000E+00 0.  1.
        -11    1    4    4    0    0  0.17287226684E-01 -0.38795007740E-01  0.29583673140E-01  0.51762492883E-01  0.51100000000E-03 0.  1.
         11    1    4    4    0    0  0.43650879301E-01 -0.40803796530E-01  0.45384611001E-01  0.75035812194E-01  0.51100000000E-03 0. -1.
</event>
<event>
 8    1  0.1094829E+005  0.1043930E+01  0.7957747E-01            NaN
         13   -1    0    0    0    0  0.00000000000E+00  0.00000000000E+00  0.74505805969E-08  0.10566000000E+00  0.10566000000E+00 0. -1.
     999900   -1    0    0    0    0 -0.00000000000E+00 -0.00000000000E+00 -0.74505805969E-08  0.93827000000E+00  0.93827000000E+00 0.  1.
     999902    2    1    2    0    0 -0.44827992866E-02  0.62555425088E-02  0.25382711460E-01  0.10174062495E+01  0.10170604540E+01 0.  0.
     999903    2    3    3    0    0  0.12479957175E+00  0.14498973193E-01  0.10352513897E-01  0.12779521511E+00  0.20959225320E-01 0.  0.
         14    1    1    2    0    0  0.44827992866E-02 -0.62555425088E-02 -0.25382711460E-01  0.26523750538E-01  0.00000000000E+00 0.  1.
     999901    1    3    3    0    0 -0.12928237104E+00 -0.82434306841E-02  0.15030197563E-01  0.88961103436E+00  0.88000000000E+00 0. -1.
        -11    1    4    4    0    0  0.29656772450E-01  0.10323038415E-01  0.85218387809E-02  0.32541851998E-01  0.51100000000E-03 0.  1.
         11    1    4    4    0    0  0.95142799305E-01  0.41759347778E-02  0.18306751160E-02  0.95253363107E-01  0.51100000000E-03 0. -1.
</event>
<event>
 8    1  0.1224367E+005  0.1043930E+01  0.7957747E-01            NaN
         13   -1    0    0    0    0  0.00000000000E+00  0.00000000000E+00  0.74505805969E-08  0.10566000000E+00  0.10566000000E+00 0.  1.
     999900   -1    0    0    0    0 -0.00000000000E+00 -0.00000000000E+00 -0.74505805969E-08  0.93827000000E+00  0.93827000000E+00 0. -1.
     999902    2    1    2    0    0  0.85432947691E-02  0.21821502048E-01  0.56986415830E-03  0.10204887845E+01  0.10202195199E+01 0.  0.
     999903    2    3    3    0    0  0.12132590356E+00  0.14641325470E-01  0.45781463452E-01  0.13211073411E+00  0.20566000689E-01 0.  0.
         14    1    1    2    0    0 -0.85432947691E-02 -0.21821502048E-01 -0.56986415830E-03  0.23441215461E-01  0.00000000000E+00 0. -1.
     999901    1    3    3    0    0 -0.11278260879E+00  0.71801765781E-02 -0.45211599294E-01  0.88837805043E+00  0.88000000000E+00 0. -1.
        -11    1    4    4    0    0  0.55256056857E-01 -0.35169969606E-02  0.18952066198E-01  0.58523867107E-01  0.51100000000E-03 0.  1.
         11    1    4    4    0    0  0.66069846702E-01  0.18158322430E-01  0.26829397254E-01  0.73586866999E-01  0.51100000000E-03 0. -1.
</event>
<event>
 8    1  0.1094829E+005  0.1043930E+01  0.7957747E-01            NaN
         13   -1    0    0    0    0  0.00000000000E+00  0.00000000000E+00  0.74505805969E-08  0.10566000000E+00  0.10566000000E+00 0.  1.
     999900   -1    0    0    0    0 -0.00000000000E+00 -0.00000000000E+00 -0.74505805969E-08  0.93827000000E+00  0.93827000000E+00 0. -1.
     999902    2    1    2    0    0 -0.23807654685E-01 -0.14551505360E-02 -0.54781120185E-02  0.10194569210E+01  0.10191631283E+01 0.  0.
     999903    2    3    3    0    0 -0.41023921748E-01 -0.39554622203E-01 -0.11684394962E+00  0.13145336279E+00  0.19492248023E-01 0.  0.
         14    1    1    2    0    0  0.23807654685E-01  0.14551505360E-02  0.54781120185E-02  0.24473079005E-01  0.00000000000E+00 0. -1.
     999901    1    3    3    0    0  0.17216267063E-01  0.38099471667E-01  0.11136583760E+00  0.88800355820E+00  0.88000000000E+00 0.  1.
        -11    1    4    4    0    0 -0.27103586964E-02  0.36809404548E-03 -0.17657041963E-01  0.17874948653E-01  0.51100000000E-03 0. -1.
         11    1    4    4    0    0 -0.38313563052E-01 -0.39922716248E-01 -0.99186907661E-01  0.11357841414E+00  0.51100000000E-03 0.  1.
</event>
<event>
 8    1  0.1094829E+005  0.1043930E+01  0.7957747E-01            NaN
         13   -1    0    0    0    0  0.00000000000E+00  0.00000000000E+00  0.74505805969E-08  0.10566000000E+00  0.10566000000E+00 0. -1.
     999900   -1    0    0    0    0 -0.00000000000E+00 -0.00000000000E+00 -0.74505805969E-08  0.93827000000E+00  0.93827000000E+00 0.  1.
     999902    2    1    2    0    0 -0.79553542141E-02  0.84806508705E-02  0.15384824440E-01  0.10246452412E+01  0.10244637467E+01 0.  0.
     999903    2    3    3    0    0 -0.11008184636E+00  0.77082892799E-01  0.49167210427E-02  0.13602514846E+00  0.20466597344E-01 0.  0.
         14    1    1    2    0    0  0.79553542141E-02 -0.84806508705E-02 -0.15384824440E-01  0.19284758824E-01  0.00000000000E+00 0.  1.
     999901    1    3    3    0    0  0.10212649214E+00 -0.68602241929E-01  0.10468103397E-01  0.88862009272E+00  0.88000000000E+00 0.  1.
        -11    1    4    4    0    0 -0.72683429448E-01  0.48100703222E-01  0.12675307074E-01  0.88076575190E-01  0.51100000000E-03 0.  1.
         11    1    4    4    0    0 -0.37398416911E-01  0.28982189577E-01 -0.77585860312E-02  0.47948573267E-01  0.51100000000E-03 0. -1.
</event>
<event>
 8    1  0.1094829E+005  0.1043930E+01  0.7957747E-01            NaN
         13   -1    0    0    0    0  0.00000000000E+00  0.00000000000E+00  0.74505805969E-08  0.10566000000E+00  0.10566000000E+00 0. -1.
     999900   -1    0    0    0    0 -0.00000000000E+00 -0.00000000000E+00 -0.74505805969E-08  0.93827000000E+00  0.93827000000E+00 0.  1.
     999902    2    1    2    0    0  0.14431277168E-01  0.19769874595E-01  0.29127774944E-02  0.10192805786E+01  0.10189824846E+01 0.  0.
     999903    2    3    3    0    0 -0.11809786412E+00  0.44143358688E-01 -0.18494803397E-01  0.12876593834E+00  0.18516681587E-01 0.  0.
         14    1    1    2    0    0 -0.14431277168E-01 -0.19769874595E-01 -0.29127774944E-02  0.24649421391E-01  0.00000000000E+00 0. -1.
     999901    1    3    3    0    0  0.13252914129E+00 -0.24373484093E-01  0.21407580891E-01  0.89051464027E+00  0.88000000000E+00 0. -1.
        -11    1    4    4    0    0 -0.94840699865E-01  0.28888701542E-01 -0.18973766802E-01  0.10094345137E+00  0.51100000000E-03 0.  1.
         11    1    4    4    0    0 -0.23257164257E-01  0.15254657146E-01  0.47896340533E-03  0.27822486964E-01  0.51100000000E-03 0. -1.
</event>
<event>
 8    1  0.1094829E+005  0.1043930E+01  0.7957747E-01            NaN
         13   -1    0    0    0    0  0.00000000000E+00  0.00000000000E+00  0.74505805969E-08  0.10566000000E+00  0.10566000000E+00 0.  1.
     999900   -1    0    0    0    0 -0.00000000000E+00 -0.00000000000E+00 -0.74505805969E-08  0.93827000000E+00  0.93827000000E+00 0.  1.
     999902    2    1    2    0    0  0.13579439916E-01  0.16801590556E-01  0.98981259563E-02  0.10201672659E+01  0.10198904759E+01 0.  0.
     999903    2    3    3    0    0  0.48737352944E-01 -0.11773362460E+00  0.86562937134E-02  0.12924788398E+00  0.19838048251E-01 0.  0.
         14    1    1    2    0    0 -0.13579439916E-01 -0.16801590556E-01 -0.98981259563E-02  0.23762734083E-01  0.00000000000E+00 0. -1.
     999901    1    3    3    0    0 -0.35157913028E-01  0.13453521516E+00  0.12418322428E-02  0.89091938194E+00  0.88000000000E+00 0.  1.
        -11    1    4    4    0    0  0.43062582603E-01 -0.81021433622E-01  0.77937558804E-02  0.92086168767E-01  0.51100000000E-03 0. -1.
         11    1    4    4    0    0  0.56747703412E-02 -0.36712190979E-01  0.86253783300E-03  0.37161715211E-01  0.51100000000E-03 0.  1.
</event>
<event>
 8    1  0.1094829E+005  0.1043930E+01  0.7957747E-01            NaN
         13   -1    0    0    0    0  0.00000000000E+00  0.00000000000E+00  0.74505805969E-08  0.10566000000E+00  0.10566000000E+00 0. -1.
     999900   -1    0    0    0    0 -0.00000000000E+00 -0.00000000000E+00 -0.74505805969E-08  0.93827000000E+00  0.93827000000E+00 0.  1.
     999902    2    1    2    0    0 -0.24944557128E-01  0.99405726862E-03  0.38742575817E-02  0.10186668064E+01  0.10183534914E+01 0.  0.
     999903    2    3    3    0    0 -0.42783921619E-01  0.11568059653E-01 -0.11777323159E+00  0.13005656332E+00  0.32861704615E-01 0.  0.
         14    1    1    2    0    0  0.24944557128E-01 -0.99405726862E-03 -0.38742575817E-02  0.25263193621E-01  0.00000000000E+00 0. -1.
     999901    1    3    3    0    0  0.17839364491E-01 -0.10574002384E-01  0.12164748917E+00  0.88861024306E+00  0.88000000000E+00 0. -1.
        -11    1    4    4    0    0 -0.36255748590E-01 -0.31559146004E-02 -0.60926550327E-01  0.70970027184E-01  0.51100000000E-03 0. -1.
         11    1    4    4    0    0 -0.65281730288E-02  0.14723974253E-01 -0.56846681261E-01  0.59086536133E-01  0.51100000000E-03 0.  1.
</event>
<event>
 8    1  0.1094829E+005  0.1043930E+01  0.7957747E-01            NaN
         13   -1    0    0    0    0  0.00000000000E+00  0.00000000000E+00  0.74505805969E-08  0.10566000000E+00  0.10566000000E+00 0. -1.
     999900   -1    0    0    0    0 -0.00000000000E+00 -0.00000000000E+00 -0.74505805969E-08  0.93827000000E+00  0.93827000000E+00 0.  1.
     999902    2    1    2    0    0  0.98620595898E-02  0.46477788774E-02 -0.22207484863E-01  0.10191906699E+01  0.10188903706E+01 0.  0.
     999903    2    3    3    0    0  0.36839074047E-03  0.30476980462E-01 -0.12731209374E+00  0.13250907195E+00  0.20525664140E-01 0.  0.
         14    1    1    2    0    0 -0.98620595898E-02 -0.46477788774E-02  0.22207484863E-01  0.24739330060E-01  0.00000000000E+00 0. -1.
     999901    1    3    3    0    0  0.94936688493E-02 -0.25829201584E-01  0.10510460887E+00  0.88668159799E+00  0.88000000000E+00 0. -1.
        -11    1    4    4    0    0  0.63698965285E-02  0.77020710256E-02 -0.67277034419E-01  0.68017335739E-01  0.51100000000E-03 0.  1.
         11    1    4    4    0    0 -0.60015057881E-02  0.22774909436E-01 -0.60035059318E-01  0.64491736214E-01  0.51100000000E-03 0. -1.
</event>
<event>
 8    1  0.1094829E+005  0.1043930E+01  0.7957747E-01            NaN
         13   -1    0    0    0    0  0.00000000000E+00  0.00000000000E+00  0.74505805969E-08  0.10566000000E+00  0.10566000000E+00 0.  1.
     999900   -1    0    0    0    0 -0.00000000000E+00 -0.00000000000E+00 -0.74505805969E-08  0.93827000000E+00  0.93827000000E+00 0.  1.
     999902    2    1    2    0    0  0.47600833053E-02  0.81990262731E-02 -0.21773620981E-01  0.10201818844E+01  0.10199054389E+01 0.  0.
     999903    2    3    3    0    0 -0.78237833811E-01 -0.61820291589E-01 -0.83088344700E-01  0.13139008960E+00  0.20415080922E-01 0.  0.
         14    1    1    2    0    0 -0.47600833053E-02 -0.81990262731E-02  0.21773620981E-01  0.23748115620E-01  0.00000000000E+00 0.  1.
     999901    1    3    3    0    0  0.82997917116E-01  0.70019317862E-01  0.61314723719E-01  0.88879179478E+00  0.88000000000E+00 0.  1.
        -11    1    4    4    0    0 -0.47500071968E-01 -0.26938815144E-01 -0.37289331103E-01  0.66126484357E-01  0.51100000000E-03 0.  1.
         11    1    4    4    0    0 -0.30737761843E-01 -0.34881476444E-01 -0.45799013597E-01  0.65263605245E-01  0.51100000000E-03 0. -1.
</event>
<event>
 8    1  0.1094829E+005  0.1043930E+01  0.7957747E-01            NaN
         13   -1    0    0    0    0  0.00000000000E+00  0.00000000000E+00  0.74505805969E-08  0.10566000000E+00  0.10566000000E+00 0.  1.
     999900   -1    0    0    0    0 -0.00000000000E+00 -0.00000000000E+00 -0.74505805969E-08  0.93827000000E+00  0.93827000000E+00 0. -1.
     999902    2    1    2    0    0 -0.23046164769E-01 -0.57313642108E-02 -0.18413067899E-02  0.10201105824E+01  0.10198324547E+01 0.  0.
     999903    2    3    3    0    0 -0.86380395406E-01  0.15764740041E-01 -0.97066963198E-01  0.13245004312E+00  0.20271133173E-01 0.  0.
         14    1    1    2    0    0  0.23046164769E-01  0.57313642108E-02  0.18413067899E-02  0.23819417645E-01  0.00000000000E+00 0.  1.
     999901    1    3    3    0    0  0.63334230637E-01 -0.21496104252E-01  0.95225656409E-01  0.88766053923E+00  0.88000000000E+00 0. -1.
        -11    1    4    4    0    0 -0.52872769666E-01  0.18318153693E-01 -0.67571591101E-01  0.87734061639E-01  0.51100000000E-03 0. -1.
         11    1    4    4    0    0 -0.33507625740E-01 -0.25534136521E-02 -0.29495372098E-01  0.44715981485E-01  0.51100000000E-03 0.  1.
</event>
<event>
 8    1  0.1094829E+005  0.1043930E+01  0.7957747E-01            NaN
         13   -1    0    0    0    0  0.00000000000E+00  0.00000000000E+00  0.74505805969E-08  0.10566000000E+00  0.10566000000E+00 0.  1.
     999900   -1    0    0    0    0 -0.00000000000E+00 -0.00000000000E+00 -0.74505805969E-08  0.93827000000E+00  0.93827000000E+00 0. -1.
     999902    2    1    2    0    0  0.19756841655E-01 -0.80038243135E-02 -0.61377348237E-02  0.10217474441E+01  0.10215066196E+01 0.  0.
     999903    2    3    3    0    0 -0.37788910237E-01  0.63915429210E-01  0.10493796157E+00  0.12999540298E+00  0.19329904006E-01 0.  0.
         14    1    1    2    0    0 -0.19756841655E-01  0.80038243135E-02  0.61377348237E-02  0.22182555863E-01  0.00000000000E+00 0. -1.
     999901    1    3    3    0    0  0.57545751893E-01 -0.71919253524E-01 -0.11107569639E+00  0.89175204116E+00  0.88000000000E+00 0. -1.
        -11    1    4    4    0    0 -0.20661886541E-01  0.44473873446E-01  0.54687795912E-01  0.73456484516E-01  0.51100000000E-03 0. -1.
         11    1    4    4    0    0 -0.17127023697E-01  0.19441555764E-01  0.50250165655E-01  0.56538918459E-01  0.51100000000E-03 0.  1.
</event>
<event>
 8    1  0.1094829E+005  0.1043930E+01  0.7957747E-01            NaN
         13   -1    0    0    0    0  0.00000000000E+00  0.00000000000E+00  0.74505805969E-08  0.10566000000E+00  0.10566000000E+00 0.  1.
     999900   -1    0    0    0    0 -0.00000000000E+00 -0.00000000000E+00 -0.74505805969E-08  0.93827000000E+00  0.93827000000E+00 0. -1.
     999902    2    1    2    0    0  0.15031345336E-01  0.15962456114E-01  0.11903811809E-01  0.10189812108E+01  0.10186757413E+01 0.  0.
     999903    2    3    3    0    0 -0.35487080598E-01 -0.11965331789E+00 -0.12519529810E-01  0.12682637605E+00  0.18760108363E-01 0.  0.
         14    1    1    2    0    0 -0.15031345336E-01 -0.15962456114E-01 -0.11903811809E-01  0.24948789217E-01  0.00000000000E+00 0.  1.
     999901    1    3    3    0    0  0.50518425935E-01  0.13561577400E+00  0.24423341619E-01  0.89215483473E+00  0.88000000000E+00 0.  1.
        -11    1    4    4    0    0 -0.32397947946E-01 -0.11498302633E+00 -0.82117612484E-02  0.11974313141E+00  0.51100000000E-03 0.  1.
         11    1    4    4    0    0 -0.30891326526E-02 -0.46702915558E-02 -0.43077685614E-02  0.70832446478E-02  0.51100000000E-03 0. -1.
</event>
<event>
 8    1  0.1094829E+005  0.1043930E+01  0.7957747E-01            NaN
         13   -1    0    0    0    0  0.00000000000E+00  0.00000000000E+00  0.74505805969E-08  0.10566000000E+00  0.10566000000E+00 0. -1.
     999900   -1    0    0    0    0 -0.00000000000E+00 -0.00000000000E+00 -0.74505805969E-08  0.93827000000E+00  0.93827000000E+00 0. -1.
     999902    2    1    2    0    0  0.15651245502E-01 -0.60905219327E-02  0.14917024467E-01  0.10214672851E+01  0.10212202705E+01 0.  0.
     999903    2    3    3    0    0 -0.49495303208E-01 -0.92493210658E-01  0.78416668316E-01  0.13256813320E+00  0.20502609883E-01 0.  0.
         14    1    1    2    0    0 -0.15651245502E-01  0.60905219327E-02 -0.14917024467E-01  0.22462714932E-01  0.00000000000E+00 0.  1.
     999901    1    3    3    0    0  0.65146548710E-01  0.86402688726E-01 -0.63499643849E-01  0.88889915187E+00  0.88000000000E+00 0. -1.
        -11    1    4    4    0    0 -0.71145883642E-02 -0.19045326678E-01  0.25482660798E-01  0.32603204723E-01  0.51100000000E-03 0. -1.
         11    1    4    4    0    0 -0.42380714844E-01 -0.73447883980E-01  0.52934007517E-01  0.99964928473E-01  0.51100000000E-03 0.  1.
</event>
<event>
 8    1  0.1094829E+005  0.1043930E+01  0.7957747E-01            NaN
         13   -1    0    0    0    0  0.00000000000E+00  0.00000000000E+00  0.74505805969E-08  0.10566000000E+00  0.10566000000E+00 0.  1.
     999900   -1    0    0    0    0 -0.00000000000E+00 -0.00000000000E+00 -0.74505805969E-08  0.93827000000E+00  0.93827000000E+00 0.  1.
     999902    2    1    2    0    0  0.16260656189E-01 -0.16873896575E-01  0.11880917319E-02  0.10204662218E+01  0.10201964325E+01 0.  0.
     999903    2    3    3    0    0  0.66236905428E-01 -0.81565852262E-01 -0.79088845843E-01  0.13303900714E+00  0.20100148955E-01 0.  0.
         14    1    1    2    0    0 -0.16260656189E-01  0.16873896575E-01 -0.11880917319E-02  0.23463778197E-01  0.00000000000E+00 0.  1.
     999901    1    3    3    0    0 -0.49976249239E-01  0.64691955686E-01  0.80276937575E-01  0.88742721466E+00  0.88000000000E+00 0. -1.
        -11    1    4    4    0    0  0.51893243766E-01 -0.55976333503E-01 -0.66014382735E-01  0.10091788003E+00  0.51100000000E-03 0.  1.
         11    1    4    4    0    0  0.14343661662E-01 -0.25589518759E-01 -0.13074463108E-01  0.32121127109E-01  0.51100000000E-03 0. -1.
</event>
<event>
 7    1  0.1746772E+005  0.1043930E+01  0.7957747E-01            NaN
         13   -1    0    0    0    0  0.00000000000E+00  0.00000000000E+00  0.74505805969E-08  0.10566000000E+00  0.10566000000E+00 0. -1.
     999900   -1    0    0    0    0 -0.00000000000E+00 -0.00000000000E+00 -0.74505805969E-08  0.93827000000E+00  0.93827000000E+00 0. -1.
     999903    2    1    2    0    0  0.94805957025E-01  0.31687854141E-01  0.12905992239E-01  0.10269424451E+00  0.19678760951E-01 0.  0.
         14    1    1    2    0    0  0.28429627161E-01  0.32680462712E-01  0.24068338457E-01  0.49553418244E-01  0.00000000000E+00 0. -1.
     999901    1    1    2    0    0 -0.12323558419E+00 -0.64368316853E-01 -0.36974330697E-01  0.89168233724E+00  0.88000000000E+00 0.  1.
        -11    1    3    3    0    0  0.59869487771E-01  0.29033788777E-01  0.12181513644E-01  0.67645893093E-01  0.51100000000E-03 0. -1.
         11    1    3    3    0    0  0.34936469253E-01  0.26540653635E-02  0.72447859575E-03  0.35048351417E-01  0.51100000000E-03 0.  1.
</event>
<event>
 8    1  0.1094829E+005  0.1043930E+01  0.7957747E-01            NaN
         13   -1    0    0    0    0  0.00000000000E+00  0.00000000000E+00  0.74505805969E-08  0.10566000000E+00  0.10566000000E+00 0.  1.
     999900   -1    0    0    0    0 -0.00000000000E+00 -0.00000000000E+00 -0.74505805969E-08  0.93827000000E+00  0.93827000000E+00 0. -1.
     999902    2    1    2    0    0 -0.92593091614E-02  0.23497290338E-01 -0.16582286788E-02  0.10186197811E+01  0.10183052839E+01 0.  0.
     999903    2    3    3    0    0  0.86987750163E-01  0.74238804029E-01 -0.58420011933E-01  0.13010411004E+00  0.20878528540E-01 0.  0.
         14    1    1    2    0    0  0.92593091614E-02 -0.23497290338E-01  0.16582286788E-02  0.25310218919E-01  0.00000000000E+00 0.  1.
     999901    1    3    3    0    0 -0.96247059324E-01 -0.50741513690E-01  0.56761783254E-01  0.88851567104E+00  0.88000000000E+00 0. -1.
        -11    1    4    4    0    0  0.40250113307E-01  0.29168747051E-01 -0.14744806068E-01  0.51851305217E-01  0.51100000000E-03 0. -1.
         11    1    4    4    0    0  0.46737636855E-01  0.45070056978E-01 -0.43675205865E-01  0.78252804826E-01  0.51100000000E-03 0.  1.
</event>
<event>
 8    1  0.1094829E+005  0.1043930E+01  0.7957747E-01            NaN
         13   -1    0    0    0    0  0.00000000000E+00  0.00000000000E+00  0.74505805969E-08  0.10566000000E+00  0.10566000000E+00 0.  1.
     999900   -1    0    0    0    0 -0.00000000000E+00 -0.00000000000E+00 -0.74505805969E-08  0.93827000000E+00  0.93827000000E+00 0.  1.
     999902    2    1    2    0    0  0.13661277958E-01 -0.11302815901E-01  0.15696472636E-01  0.10202495563E+01  0.10199747024E+01 0.  0.
     999903    2    3    3    0    0 -0.55564144382E-01 -0.11660484776E+00 -0.74311964374E-02  0.13097144110E+00  0.20352666731E-01 0.  0.
         14    1    1    2    0    0 -0.13661277958E-01  0.11302815901E-01 -0.15696472636E-01  0.23680443744E-01  0.00000000000E+00 0. -1.
     999901    1    3    3    0    0  0.69225422340E-01  0.10530203186E+00  0.23127669073E-01  0.88927811515E+00  0.88000000000E+00 0. -1.
        -11    1    4    4    0    0 -0.50918011081E-01 -0.91644036916E-01 -0.13066677795E-02  0.10484866168E+00  0.51100000000E-03 0.  1.
         11    1    4    4    0    0 -0.46461333013E-02 -0.24960810841E-01 -0.61245286579E-02  0.26122779423E-01  0.51100000000E-03 0. -1.
</event>
<event>
 8    1  0.1094829E+005  0.1043930E+01  0.7957747E-01            NaN
         13   -1    0    0    0    0  0.00000000000E+00  0.00000000000E+00  0.74505805969E-08  0.10566000000E+00  0.10566000000E+00 0. -1.
     999900   -1    0    0    0    0 -0.00000000000E+00 -0.00000000000E+00 -0.74505805969E-08  0.93827000000E+00  0.93827000000E+00 0.  1.
     999902    2    1    2    0    0 -0.72921913437E-02 -0.17693398620E-01 -0.16090729412E-01  0.10189271205E+01  0.10186203085E+01 0.  0.
     999903    2    3    3    0    0  0.88910947557E-01 -0.83377912674E-01 -0.43106181630E-01  0.13083966200E+00  0.20095804045E-01 0.  0.
         14    1    1    2    0    0  0.72921913437E-02  0.17693398620E-01  0.16090729412E-01  0.25002879481E-01  0.00000000000E+00 0. -1.
     999901    1    3    3    0    0 -0.96203138901E-01  0.65684514055E-01  0.27015452217E-01  0.88808745852E+00  0.88000000000E+00 0.  1.
        -11    1    4    4    0    0  0.52506593963E-01 -0.60583320785E-01 -0.22959406348E-01  0.83394703835E-01  0.51100000000E-03 0.  1.
         11    1    4    4    0    0  0.36404353594E-01 -0.22794591889E-01 -0.20146775282E-01  0.47444958165E-01  0.51100000000E-03 0. -1.
</event>
<event>
 8    1  0.1094829E+005  0.1043930E+01  0.7957747E-01            NaN
         13   -1    0    0    0    0  0.00000000000E+00  0.00000000000E+00  0.74505805969E-08  0.10566000000E+00  0.10566000000E+00 0. -1.
     999900   -1    0    0    0    0 -0.00000000000E+00 -0.00000000000E+00 -0.74505805969E-08  0.93827000000E+00  0.93827000000E+00 0. -1.
     999902    2    1    2    0    0  0.94188806117E-02 -0.71669688141E-02 -0.18654944270E-01  0.10218372931E+01  0.10215984367E+01 0.  0.
     999903    2    3    3    0    0  0.82422018053E-01  0.62626964439E-01  0.76758186306E-01  0.13093644747E+00  0.23173441190E-01 0.  0.
         14    1    1    2    0    0 -0.94188806117E-02  0.71669688141E-02  0.18654944270E-01  0.22092706934E-01  0.00000000000E+00 0. -1.
     999901    1    3    3    0    0 -0.73003137441E-01 -0.69793933253E-01 -0.95413130576E-01  0.89090084559E+00  0.88000000000E+00 0. -1.
        -11    1    4    4    0    0  0.38773362223E-01  0.21513966770E-01  0.21047709864E-01  0.49086572459E-01  0.51100000000E-03 0. -1.
         11    1    4    4    0    0  0.43648655830E-01  0.41112997668E-01  0.55710476442E-01  0.81849875012E-01  0.51100000000E-03 0.  1.
</event>
<event>
 8    1  0.1094829E+005  0.1043930E+01  0.7957747E-01            NaN
         13   -1    0    0    0    0  0.00000000000E+00  0.00000000000E+00  0.74505805969E-08  0.10566000000E+00  0.10566000000E+00 0.  1.
     999900   -1    0    0    0    0 -0.00000000000E+00 -0.00000000000E+00 -0.74505805969E-08  0.93827000000E+00  0.93827000000E+00 0. -1.
     999902    2    1    2    0    0  0.13582317512E-01 -0.19043268337E-02 -0.14862131209E-01  0.10237065296E+01  0.10235067513E+01 0.  0.
     999903    2    3    3    0    0  0.42023452489E-01  0.11328601955E+00  0.52607061657E-01  0.13318431989E+00  0.19257916363E-01 0.  0.
         14    1    1    2    0    0 -0.13582317512E-01  0.19043268337E-02  0.14862131209E-01  0.20223470369E-01  0.00000000000E+00 0.  1.
     999901    1    3    3    0    0 -0.28441134977E-01 -0.11519034639E+00 -0.67469192866E-01  0.89052220974E+00  0.88000000000E+00 0.  1.
        -11    1    4    4    0    0  0.70817039858E-03  0.14961220149E-01  0.11470225314E-01  0.18872382028E-01  0.51100000000E-03 0. -1.
         11    1    4    4    0    0  0.41315282091E-01  0.98324799403E-01  0.41136836344E-01  0.11431193786E+00  0.51100000000E-03 0.  1.
</event>
<event>
 8    1  0.1124909E+005  0.1043930E+01  0.7957747E-01            NaN
         13   -1    0    0    0    0  0.00000000000E+00  0.00000000000E+00  0.74505805969E-08  0.10566000000E+00  0.10566000000E+00 0.  1.
     999900   -1    0    0    0    0 -0.00000000000E+00 -0.00000000000E+00 -0.74505805969E-08  0.93827000000E+00  0.93827000000E+00 0. -1.
     999902    2    1    2    0    0 -0.22048961508E-01  0.81191997962E-02 -0.87752883799E-02  0.10188484571E+01  0.10185396873E+01 0.  0.
     999903    2    3    3    0    0  0.40272291261E-01  0.25062978605E-01 -0.11875789520E+00  0.12965376300E+00  0.21369376407E-01 0.  0.
         14    1    1    2    0    0  0.22048961508E-01 -0.81191997962E-02  0.87752883799E-02  0.25081542916E-01  0.00000000000E+00 0.  1.
     999901    1    3    3    0    0 -0.62321252769E-01 -0.16943778809E-01  0.10998260682E+00  0.88919469409E+00  0.88000000000E+00 0.  1.
        -11    1    4    4    0    0  0.12303720665E-01  0.19209521233E-01 -0.62869062053E-01  0.66881741400E-01  0.51100000000E-03 0.  1.
         11    1    4    4    0    0  0.27968570596E-01  0.58534573720E-02 -0.55888833144E-01  0.62772021599E-01  0.51100000000E-03 0. -1.
</event>
<event>
 8    1  0.1094829E+005  0.1043930E+01  0.7957747E-01            NaN
         13   -1    0    0    0    0  0.00000000000E+00  0.00000000000E+00  0.74505805969E-08  0.10566000000E+00  0.10566000000E+00 0. -1.
     999900   -1    0    0    0    0 -0.00000000000E+00 -0.00000000000E+00 -0.74505805969E-08  0.93827000000E+00  0.93827000000E+00 0. -1.
     999902    2    1    2    0    0 -0.11040255643E-01  0.12300773233E-01 -0.16857800959E-01  0.10203210669E+01  0.10200478900E+01 0.  0.
     999903    2    3    3    0    0  0.47324094472E-01  0.92460133905E-01 -0.79379943245E-01  0.13254804486E+00  0.21894349208E-01 0.  0.
         14    1    1    2    0    0  0.11040255643E-01 -0.12300773233E-01  0.16857800959E-01  0.23608933055E-01  0.00000000000E+00 0. -1.
     999901    1    3    3    0    0 -0.58364350115E-01 -0.80159360671E-01  0.62522142286E-01  0.88777302209E+00  0.88000000000E+00 0.  1.
        -11    1    4    4    0    0  0.28558384693E-01  0.50083150575E-01 -0.57013942264E-01  0.81084857040E-01  0.51100000000E-03 0. -1.
         11    1    4    4    0    0  0.18765709778E-01  0.42376983330E-01 -0.22366000981E-01  0.51463187819E-01  0.51100000000E-03 0.  1.
</event>
<event>
 8    1  0.1094829E+005  0.1043930E+01  0.7957747E-01            NaN
         13   -1    0    0    0    0  0.00000000000E+00  0.00000000000E+00  0.74505805969E-08  0.10566000000E+00  0.10566000000E+00 0. -1.
     999900   -1    0    0    0    0 -0.00000000000E+00 -0.00000000000E+00 -0.74505805969E-08  0.93827000000E+00  0.93827000000E+00 0.  1.
     999902    2    1    2    0    0 -0.22582420590E-01 -0.89738934258E-02 -0.52275282786E-02  0.10190739437E+01  0.10187707687E+01 0.  0.
     999903    2    3    3    0    0 -0.12583622373E-01 -0.50249632535E-01  0.11704014410E+00  0.12960609925E+00  0.20395404149E-01 0.  0.
         14    1    1    2    0    0  0.22582420590E-01  0.89738934258E-02  0.52275282786E-02  0.24856056301E-01  0.00000000000E+00 0.  1.
     999901    1    3    3    0    0 -0.99987982167E-02  0.41275739109E-01 -0.12226767237E+00  0.88946784445E+00  0.88000000000E+00 0.  1.
        -11    1    4    4    0    0  0.66888643318E-03 -0.36707095945E-01  0.77283534231E-01  0.85562048164E-01  0.51100000000E-03 0. -1.
         11    1    4    4    0    0 -0.13252508806E-01 -0.13542536590E-01  0.39756609865E-01  0.44044051084E-01  0.51100000000E-03 0.  1.
</event>
<event>
 8    1  0.1094829E+005  0.1043930E+01  0.7957747E-01            NaN
         13   -1    0    0    0    0  0.00000000000E+00  0.00000000000E+00  0.74505805969E-08  0.10566000000E+00  0.10566000000E+00 0.  1.
     999900   -1    0    0    0    0 -0.00000000000E+00 -0.00000000000E+00 -0.74505805969E-08  0.93827000000E+00  0.93827000000E+00 0. -1.
     999902    2    1    2    0    0  0.17027545425E-01  0.15423491018E-01  0.57048042670E-02  0.10202579454E+01  0.10199832886E+01 0.  0.
     999903    2    3    3    0    0  0.78072332122E-01 -0.53040768290E-01  0.89894714160E-01  0.13149376872E+00  0.17347605995E-01 0.  0.
         14    1    1    2    0    0 -0.17027545425E-01 -0.15423491018E-01 -0.57048042670E-02  0.23672054623E-01  0.00000000000E+00 0. -1.
     999901    1    3    3    0    0 -0.61044786697E-01  0.68464259308E-01 -0.84189909893E-01  0.88876417666E+00  0.88000000000E+00 0. -1.
        -11    1    4    4    0    0  0.16581713945E-01 -0.68624691195E-02  0.25534134359E-01  0.31213776737E-01  0.51100000000E-03 0.  1.
         11    1    4    4    0    0  0.61490618177E-01 -0.46178299171E-01  0.64360579801E-01  0.10027999198E+00  0.51100000000E-03 0. -1.
</event>
<event>
 8    1  0.1094829E+005  0.1043930E+01  0.7957747E-01            NaN
         13   -1    0    0    0    0  0.00000000000E+00  0.00000000000E+00  0.74505805969E-08  0.10566000000E+00  0.10566000000E+00 0. -1.
     999900   -1    0    0    0    0 -0.00000000000E+00 -0.00000000000E+00 -0.74505805969E-08  0.93827000000E+00  0.93827000000E+00 0. -1.
     999902    2    1    2    0    0  0.92792858112E-02 -0.18873971563E-01  0.11976055062E-01  0.10197275654E+01  0.10194403120E+01 0.  0.
     999903    2    3    3    0    0  0.63245715644E-01  0.11012733674E+00 -0.22505571608E-03  0.12860323049E+00  0.20265473065E-01 0.  0.
         14    1    1    2    0    0 -0.92792858112E-02  0.18873971563E-01 -0.11976055062E-01  0.24202434641E-01  0.00000000000E+00 0.  1.
     999901    1    3    3    0    0 -0.53966429833E-01 -0.12900130830E+00  0.12201110778E-01  0.89112433487E+00  0.88000000000E+00 0.  1.
        -11    1    4    4    0    0  0.47833364403E-01  0.84384220143E-01 -0.87871942959E-02  0.97397141970E-01  0.51100000000E-03 0.  1.
         11    1    4    4    0    0  0.15412351241E-01  0.25743116593E-01  0.85621385798E-02  0.31206088520E-01  0.51100000000E-03 0. -1.
</event>
<event>
 8    1  0.1094829E+005  0.1043930E+01  0.7957747E-01            NaN
         13   -1    0    0    0    0  0.00000000000E+00  0.00000000000E+00  0.74505805969E-08  0.10566000000E+00  0.10566000000E+00 0.  1.
     999900   -1    0    0    0    0 -0.00000000000E+00 -0.00000000000E+00 -0.74505805969E-08  0.93827000000E+00  0.93827000000E+00 0.  1.
     999902    2    1    2    0    0 -0.27858778422E-02 -0.16605357659E-01  0.14263677983E-01  0.10218630218E+01  0.10216247275E+01 0.  0.
     999903    2    3    3    0    0  0.67977035346E-01  0.10606594636E+00  0.27527141794E-01  0.13044193262E+00  0.19659398222E-01 0.  0.
         14    1    1    2    0    0  0.27858778422E-02  0.16605357659E-01 -0.14263677983E-01  0.22066978224E-01  0.00000000000E+00 0. -1.
     999901    1    3    3    0    0 -0.70762913189E-01 -0.12267130402E+00 -0.13263463811E-01  0.89142108915E+00  0.88000000000E+00 0. -1.
        -11    1    4    4    0    0  0.17295905319E-01  0.43896391227E-01  0.12806529181E-01  0.48890794780E-01  0.51100000000E-03 0.  1.
         11    1    4    4    0    0  0.50681130027E-01  0.62169555137E-01  0.14720612613E-01  0.81551137843E-01  0.51100000000E-03 0. -1.
</event>
<event>
 8    1  0.1094829E+005  0.1043930E+01  0.7957747E-01            NaN
         13   -1    0    0    0    0  0.00000000000E+00  0.00000000000E+00  0.74505805969E-08  0.10566000000E+00  0.10566000000E+00 0. -1.
     999900   -1    0    0    0    0 -0.00000000000E+00 -0.00000000000E+00 -0.74505805969E-08  0.93827000000E+00  0.93827000000E+00 0.  1.
     999902    2    1    2    0    0  0.21458206811E-01  0.92774343392E-02 -0.46020660651E-02  0.10201034510E+01  0.10198251547E+01 0.  0.
     999903    2    3    3    0    0  0.10167163388E-01  0.11966663751E+00 -0.51013105415E-01  0.13192146036E+00  0.19428315327E-01 0.  0.
         14    1    1    2    0    0 -0.21458206811E-01 -0.92774343392E-02  0.46020660651E-02  0.23826549048E-01  0.00000000000E+00 0.  1.
     999901    1    3    3    0    0  0.11291043423E-01 -0.11038920317E+00  0.46411039350E-01  0.88818199059E+00  0.88000000000E+00 0. -1.
        -11    1    4    4    0    0  0.74914990879E-02  0.70520227345E-01 -0.19776593133E-01  0.73624722616E-01  0.51100000000E-03 0. -1.
         11    1    4    4    0    0  0.26756643005E-02  0.49146410160E-01 -0.31236512282E-01  0.58296737744E-01  0.51100000000E-03 0.  1.
</event>
<event>
 8    1  0.1962242E+005  0.1043930E+01  0.7957747E-01            NaN
         13   -1    0    0    0    0  0.00000000000E+00  0.00000000000E+00  0.74505805969E-08  0.10566000000E+00  0.10566000000E+00 0. -1.
     999900   -1    0    0    0    0 -0.00000000000E+00 -0.00000000000E+00 -0.74505805969E-08  0.93827000000E+00  0.93827000000E+00 0. -1.
     999902    2    1    2    0    0 -0.23230120350E-01 -0.22362210755E-02  0.22420126481E-03  0.10205914173E+01  0.10203245325E+01 0.  0.
     999903    2    3    3    0    0 -0.72048423582E-01 -0.61750064972E-01 -0.90505838566E-01  0.13258406121E+00  0.19574999551E-01 0.  0.
         14    1    1    2    0    0  0.23230120350E-01  0.22362210755E-02 -0.22420126481E-03  0.23338582699E-01  0.00000000000E+00 0. -1.
     999901    1    3    3    0    0  0.48818303232E-01  0.59513843896E-01  0.90730039831E-01  0.88800735609E+00  0.88000000000E+00 0.  1.
        -11    1    4    4    0    0 -0.44631039345E-01 -0.25773149692E-01 -0.45031534104E-01  0.68441837372E-01  0.51100000000E-03 0.  1.
         11    1    4    4    0    0 -0.27417384237E-01 -0.35976915280E-01 -0.45474304462E-01  0.64142223837E-01  0.51100000000E-03 0. -1.
</event>
<event>
 8    1  0.1094829E+005  0.1043930E+01  0.7957747E-01            NaN
         13   -1    0    0    0    0  0.00000000000E+00  0.00000000000E+00  0.74505805969E-08  0.10566000000E+00  0.10566000000E+00 0.  1.
     999900   -1    0    0    0    0 -0.00000000000E+00 -0.00000000000E+00 -0.74505805969E-08  0.93827000000E+00  0.93827000000E+00 0.  1.
     999902    2    1    2    0    0 -0.19527400516E-01 -0.70715341062E-02 -0.10596072794E-01  0.10206147105E+01  0.10203483643E+01 0.  0.
     999903    2    3    3    0    0 -0.12784566537E+00  0.19474928936E-01 -0.26504300806E-01  0.13343342524E+00  0.19447724830E-01 0.  0.
         14    1    1    2    0    0  0.19527400516E-01  0.70715341062E-02  0.10596072794E-01  0.23315289494E-01  0.00000000000E+00 0.  1.
     999901    1    3    3    0    0  0.10831826485E+00 -0.26546463042E-01  0.15908228012E-01  0.88718128526E+00  0.88000000000E+00 0. -1.
        -11    1    4    4    0    0 -0.96365494992E-01  0.21818052009E-01 -0.15587096760E-01  0.10002776977E+00  0.51100000000E-03 0. -1.
         11    1    4    4    0    0 -0.31480170375E-01 -0.23431230731E-02 -0.10917204046E-01  0.33405655475E-01  0.51100000000E-03 0.  1.
</event>
<event>
 8    1  0.1094829E+005  0.1043930E+01  0.7957747E-01            NaN
         13   -1    0    0    0    0  0.00000000000E+00  0.00000000000E+00  0.74505805969E-08  0.10566000000E+00  0.10566000000E+00 0.  1.
     999900   -1    0    0    0    0 -0.00000000000E+00 -0.00000000000E+00 -0.74505805969E-08  0.93827000000E+00  0.93827000000E+00 0. -1.
     999902    2    1    2    0    0  0.44708777257E-02 -0.21933255403E-01  0.82989806085E-02  0.10200568033E+01  0.10197774034E+01 0.  0.
     999903    2    3    3    0    0  0.63280651955E-01 -0.21791615402E-01  0.11203198404E+00  0.13201449262E+00  0.19933524499E-01 0.  0.
         14    1    1    2    0    0 -0.44708777257E-02  0.21933255403E-01 -0.82989806085E-02  0.23873196672E-01  0.00000000000E+00 0. -1.
     999901    1    3    3    0    0 -0.58809774230E-01 -0.14164000083E-03 -0.10373300344E+00  0.88804231071E+00  0.88000000000E+00 0. -1.
        -11    1    4    4    0    0  0.48671569984E-01 -0.25177481718E-01  0.89450707508E-01  0.10490241897E+00  0.51100000000E-03 0. -1.
         11    1    4    4    0    0  0.14609081971E-01  0.33858663157E-02  0.22581276536E-01  0.27112073653E-01  0.51100000000E-03 0.  1.
</event>
<event>
 8    1  0.1094829E+005  0.1043930E+01  0.7957747E-01            NaN
         13   -1    0    0    0    0  0.00000000000E+00  0.00000000000E+00  0.74505805969E-08  0.10566000000E+00  0.10566000000E+00 0. -1.
     999900   -1    0    0    0    0 -0.00000000000E+00 -0.00000000000E+00 -0.74505805969E-08  0.93827000000E+00  0.93827000000E+00 0. -1.
     999902    2    1    2    0    0 -0.18471457662E-01  0.15693536159E-01 -0.10619987597E-02  0.10196687208E+01  0.10193800521E+01 0.  0.
     999903    2    3    3    0    0 -0.91851230881E-01 -0.88696596836E-01  0.17491217503E-01  0.13027223286E+00  0.19004658921E-01 0.  0.
         14    1    1    2    0    0  0.18471457662E-01 -0.15693536159E-01  0.10619987597E-02  0.24261279164E-01  0.00000000000E+00 0. -1.
     999901    1    3    3    0    0  0.73379773219E-01  0.10439013300E+00 -0.18553216263E-01  0.88939648797E+00  0.88000000000E+00 0.  1.
        -11    1    4    4    0    0 -0.63923957396E-01 -0.50438338113E-01  0.68047674082E-02  0.81712081489E-01  0.51100000000E-03 0.  1.
         11    1    4    4    0    0 -0.27927273485E-01 -0.38258258724E-01  0.10686450095E-01  0.48560151374E-01  0.51100000000E-03 0. -1.
</event>
<event>
 8    1  0.1094829E+005  0.1043930E+01  0.7957747E-01            NaN
         13   -1    0    0    0    0  0.00000000000E+00  0.00000000000E+00  0.74505805969E-08  0.10566000000E+00  0.10566000000E+00 0. -1.
     999900   -1    0    0    0    0 -0.00000000000E+00 -0.00000000000E+00 -0.74505805969E-08  0.93827000000E+00  0.93827000000E+00 0.  1.
     999902    2    1    2    0    0 -0.19881756098E-01  0.44317601153E-02  0.11733347050E-01  0.10204226361E+01  0.10201518319E+01 0.  0.
     999903    2    3    3    0    0  0.10631800670E+00  0.66368911430E-01 -0.21029544505E-01  0.12866257989E+00  0.20086482207E-01 0.  0.
         14    1    1    2    0    0  0.19881756098E-01 -0.44317601153E-02 -0.11733347050E-01  0.23507363873E-01  0.00000000000E+00 0.  1.
     999901    1    3    3    0    0 -0.12619976280E+00 -0.61937151315E-01  0.32762891555E-01  0.89176005624E+00  0.88000000000E+00 0.  1.
        -11    1    4    4    0    0  0.18839088794E-01  0.13331637824E-01  0.37868392316E-02  0.23393270528E-01  0.51100000000E-03 0.  1.
         11    1    4    4    0    0  0.87478917908E-01  0.53037273606E-01 -0.24816383737E-01  0.10526930936E+00  0.51100000000E-03 0. -1.
</event>
<event>
 7    1  0.1094829E+005  0.1043930E+01  0.7957747E-01            NaN
         13   -1    0    0    0    0  0.00000000000E+00  0.00000000000E+00  0.74505805969E-08  0.10566000000E+00  0.10566000000E+00 0. -1.
     999900   -1    0    0    0    0 -0.00000000000E+00 -0.00000000000E+00 -0.74505805969E-08  0.93827000000E+00  0.93827000000E+00 0. -1.
     999903    2    1    2    0    0 -0.32780450404E-01 -0.60775788257E-01  0.73052024551E-01  0.10248607969E+00  0.19963563634E-01 0.  0.
         14    1    1    2    0    0  0.46311929081E-01  0.33248121311E-01 -0.15245545725E-01  0.59014057735E-01  0.00000000000E+00 0. -1.
     999901    1    1    2    0    0 -0.13531478677E-01  0.27527666946E-01 -0.57806478826E-01  0.88242986257E+00  0.88000000000E+00 0. -1.
        -11    1    3    3    0    0 -0.25510190930E-02 -0.13945433201E-01  0.25662003993E-01  0.29322045896E-01  0.51100000000E-03 0. -1.
         11    1    3    3    0    0 -0.30229431311E-01 -0.46830355056E-01  0.47390020558E-01  0.73164033798E-01  0.51100000000E-03 0.  1.
</event>
<event>
 8    1  0.1094829E+005  0.1043930E+01  0.7957747E-01            NaN
         13   -1    0    0    0    0  0.00000000000E+00  0.00000000000E+00  0.74505805969E-08  0.10566000000E+00  0.10566000000E+00 0.  1.
     999900   -1    0    0    0    0 -0.00000000000E+00 -0.00000000000E+00 -0.74505805969E-08  0.93827000000E+00  0.93827000000E+00 0.  1.
     999902    2    1    2    0    0  0.22153688188E-01 -0.23365121701E-02 -0.33763680925E-02  0.10213990202E+01  0.10211504852E+01 0.  0.
     999903    2    3    3    0    0  0.17208768668E-01 -0.23433817830E-01  0.12657243780E+00  0.13159216436E+00  0.21228051546E-01 0.  0.
         14    1    1    2    0    0 -0.22153688188E-01  0.23365121701E-02  0.33763680925E-02  0.22530979804E-01  0.00000000000E+00 0.  1.
     999901    1    3    3    0    0  0.49449195194E-02  0.21097305660E-01 -0.12994880590E+00  0.88980685583E+00  0.88000000000E+00 0.  1.
        -11    1    4    4    0    0  0.22108909338E-01 -0.17000812361E-01  0.98608351998E-01  0.10247780100E+00  0.51100000000E-03 0.  1.
         11    1    4    4    0    0 -0.49001406701E-02 -0.64330054685E-02  0.27964085807E-01  0.29114363362E-01  0.51100000000E-03 0. -1.
</event>
<event>
 8    1  0.1225819E+005  0.1043930E+01  0.7957747E-01            NaN
         13   -1    0    0    0    0  0.00000000000E+00  0.00000000000E+00  0.74505805969E-08  0.10566000000E+00  0.10566000000E+00 0.  1.
     999900   -1    0    0    0    0 -0.00000000000E+00 -0.00000000000E+00 -0.74505805969E-08  0.93827000000E+00  0.93827000000E+00 0.  1.
     999902    2    1    2    0    0  0.94644632175E-02  0.19336735023E-01 -0.94640242377E-02  0.10204129181E+01  0.10201418874E+01 0.  0.
     999903    2    3    3    0    0 -0.37805650373E-01 -0.10121139602E+00  0.65313161282E-01  0.12779993199E+00  0.19849425586E-01 0.  0.
         14    1    1    2    0    0 -0.94644632175E-02 -0.19336735023E-01  0.94640242377E-02  0.23517081879E-01  0.00000000000E+00 0.  1.
     999901    1    3    3    0    0  0.47270113590E-01  0.12054813104E+00 -0.74777185520E-01  0.89261298613E+00  0.88000000000E+00 0. -1.
        -11    1    4    4    0    0 -0.32625842674E-01 -0.60057122773E-01  0.39489893987E-01  0.78936787711E-01  0.51100000000E-03 0. -1.
         11    1    4    4    0    0 -0.51798076982E-02 -0.41154273243E-01  0.25823267295E-01  0.48863144279E-01  0.51100000000E-03 0.  1.
</event>
<event>
 8    1  0.1094829E+005  0.1043930E+01  0.7957747E-01            NaN
         13   -1    0    0    0    0  0.00000000000E+00  0.00000000000E+00  0.74505805969E-08  0.10566000000E+00  0.10566000000E+00 0.  1.
     999900   -1    0    0    0    0 -0.00000000000E+00 -0.00000000000E+00 -0.74505805969E-08  0.93827000000E+00  0.93827000000E+00 0. -1.
     999902    2    1    2    0    0 -0.22196610546E-01 -0.42939962058E-03 -0.78620111837E-02  0.10203782458E+01  0.10201064060E+01 0.  0.
     999903    2    3    3    0    0 -0.41340478603E-01  0.48972263138E-01 -0.11380781981E+00  0.13244157787E+00  0.21937045654E-01 0.  0.
         14    1    1    2    0    0  0.22196610546E-01  0.42939962058E-03  0.78620111837E-02  0.23551754152E-01  0.00000000000E+00 0.  1.
     999901    1    3    3    0    0  0.19143868057E-01 -0.49401662758E-01  0.10594580863E+00  0.88793666797E+00  0.88000000000E+00 0.  1.
        -11    1    4    4    0    0 -0.21054598888E-01  0.36295216367E-01 -0.56829604789E-01  0.70643499113E-01  0.51100000000E-03 0.  1.
         11    1    4    4    0    0 -0.20285879715E-01  0.12677046771E-01 -0.56978215021E-01  0.61798078761E-01  0.51100000000E-03 0. -1.
</event>
<event>
 8    1  0.1094829E+005  0.1043930E+01  0.7957747E-01            NaN
         13   -1    0    0    0    0  0.00000000000E+00  0.00000000000E+00  0.74505805969E-08  0.10566000000E+00  0.10566000000E+00 0. -1.
     999900   -1    0    0    0    0 -0.00000000000E+00 -0.00000000000E+00 -0.74505805969E-08  0.93827000000E+00  0.93827000000E+00 0.  1.
     999902    2    1    2    0    0  0.12455002060E-01 -0.16278669089E-01  0.11585768885E-01  0.10203853152E+01  0.10201136403E+01 0.  0.
     999903    2    3    3    0    0  0.85126599326E-01  0.72225964803E-01 -0.63338100164E-01  0.12980807683E+00  0.19372505627E-01 0.  0.
         14    1    1    2    0    0 -0.12455002060E-01  0.16278669089E-01 -0.11585768885E-01  0.23544684842E-01  0.00000000000E+00 0.  1.
     999901    1    3    3    0    0 -0.72671597266E-01 -0.88504633892E-01  0.74923869049E-01  0.89057723833E+00  0.88000000000E+00 0.  1.
        -11    1    4    4    0    0  0.49232802596E-01  0.41549648123E-01 -0.47358124472E-01  0.79958083926E-01  0.51100000000E-03 0. -1.
         11    1    4    4    0    0  0.35893796730E-01  0.30676316680E-01 -0.15979975691E-01  0.49849992907E-01  0.51100000000E-03 0.  1.
</event>
<event>
 8    1  0.1094829E+005  0.1043930E+01  0.7957747E-01            NaN
         13   -1    0    0    0    0  0.00000000000E+00  0.00000000000E+00  0.74505805969E-08  0.10566000000E+00  0.10566000000E+00 0. -1.
     999900   -1    0    0    0    0 -0.00000000000E+00 -0.00000000000E+00 -0.74505805969E-08  0.93827000000E+00  0.93827000000E+00 0. -1.
     999902    2    1    2    0    0 -0.20315996485E-01  0.92105021528E-03  0.10898900292E-01  0.10208567671E+01  0.10205959852E+01 0.  0.
     999903    2    3    3    0    0 -0.70525233472E-01 -0.63821363432E-01  0.91355468419E-01  0.13339645426E+00  0.20045383792E-01 0.  0.
         14    1    1    2    0    0  0.20315996485E-01 -0.92105021528E-03 -0.10898900292E-01  0.23073232852E-01  0.00000000000E+00 0.  1.
     999901    1    3    3    0    0  0.50209236987E-01  0.64742413647E-01 -0.80456568127E-01  0.88746031289E+00  0.88000000000E+00 0. -1.
        -11    1    4    4    0    0 -0.83210675898E-02 -0.16821018826E-01  0.12823887983E-01  0.22735436309E-01  0.51100000000E-03 0.  1.
         11    1    4    4    0    0 -0.62204165882E-01 -0.47000344606E-01  0.78531580436E-01  0.11066101795E+00  0.51100000000E-03 0. -1.
</event>
<event>
 8    1  0.1094829E+005  0.1043930E+01  0.7957747E-01            NaN
         13   -1    0    0    0    0  0.00000000000E+00  0.00000000000E+00  0.74505805969E-08  0.10566000000E+00  0.10566000000E+00 0.  1.
     999900   -1    0    0    0    0 -0.00000000000E+00 -0.00000000000E+00 -0.74505805969E-08  0.93827000000E+00  0.93827000000E+00 0.  1.
     999902    2    1    2    0    0 -0.21095908672E-01  0.15555629166E-02 -0.75119588868E-02  0.10214825800E+01  0.10212359054E+01 0.  0.
     999903    2    3    3    0    0  0.12488946602E+00 -0.18332742651E-01 -0.18847597214E-01  0.12916213810E+00  0.19853408298E-01 0.  0.
         14    1    1    2    0    0  0.21095908672E-01 -0.15555629166E-02  0.75119588868E-02  0.22447420008E-01  0.00000000000E+00 0.  1.
     999901    1    3    3    0    0 -0.14598537470E+00  0.19888305567E-01  0.11335638327E-01  0.89232044189E+00  0.88000000000E+00 0. -1.
        -11    1    4    4    0    0  0.39740410527E-01 -0.12873863641E-01 -0.12472771236E-01  0.43598941927E-01  0.51100000000E-03 0.  1.
         11    1    4    4    0    0  0.85149055496E-01 -0.54588790099E-02 -0.63748259782E-02  0.85563196172E-01  0.51100000000E-03 0. -1.
</event>
<event>
 8    1  0.1094829E+005  0.1043930E+01  0.7957747E-01            NaN
         13   -1    0    0    0    0  0.00000000000E+00  0.00000000000E+00  0.74505805969E-08  0.10566000000E+00  0.10566000000E+00 0.  1.
     999900   -1    0    0    0    0 -0.00000000000E+00 -0.00000000000E+00 -0.74505805969E-08  0.93827000000E+00  0.93827000000E+00 0. -1.
     999902    2    1    2    0    0 -0.10542819833E-01 -0.16609225063E-01 -0.12093651518E-01  0.10208372779E+01  0.10205760501E+01 0.  0.
     999903    2    3    3    0    0 -0.10386687561E+00 -0.51781770055E-01 -0.63624067743E-01  0.13370601866E+00  0.18963065994E-01 0.  0.
         14    1    1    2    0    0  0.10542819833E-01  0.16609225063E-01  0.12093651518E-01  0.23092722106E-01  0.00000000000E+00 0.  1.
     999901    1    3    3    0    0  0.93324055776E-01  0.35172544991E-01  0.51530416226E-01  0.88713125923E+00  0.88000000000E+00 0.  1.
        -11    1    4    4    0    0 -0.54122158605E-01 -0.16425353833E-01 -0.31166684866E-01  0.64580365957E-01  0.51100000000E-03 0.  1.
         11    1    4    4    0    0 -0.49744717004E-01 -0.35356416222E-01 -0.32457382877E-01  0.69125652706E-01  0.51100000000E-03 0. -1.
</event>
<event>
 8    1  0.1094829E+005  0.1043930E+01  0.7957747E-01            NaN
         13   -1    0    0    0    0  0.00000000000E+00  0.00000000000E+00  0.74505805969E-08  0.10566000000E+00  0.10566000000E+00 0. -1.
     999900   -1    0    0    0    0 -0.00000000000E+00 -0.00000000000E+00 -0.74505805969E-08  0.93827000000E+00  0.93827000000E+00 0. -1.
     999902    2    1    2    0    0  0.45440970366E-03 -0.12376520696E-01  0.19778586685E-01  0.10205938211E+01  0.10203269919E+01 0.  0.
     999903    2    3    3    0    0  0.10748944277E+00 -0.92934070979E-02 -0.69007726509E-01  0.12966789082E+00  0.20281712685E-01 0.  0.
         14    1    1    2    0    0 -0.45440970366E-03  0.12376520696E-01 -0.19778586685E-01  0.23336178864E-01  0.00000000000E+00 0.  1.
     999901    1    3    3    0    0 -0.10703503307E+00 -0.30831135983E-02  0.88786313194E-01  0.89092593031E+00  0.88000000000E+00 0.  1.
        -11    1    4    4    0    0  0.42396901272E-01 -0.87763398954E-02 -0.17678052149E-01  0.46768536734E-01  0.51100000000E-03 0. -1.
         11    1    4    4    0    0  0.65092541501E-01 -0.51706720254E-03 -0.51329674360E-01  0.82899354089E-01  0.51100000000E-03 0.  1.
</event>
<event>
 8    1  0.1094829E+005  0.1043930E+01  0.7957747E-01            NaN
         13   -1    0    0    0    0  0.00000000000E+00  0.00000000000E+00  0.74505805969E-08  0.10566000000E+00  0.10566000000E+00 0.  1.
     999900   -1    0    0    0    0 -0.00000000000E+00 -0.00000000000E+00 -0.74505805969E-08  0.93827000000E+00  0.93827000000E+00 0.  1.
     999902    2    1    2    0    0 -0.15415909728E-01  0.26212493464E-02  0.16264727402E-01  0.10213675848E+01  0.10211183481E+01 0.  0.
     999903    2    3    3    0    0 -0.18111218423E-01  0.78230468690E-01  0.10488443750E+00  0.13368663327E+00  0.20575427623E-01 0.  0.
         14    1    1    2    0    0  0.15415909728E-01 -0.26212493464E-02 -0.16264727402E-01  0.22562415171E-01  0.00000000000E+00 0. -1.
     999901    1    3    3    0    0  0.26953086950E-02 -0.75609219343E-01 -0.88619710098E-01  0.88768095156E+00  0.88000000000E+00 0.  1.
        -11    1    4    4    0    0 -0.99437483319E-02  0.40261270345E-01  0.70589916732E-01  0.81872128871E-01  0.51100000000E-03 0.  1.
         11    1    4    4    0    0 -0.81674700911E-02  0.37969198345E-01  0.34294520768E-01  0.51814504401E-01  0.51100000000E-03 0. -1.
</event>
<event>
 8    1  0.1094829E+005  0.1043930E+01  0.7957747E-01            NaN
         13   -1    0    0    0    0  0.00000000000E+00  0.00000000000E+00  0.74505805969E-08  0.10566000000E+00  0.10566000000E+00 0. -1.
     999900   -1    0    0    0    0 -0.00000000000E+00 -0.00000000000E+00 -0.74505805969E-08  0.93827000000E+00  0.93827000000E+00 0. -1.
     999902    2    1    2    0    0 -0.11453125886E-01 -0.34809279420E-02  0.19557763520E-01  0.10209997347E+01  0.10207422110E+01 0.  0.
     999903    2    3    3    0    0 -0.51844960892E-01  0.10027441480E+00 -0.61700410241E-01  0.13026994276E+00  0.20505100061E-01 0.  0.
         14    1    1    2    0    0  0.11453125886E-01  0.34809279420E-02 -0.19557763520E-01  0.22930265280E-01  0.00000000000E+00 0.  1.
     999901    1    3    3    0    0  0.40391835006E-01 -0.10375534275E+00  0.81258173761E-01  0.89072979196E+00  0.88000000000E+00 0. -1.
        -11    1    4    4    0    0 -0.42850761383E-01  0.65720453342E-01 -0.36298690454E-01  0.86447798053E-01  0.51100000000E-03 0.  1.
         11    1    4    4    0    0 -0.89941995089E-02  0.34553961462E-01 -0.25401719788E-01  0.43822144706E-01  0.51100000000E-03 0. -1.
</event>
<event>
 8    1  0.1094829E+005  0.1043930E+01  0.7957747E-01            NaN
         13   -1    0    0    0    0  0.00000000000E+00  0.00000000000E+00  0.74505805969E-08  0.10566000000E+00  0.10566000000E+00 0.  1.
     999900   -1    0    0    0    0 -0.00000000000E+00 -0.00000000000E+00 -0.74505805969E-08  0.93827000000E+00  0.93827000000E+00 0.  1.
     999902    2    1    2    0    0 -0.19741587935E-02  0.14418729922E-01  0.19057272710E-01  0.10199513278E+01  0.10196694241E+01 0.  0.
     999903    2    3    3    0    0 -0.10669636700E+00  0.64321689842E-01  0.38912005797E-01  0.13211617606E+00  0.20473037557E-01 0.  0.
         14    1    1    2    0    0  0.19741587935E-02 -0.14418729922E-01 -0.19057272710E-01  0.23978672162E-01  0.00000000000E+00 0. -1.
     999901    1    3    3    0    0  0.10472220821E+00 -0.49902959920E-01 -0.19854733087E-01  0.88783515177E+00  0.88000000000E+00 0.  1.
        -11    1    4    4    0    0 -0.50601355147E-01  0.23900579740E-01  0.26284606521E-01  0.61829414647E-01  0.51100000000E-03 0. -1.
         11    1    4    4    0    0 -0.56095011855E-01  0.40421110102E-01  0.12627399276E-01  0.70286761416E-01  0.51100000000E-03 0.  1.
</event>
<event>
 8    1  0.1094829E+005  0.1043930E+01  0.7957747E-01            NaN
         13   -1    0    0    0    0  0.00000000000E+00  0.00000000000E+00  0.74505805969E-08  0.10566000000E+00  0.10566000000E+00 0. -1.
     999900   -1    0    0    0    0 -0.00000000000E+00 -0.00000000000E+00 -0.74505805969E-08  0.93827000000E+00  0.93827000000E+00 0.  1.
     999902    2    1    2    0    0 -0.91672534956E-02 -0.94000947441E-04  0.21287541683E-01  0.10207522779E+01  0.10204891013E+01 0.  0.
     999903    2    3    3    0    0  0.16034282524E-01  0.11585113072E+00 -0.52359924195E-01  0.12974030251E+00  0.20307676586E-01 0.  0.
         14    1    1    2    0    0  0.91672534956E-02  0.94000947441E-04 -0.21287541683E-01  0.23177722143E-01  0.00000000000E+00 0.  1.
     999901    1    3    3    0    0 -0.25201536020E-01 -0.11594513167E+00  0.73647465878E-01  0.89101197534E+00  0.88000000000E+00 0. -1.
        -11    1    4    4    0    0  0.16130731699E-01  0.97185500246E-01 -0.51211916351E-01  0.11103217309E+00  0.51100000000E-03 0. -1.
         11    1    4    4    0    0 -0.96449175084E-04  0.18665630478E-01 -0.11480078441E-02  0.18708129425E-01  0.51100000000E-03 0.  1.
</event>
<event>
 8    1  0.1094829E+005  0.1043930E+01  0.7957747E-01            NaN
         13   -1    0    0    0    0  0.00000000000E+00  0.00000000000E+00  0.74505805969E-08  0.10566000000E+00  0.10566000000E+00 0.  1.
     999900   -1    0    0    0    0 -0.00000000000E+00 -0.00000000000E+00 -0.74505805969E-08  0.93827000000E+00  0.93827000000E+00 0. -1.
     999902    2    1    2    0    0  0.16693969332E-01  0.12164102265E-01 -0.13525748259E-01  0.10192399238E+01  0.10189408336E+01 0.  0.
     999903    2    3    3    0    0  0.80871721811E-01  0.10037407442E+00  0.19349022643E-01  0.13189527056E+00  0.20168974076E-01 0.  0.
         14    1    1    2    0    0 -0.16693969332E-01 -0.12164102265E-01  0.13525748259E-01  0.24690076183E-01  0.00000000000E+00 0. -1.
     999901    1    3    3    0    0 -0.64177752480E-01 -0.88209972152E-01 -0.32874770902E-01  0.88734465326E+00  0.88000000000E+00 0.  1.
        -11    1    4    4    0    0  0.75179935419E-01  0.84122946213E-01  0.13146428840E-01  0.11358601358E+00  0.51100000000E-03 0.  1.
         11    1    4    4    0    0  0.56917863927E-02  0.16251128204E-01  0.62025938036E-02  0.18309256980E-01  0.51100000000E-03 0. -1.
</event>
<event>
 8    1  0.1094829E+005  0.1043930E+01  0.7957747E-01            NaN
         13   -1    0    0    0    0  0.00000000000E+00  0.00000000000E+00  0.74505805969E-08  0.10566000000E+00  0.10566000000E+00 0.  1.
     999900   -1    0    0    0    0 -0.00000000000E+00 -0.00000000000E+00 -0.74505805969E-08  0.93827000000E+00  0.93827000000E+00 0. -1.
     999902    2    1    2    0    0  0.13250568094E-01  0.11383914305E-01  0.18827656367E-01  0.10182463144E+01  0.10179223473E+01 0.  0.
     999903    2    3    3    0    0  0.18378786417E-01 -0.46954246050E-01 -0.11404119946E+00  0.12634734459E+00  0.20390568830E-01 0.  0.
         14    1    1    2    0    0 -0.13250568094E-01 -0.11383914305E-01 -0.18827656367E-01  0.25683685561E-01  0.00000000000E+00 0. -1.
     999901    1    3    3    0    0 -0.51282183229E-02  0.58338160355E-01  0.13286885583E+00  0.89189896985E+00  0.88000000000E+00 0.  1.
        -11    1    4    4    0    0  0.21823418658E-01 -0.30356060994E-01 -0.76170276324E-01  0.84852366834E-01  0.51100000000E-03 0.  1.
         11    1    4    4    0    0 -0.34446322414E-02 -0.16598185056E-01 -0.37870923136E-01  0.41494977752E-01  0.51100000000E-03 0. -1.
</event>
<event>
 8    1  0.1094829E+005  0.1043930E+01  0.7957747E-01            NaN
         13   -1    0    0    0    0  0.00000000000E+00  0.00000000000E+00  0.74505805969E-08  0.10566000000E+00  0.10566000000E+00 0.  1.
     999900   -1    0    0    0    0 -0.00000000000E+00 -0.00000000000E+00 -0.74505805969E-08  0.93827000000E+00  0.93827000000E+00 0.  1.
     999902    2    1    2    0    0  0.16549233723E-01 -0.22520063892E-01  0.45551953973E-02  0.10156142761E+01  0.10152194726E+01 0.  0.
     999903    2    3    3    0    0  0.12267490818E+00  0.27191411456E-01  0.10906453367E-01  0.12782250545E+00  0.20763819990E-01 0.  0.
         14    1    1    2    0    0 -0.16549233723E-01  0.22520063892E-01 -0.45551953973E-02  0.28315723894E-01  0.00000000000E+00 0.  1.
     999901    1    3    3    0    0 -0.10612567446E+00 -0.49711475348E-01 -0.63512579696E-02  0.88779177065E+00  0.88000000000E+00 0.  1.
        -11    1    4    4    0    0  0.48392920941E-01  0.21169962960E-01  0.39310958666E-02  0.52969394603E-01  0.51100000000E-03 0. -1.
         11    1    4    4    0    0  0.74281987243E-01  0.60214484959E-02  0.69753575004E-02  0.74853110851E-01  0.51100000000E-03 0.  1.
</event>
<event>
 8    1  0.1094829E+005  0.1043930E+01  0.7957747E-01            NaN
         13   -1    0    0    0    0  0.00000000000E+00  0.00000000000E+00  0.74505805969E-08  0.10566000000E+00  0.10566000000E+00 0.  1.
     999900   -1    0    0    0    0 -0.00000000000E+00 -0.00000000000E+00 -0.74505805969E-08  0.93827000000E+00  0.93827000000E+00 0.  1.
     999902    2    1    2    0    0  0.55739968742E-02  0.17853554198E-01 -0.14404030166E-01  0.10203229052E+01  0.10200497713E+01 0.  0.
     999903    2    3    3    0    0 -0.11579034615E+00  0.32247058010E-01  0.44927039432E-01  0.12989792100E+00  0.20192919504E-01 0.  0.
         14    1    1    2    0    0 -0.55739968742E-02 -0.17853554198E-01  0.14404030166E-01  0.23607094774E-01  0.00000000000E+00 0.  1.
     999901    1    3    3    0    0  0.12136434302E+00 -0.14393503812E-01 -0.59331069598E-01  0.89042498422E+00  0.88000000000E+00 0. -1.
        -11    1    4    4    0    0 -0.66255490621E-01  0.81067755433E-02  0.23346728362E-01  0.70716622469E-01  0.51100000000E-03 0. -1.
         11    1    4    4    0    0 -0.49534855524E-01  0.24140282466E-01  0.21580311070E-01  0.59181298534E-01  0.51100000000E-03 0.  1.
</event>
<event>
 8    1  0.1094829E+005  0.1043930E+01  0.7957747E-01            NaN
         13   -1    0    0    0    0  0.00000000000E+00  0.00000000000E+00  0.74505805969E-08  0.10566000000E+00  0.10566000000E+00 0. -1.
     999900   -1    0    0    0    0 -0.00000000000E+00 -0.00000000000E+00 -0.74505805969E-08  0.93827000000E+00  0.93827000000E+00 0. -1.
     999902    2    1    2    0    0 -0.22302772636E-01  0.50268790721E-02 -0.36365934228E-02  0.10207803133E+01  0.10205177804E+01 0.  0.
     999903    2    3    3    0    0  0.72460339923E-01 -0.88693868940E-01 -0.56255313144E-01  0.12919052214E+00  0.20209589453E-01 0.  0.
         14    1    1    2    0    0  0.22302772636E-01 -0.50268790721E-02  0.36365934228E-02  0.23149686654E-01  0.00000000000E+00 0.  1.
     999901    1    3    3    0    0 -0.94763112558E-01  0.93720748012E-01  0.52618719721E-01  0.89158979120E+00  0.88000000000E+00 0. -1.
        -11    1    4    4    0    0  0.64215032767E-02 -0.14085643618E-01 -0.14295667153E-01  0.21077672566E-01  0.51100000000E-03 0.  1.
         11    1    4    4    0    0  0.66038836646E-01 -0.74608225323E-01 -0.41959645990E-01  0.10811284958E+00  0.51100000000E-03 0. -1.
</event>
<event>
 8    1  0.1094829E+005  0.1043930E+01  0.7957747E-01            NaN
         13   -1    0    0    0    0  0.00000000000E+00  0.00000000000E+00  0.74505805969E-08  0.10566000000E+00  0.10566000000E+00 0. -1.
     999900   -1    0    0    0    0 -0.00000000000E+00 -0.00000000000E+00 -0.74505805969E-08  0.93827000000E+00  0.93827000000E+00 0.  1.
     999902    2    1    2    0    0  0.84167932071E-02 -0.21346961926E-01  0.64509844749E-02  0.10200940945E+01  0.10198155771E+01 0.  0.
     999903    2    3    3    0    0 -0.30760511418E-01 -0.84408083395E-01 -0.93557137108E-01  0.13132348818E+00  0.20542323107E-01 0.  0.
         14    1    1    2    0    0 -0.84167932071E-02  0.21346961926E-01 -0.64509844749E-02  0.23835905522E-01  0.00000000000E+00 0. -1.
     999901    1    3    3    0    0  0.39177304625E-01  0.63061121469E-01  0.10000812158E+00  0.88877060630E+00  0.88000000000E+00 0. -1.
        -11    1    4    4    0    0  0.39337733332E-03 -0.10205060226E-01 -0.19194691214E-01  0.21748454927E-01  0.51100000000E-03 0. -1.
         11    1    4    4    0    0 -0.31153888751E-01 -0.74203023169E-01 -0.74362445894E-01  0.10957503325E+00  0.51100000000E-03 0.  1.
</event>
<event>
 8    1  0.1094829E+005  0.1043930E+01  0.7957747E-01            NaN
         13   -1    0    0    0    0  0.00000000000E+00  0.00000000000E+00  0.74505805969E-08  0.10566000000E+00  0.10566000000E+00 0. -1.
     999900   -1    0    0    0    0 -0.00000000000E+00 -0.00000000000E+00 -0.74505805969E-08  0.93827000000E+00  0.93827000000E+00 0.  1.
     999902    2    1    2    0    0 -0.17699976559E-01 -0.37277619061E-02  0.14068981868E-01  0.10210144675E+01  0.10207572783E+01 0.  0.
     999903    2    3    3    0    0  0.70892150429E-01  0.58486246714E-01 -0.87338016957E-01  0.12860059085E+00  0.21537054415E-01 0.  0.
         14    1    1    2    0    0  0.17699976559E-01  0.37277619061E-02 -0.14068981868E-01  0.22915532501E-01  0.00000000000E+00 0.  1.
     999901    1    3    3    0    0 -0.88592126988E-01 -0.62214008620E-01  0.10140699882E+00  0.89241387665E+00  0.88000000000E+00 0. -1.
        -11    1    4    4    0    0  0.45013702673E-01  0.25442259231E-01 -0.55970448783E-01  0.76200355912E-01  0.51100000000E-03 0.  1.
         11    1    4    4    0    0  0.25878447756E-01  0.33043987483E-01 -0.31367568174E-01  0.52400234934E-01  0.51100000000E-03 0. -1.
</event>
<event>
 8    1  0.1094829E+005  0.1043930E+01  0.7957747E-01            NaN
         13   -1    0    0    0    0  0.00000000000E+00  0.00000000000E+00  0.74505805969E-08  0.10566000000E+00  0.10566000000E+00 0.  1.
     999900   -1    0    0    0    0 -0.00000000000E+00 -0.00000000000E+00 -0.74505805969E-08  0.93827000000E+00  0.93827000000E+00 0. -1.
     999902    2    1    2    0    0 -0.37005390235E-03  0.14838859338E-01  0.18699415726E-01  0.10200553935E+01  0.10197759602E+01 0.  0.
     999903    2    3    3    0    0  0.42892489868E-01  0.80094080587E-01 -0.90539745167E-01  0.12985143606E+00  0.20226778294E-01 0.  0.
         14    1    1    2    0    0  0.37005390235E-03 -0.14838859338E-01 -0.18699415726E-01  0.23874606485E-01  0.00000000000E+00 0. -1.
     999901    1    3    3    0    0 -0.43262543771E-01 -0.65255221250E-01  0.10923916089E+00  0.89020395745E+00  0.88000000000E+00 0.  1.
        -11    1    4    4    0    0  0.40811885484E-01  0.59424207432E-01 -0.73794872839E-01  0.10316390262E+00  0.51100000000E-03 0.  1.
         11    1    4    4    0    0  0.20806043844E-02  0.20669873156E-01 -0.16744872327E-01  0.26687533440E-01  0.51100000000E-03 0. -1.
</event>
<event>
 8    1  0.1094829E+005  0.1043930E+01  0.7957747E-01            NaN
         13   -1    0    0    0    0  0.00000000000E+00  0.00000000000E+00  0.74505805969E-08  0.10566000000E+00  0.10566000000E+00 0.  1.
     999900   -1    0    0    0    0 -0.00000000000E+00 -0.00000000000E+00 -0.74505805969E-08  0.93827000000E+00  0.93827000000E+00 0. -1.
     999902    2    1    2    0    0 -0.97692423225E-02 -0.20207596208E-01 -0.80707274842E-02  0.10200779208E+01  0.10197990208E+01 0.  0.
     999903    2    3    3    0    0 -0.19524865607E-01  0.31702364287E-01 -0.12385472983E+00  0.13092340589E+00  0.20363787254E-01 0.  0.
         14    1    1    2    0    0  0.97692423225E-02  0.20207596208E-01  0.80707274842E-02  0.23852079201E-01  0.00000000000E+00 0.  1.
     999901    1    3    3    0    0  0.97556232843E-02 -0.51909960495E-01  0.11578400234E+00  0.88915451491E+00  0.88000000000E+00 0.  1.
        -11    1    4    4    0    0  0.49968371014E-03  0.12605946570E-01 -0.60246852944E-01  0.61555698220E-01  0.51100000000E-03 0.  1.
         11    1    4    4    0    0 -0.20024549317E-01  0.19096417717E-01 -0.63607876882E-01  0.69367707670E-01  0.51100000000E-03 0. -1.
</event>
<event>
 8    1  0.1094829E+005  0.1043930E+01  0.7957747E-01            NaN
         13   -1    0    0    0    0  0.00000000000E+00  0.00000000000E+00  0.74505805969E-08  0.10566000000E+00  0.10566000000E+00 0. -1.
     999900   -1    0    0    0    0 -0.00000000000E+00 -0.00000000000E+00 -0.74505805969E-08  0.93827000000E+00  0.93827000000E+00 0. -1.
     999902    2    1    2    0    0  0.14059201666E-01 -0.18157446250E-01 -0.79241769229E-02  0.10196370672E+01  0.10193476356E+01 0.  0.
     999903    2    3    3    0    0  0.12735602870E+00  0.19634171200E-01  0.65869160558E-02  0.13145074145E+00  0.25116752186E-01 0.  0.
         14    1    1    2    0    0 -0.14059201666E-01  0.18157446250E-01  0.79241769229E-02  0.24292932835E-01  0.00000000000E+00 0. -1.
     999901    1    3    3    0    0 -0.11329682703E+00 -0.37791617450E-01 -0.14511092979E-01  0.88818632571E+00  0.88000000000E+00 0.  1.
        -11    1    4    4    0    0  0.61643310923E-01  0.41347636413E-02 -0.82201213346E-02  0.62328368884E-01  0.51100000000E-03 0.  1.
         11    1    4    4    0    0  0.65712717776E-01  0.15499407558E-01  0.14807037390E-01  0.69122372568E-01  0.51100000000E-03 0. -1.
</event>
<event>
 8    1  0.1094829E+005  0.1043930E+01  0.7957747E-01            NaN
         13   -1    0    0    0    0  0.00000000000E+00  0.00000000000E+00  0.74505805969E-08  0.10566000000E+00  0.10566000000E+00 0.  1.
     999900   -1    0    0    0    0 -0.00000000000E+00 -0.00000000000E+00 -0.74505805969E-08  0.93827000000E+00  0.93827000000E+00 0. -1.
     999902    2    1    2    0    0  0.19639038232E-01 -0.12569938594E-01  0.87990716061E-02  0.10190077441E+01  0.10187029320E+01 0.  0.
     999903    2    3    3    0    0  0.11157648347E+00 -0.19199856244E-01  0.64793893473E-01  0.13242336021E+00  0.22798060347E-01 0.  0.
         14    1    1    2    0    0 -0.19639038232E-01  0.12569938594E-01 -0.87990716061E-02  0.24922255919E-01  0.00000000000E+00 0. -1.
     999901    1    3    3    0    0 -0.91937445236E-01  0.66299176499E-02 -0.55994821867E-01  0.88658438387E+00  0.88000000000E+00 0. -1.
        -11    1    4    4    0    0  0.67090238082E-01 -0.31184716872E-02  0.29277611281E-01  0.73268441739E-01  0.51100000000E-03 0. -1.
         11    1    4    4    0    0  0.44486245386E-01 -0.16081384557E-01  0.35516282192E-01  0.59154918473E-01  0.51100000000E-03 0.  1.
</event>
<event>
 8    1  0.1094829E+005  0.1043930E+01  0.7957747E-01            NaN
         13   -1    0    0    0    0  0.00000000000E+00  0.00000000000E+00  0.74505805969E-08  0.10566000000E+00  0.10566000000E+00 0.  1.
     999900   -1    0    0    0    0 -0.00000000000E+00 -0.00000000000E+00 -0.74505805969E-08  0.93827000000E+00  0.93827000000E+00 0. -1.
     999902    2    1    2    0    0  0.14170183672E-01 -0.14753823086E-01  0.59022993024E-03  0.10234649622E+01  0.10232603340E+01 0.  0.
     999903    2    3    3    0    0 -0.21090176253E-01  0.12754675362E-01  0.12912046140E+00  0.13300438987E+00  0.20263190601E-01 0.  0.
         14    1    1    2    0    0 -0.14170183672E-01  0.14753823086E-01 -0.59022993024E-03  0.20465037804E-01  0.00000000000E+00 0.  1.
     999901    1    3    3    0    0  0.35260359925E-01 -0.27508498448E-01 -0.12853023147E+00  0.89046057233E+00  0.88000000000E+00 0. -1.
        -11    1    4    4    0    0 -0.18742669468E-01  0.16422385321E-01  0.82622830081E-01  0.86300495769E-01  0.51100000000E-03 0. -1.
         11    1    4    4    0    0 -0.23475067848E-02 -0.36677099593E-02  0.46497631322E-01  0.46703894099E-01  0.51100000000E-03 0.  1.
</event>
<event>
 8    1  0.1094829E+005  0.1043930E+01  0.7957747E-01            NaN
         13   -1    0    0    0    0  0.00000000000E+00  0.00000000000E+00  0.74505805969E-08  0.10566000000E+00  0.10566000000E+00 0.  1.
     999900   -1    0    0    0    0 -0.00000000000E+00 -0.00000000000E+00 -0.74505805969E-08  0.93827000000E+00  0.93827000000E+00 0.  1.
     999902    2    1    2    0    0 -0.23621486116E-02  0.26898679080E-01  0.51949689913E-02  0.10164326113E+01  0.10160606020E+01 0.  0.
     999903    2    3    3    0    0  0.10147529554E+00  0.52396623774E-01 -0.54369404355E-01  0.12796186076E+00  0.19379470914E-01 0.  0.
         14    1    1    2    0    0  0.23621486116E-02 -0.26898679080E-01 -0.51949689913E-02  0.27497388696E-01  0.00000000000E+00 0.  1.
     999901    1    3    3    0    0 -0.10383744415E+00 -0.25497944694E-01  0.59564373346E-01  0.88847075054E+00  0.88000000000E+00 0. -1.
        -11    1    4    4    0    0  0.33679566295E-01  0.26175588163E-01 -0.25826677505E-01  0.49867353985E-01  0.51100000000E-03 0.  1.
         11    1    4    4    0    0  0.67795729243E-01  0.26221035611E-01 -0.28542726850E-01  0.78094506780E-01  0.51100000000E-03 0. -1.
</event>
<event>
 8    1  0.1094829E+005  0.1043930E+01  0.7957747E-01            NaN
         13   -1    0    0    0    0  0.00000000000E+00  0.00000000000E+00  0.74505805969E-08  0.10566000000E+00  0.10566000000E+00 0. -1.
     999900   -1    0    0    0    0 -0.00000000000E+00 -0.00000000000E+00 -0.74505805969E-08  0.93827000000E+00  0.93827000000E+00 0.  1.
     999902    2    1    2    0    0  0.19808440238E-01 -0.10801804371E-01 -0.62323554414E-02  0.10205228315E+01  0.10202543575E+01 0.  0.
     999903    2    3    3    0    0  0.78804327926E-01  0.25177110922E-01 -0.10177803693E+00  0.13265799137E+00  0.19883783817E-01 0.  0.
         14    1    1    2    0    0 -0.19808440238E-01  0.10801804371E-01  0.62323554414E-02  0.23407168489E-01  0.00000000000E+00 0. -1.
     999901    1    3    3    0    0 -0.58995887688E-01 -0.35978915293E-01  0.95545681486E-01  0.88786484014E+00  0.88000000000E+00 0. -1.
        -11    1    4    4    0    0  0.53743696615E-01  0.85827731943E-02 -0.72871079975E-01  0.90953308567E-01  0.51100000000E-03 0.  1.
         11    1    4    4    0    0  0.25060631312E-01  0.16594337728E-01 -0.28906956952E-01  0.41704682802E-01  0.51100000000E-03 0. -1.
</event>
<event>
 8    1  0.1094829E+005  0.1043930E+01  0.7957747E-01            NaN
         13   -1    0    0    0    0  0.00000000000E+00  0.00000000000E+00  0.74505805969E-08  0.10566000000E+00  0.10566000000E+00 0. -1.
     999900   -1    0    0    0    0 -0.00000000000E+00 -0.00000000000E+00 -0.74505805969E-08  0.93827000000E+00  0.93827000000E+00 0.  1.
     999902    2    1    2    0    0  0.33726988999E-02  0.11719815109E-01 -0.20511005580E-01  0.10200672568E+01  0.10197881044E+01 0.  0.
     999903    2    3    3    0    0 -0.41127731205E-01  0.12317153479E+00 -0.78845829084E-02  0.13183237757E+00  0.21328194285E-01 0.  0.
         14    1    1    2    0    0 -0.33726988999E-02 -0.11719815109E-01  0.20511005580E-01  0.23862743219E-01  0.00000000000E+00 0. -1.
     999901    1    3    3    0    0  0.44500430105E-01 -0.11145171968E+00 -0.12626422672E-01  0.88823487921E+00  0.88000000000E+00 0. -1.
        -11    1    4    4    0    0 -0.47954712330E-02  0.42051010756E-01 -0.72524972258E-02  0.42943496445E-01  0.51100000000E-03 0. -1.
         11    1    4    4    0    0 -0.36332259972E-01  0.81120524033E-01 -0.63208568256E-03  0.88888881124E-01  0.51100000000E-03 0.  1.
</event>
<event>
 8    1  0.1094829E+005  0.1043930E+01  0.7957747E-01            NaN
         13   -1    0    0    0    0  0.00000000000E+00  0.00000000000E+00  0.74505805969E-08  0.10566000000E+00  0.10566000000E+00 0.  1.
     999900   -1    0    0    0    0 -0.00000000000E+00 -0.00000000000E+00 -0.74505805969E-08  0.93827000000E+00  0.93827000000E+00 0. -1.
     999902    2    1    2    0    0 -0.23437106460E-01  0.31905164301E-02 -0.23768206190E-02  0.10201576078E+01  0.10198805901E+01 0.  0.
     999903    2    3    3    0    0  0.80652221102E-01  0.56039482651E-02  0.97503043099E-01  0.12840854000E+00  0.21112193765E-01 0.  0.
         14    1    1    2    0    0  0.23437106460E-01 -0.31905164301E-02  0.23768206190E-02  0.23772392193E-01  0.00000000000E+00 0. -1.
     999901    1    3    3    0    0 -0.10408932756E+00 -0.24134318349E-02 -0.99879863718E-01  0.89174906781E+00  0.88000000000E+00 0. -1.
        -11    1    4    4    0    0  0.39913668621E-01 -0.37828755659E-02  0.35067092200E-01  0.53266998852E-01  0.51100000000E-03 0. -1.
         11    1    4    4    0    0  0.40738552481E-01  0.93868238310E-02  0.62435950899E-01  0.75141541144E-01  0.51100000000E-03 0.  1.
</event>
<event>
 7    1  0.1094829E+005  0.1043930E+01  0.7957747E-01            NaN
         13   -1    0    0    0    0  0.00000000000E+00  0.00000000000E+00  0.74505805969E-08  0.10566000000E+00  0.10566000000E+00 0.  1.
     999900   -1    0    0    0    0 -0.00000000000E+00 -0.00000000000E+00 -0.74505805969E-08  0.93827000000E+00  0.93827000000E+00 0. -1.
     999903    2    1    2    0    0 -0.18509426049E-01 -0.50508516997E-01 -0.10100942582E+00  0.11613554225E+00  0.19769950076E-01 0.  0.
         14    1    1    2    0    0 -0.17651806757E-01 -0.31460683024E-01  0.15018251632E-01  0.39075679651E-01  0.00000000000E+00 0. -1.
     999901    1    1    2    0    0  0.36161232806E-01  0.81969200021E-01  0.85991174193E-01  0.88871877810E+00  0.88000000000E+00 0. -1.
        -11    1    3    3    0    0  0.59841702588E-03  0.68363710580E-03 -0.94653341110E-02  0.95225591866E-02  0.51100000000E-03 0. -1.
         11    1    3    3    0    0 -0.19107843075E-01 -0.51192154102E-01 -0.91544091714E-01  0.10661298306E+00  0.51100000000E-03 0.  1.
</event>
<event>
 8    1  0.1094829E+005  0.1043930E+01  0.7957747E-01            NaN
         13   -1    0    0    0    0  0.00000000000E+00  0.00000000000E+00  0.74505805969E-08  0.10566000000E+00  0.10566000000E+00 0. -1.
     999900   -1    0    0    0    0 -0.00000000000E+00 -0.00000000000E+00 -0.74505805969E-08  0.93827000000E+00  0.93827000000E+00 0. -1.
     999902    2    1    2    0    0 -0.50442412338E-02 -0.67211000393E-02  0.21273053668E-01  0.10210573008E+01  0.10208010831E+01 0.  0.
     999903    2    3    3    0    0  0.26227181954E-01 -0.31370020778E-01  0.12588095057E+00  0.13396751771E+00  0.20720492471E-01 0.  0.
         14    1    1    2    0    0  0.50442412338E-02  0.67211000393E-02 -0.21273053668E-01  0.22872699179E-01  0.00000000000E+00 0.  1.
     999901    1    3    3    0    0 -0.31271423188E-01  0.24648920739E-01 -0.10460789690E+00  0.88708978311E+00  0.88000000000E+00 0. -1.
        -11    1    4    4    0    0  0.86735430264E-02 -0.41591635128E-02  0.57548176126E-01  0.58348801926E-01  0.51100000000E-03 0. -1.
         11    1    4    4    0    0  0.17553638928E-01 -0.27210857265E-01  0.68332774446E-01  0.75618715786E-01  0.51100000000E-03 0.  1.
</event>
<event>
 8    1  0.1094829E+005  0.1043930E+01  0.7957747E-01            NaN
         13   -1    0    0    0    0  0.00000000000E+00  0.00000000000E+00  0.74505805969E-08  0.10566000000E+00  0.10566000000E+00 0.  1.
     999900   -1    0    0    0    0 -0.00000000000E+00 -0.00000000000E+00 -0.74505805969E-08  0.93827000000E+00  0.93827000000E+00 0. -1.
     999902    2    1    2    0    0 -0.14061006712E-01 -0.36320278486E-02 -0.15239329331E-01  0.10228790928E+01  0.10226624554E+01 0.  0.
     999903    2    3    3    0    0 -0.12254714594E+00 -0.35978781969E-01  0.37190761034E-01  0.13407963887E+00  0.16790506921E-01 0.  0.
         14    1    1    2    0    0  0.14061006712E-01  0.36320278486E-02  0.15239329331E-01  0.21050907214E-01  0.00000000000E+00 0.  1.
     999901    1    3    3    0    0  0.10848613923E+00  0.32346754121E-01 -0.52430090365E-01  0.88879945392E+00  0.88000000000E+00 0. -1.
        -11    1    4    4    0    0 -0.99860704594E-01 -0.30818331803E-01  0.36818147452E-01  0.11080508562E+00  0.51100000000E-03 0.  1.
         11    1    4    4    0    0 -0.22686441348E-01 -0.51604501668E-02  0.37261358143E-03  0.23274553246E-01  0.51100000000E-03 0. -1.
</event>
<event>
 7    1  0.1094829E+005  0.1043930E+01  0.7957747E-01            NaN
         13   -1    0    0    0    0  0.00000000000E+00  0.00000000000E+00  0.74505805969E-08  0.10566000000E+00  0.10566000000E+00 0.  1.
     999900   -1    0    0    0    0 -0.00000000000E+00 -0.00000000000E+00 -0.74505805969E-08  0.93827000000E+00  0.93827000000E+00 0.  1.
     999902    2    1    2    0    0 -0.21849795667E-01 -0.62076674204E-02 -0.49010739577E-02  0.10206927620E+01  0.10204282165E+01 0.  0.
         14    1    1    2    0    0  0.21849795667E-01  0.62076674204E-02  0.49010739577E-02  0.23237238033E-01  0.00000000000E+00 0.  1.
     999901    1    3    3    0    0 -0.10842009199E+00  0.62217562524E-01  0.16837923721E-01  0.88899350791E+00  0.88000000000E+00 0. -1.
        -11    1    3    3    0    0  0.75799118896E-01 -0.33168552881E-01  0.96204794442E-02  0.83297503392E-01  0.51100000000E-03 0.  1.
         11    1    3    3    0    0  0.10771177430E-01 -0.35256677063E-01 -0.31359477123E-01  0.48401750663E-01  0.51100000000E-03 0. -1.
</event>
<event>
 8    1  0.1094829E+005  0.1043930E+01  0.7957747E-01            NaN
         13   -1    0    0    0    0  0.00000000000E+00  0.00000000000E+00  0.74505805969E-08  0.10566000000E+00  0.10566000000E+00 0.  1.
     999900   -1    0    0    0    0 -0.00000000000E+00 -0.00000000000E+00 -0.74505805969E-08  0.93827000000E+00  0.93827000000E+00 0. -1.
     999902    2    1    2    0    0 -0.42005286964E-02  0.16959855562E-01  0.15784622447E-01  0.10203835470E+01  0.10201118309E+01 0.  0.
     999903    2    3    3    0    0  0.10167716411E+00  0.77226614356E-01  0.26145919471E-01  0.13193010169E+00  0.20487727047E-01 0.  0.
         14    1    1    2    0    0  0.42005286964E-02 -0.16959855562E-01 -0.15784622447E-01  0.23546452977E-01  0.00000000000E+00 0. -1.
     999901    1    3    3    0    0 -0.10587769281E+00 -0.60266758794E-01 -0.10361297024E-01  0.88845344533E+00  0.88000000000E+00 0.  1.
        -11    1    4    4    0    0  0.37524080989E-01  0.39282722832E-01  0.16468382949E-01  0.56768457132E-01  0.51100000000E-03 0. -1.
         11    1    4    4    0    0  0.64153083125E-01  0.37943891524E-01  0.96775365218E-02  0.75161644557E-01  0.51100000000E-03 0.  1.
</event>
<event>
 8    1  0.1094829E+005  0.1043930E+01  0.7957747E-01            NaN
         13   -1    0    0    0    0  0.00000000000E+00  0.00000000000E+00  0.74505805969E-08  0.10566000000E+00  0.10566000000E+00 0.  1.
     999900   -1    0    0    0    0 -0.00000000000E+00 -0.00000000000E+00 -0.74505805969E-08  0.93827000000E+00  0.93827000000E+00 0.  1.
     999902    2    1    2    0    0 -0.10412804950E-01 -0.29709340021E-02 -0.20923662327E-01  0.10203704457E+01  0.10200984236E+01 0.  0.
     999903    2    3    3    0    0  0.82573117770E-01 -0.37389029224E-02 -0.10081732230E+00  0.13187172956E+00  0.19842414355E-01 0.  0.
         14    1    1    2    0    0  0.10412804950E-01  0.29709340021E-02  0.20923662327E-01  0.23559554345E-01  0.00000000000E+00 0.  1.
     999901    1    3    3    0    0 -0.92985922720E-01  0.76796892034E-03  0.79893659974E-01  0.88849871610E+00  0.88000000000E+00 0.  1.
        -11    1    4    4    0    0  0.23151699377E-01 -0.91808800517E-02 -0.35891896248E-01  0.43689576329E-01  0.51100000000E-03 0.  1.
         11    1    4    4    0    0  0.59421418394E-01  0.54419771293E-02 -0.64925426054E-01  0.88182153230E-01  0.51100000000E-03 0. -1.
</event>
<event>
 8    1  0.1094829E+005  0.1043930E+01  0.7957747E-01            NaN
         13   -1    0    0    0    0  0.00000000000E+00  0.00000000000E+00  0.74505805969E-08  0.10566000000E+00  0.10566000000E+00 0. -1.
     999900   -1    0    0    0    0 -0.00000000000E+00 -0.00000000000E+00 -0.74505805969E-08  0.93827000000E+00  0.93827000000E+00 0. -1.
     999902    2    1    2    0    0 -0.79026596024E-02 -0.25300218754E-02 -0.21781828963E-01  0.10206211795E+01  0.10203549828E+01 0.  0.
     999903    2    3    3    0    0  0.90184658917E-01  0.90049704871E-03 -0.94533638658E-01  0.13218113296E+00  0.20028965842E-01 0.  0.
         14    1    1    2    0    0  0.79026596024E-02  0.25300218754E-02  0.21781828963E-01  0.23308820486E-01  0.00000000000E+00 0. -1.
     999901    1    3    3    0    0 -0.98087318519E-01 -0.34305189241E-02  0.72751809696E-01  0.88844004656E+00  0.88000000000E+00 0.  1.
        -11    1    4    4    0    0  0.26843853496E-01 -0.28369537064E-02 -0.16642081977E-01  0.31715308455E-01  0.51100000000E-03 0.  1.
         11    1    4    4    0    0  0.63340805420E-01  0.37374507551E-02 -0.77891556681E-01  0.10046582450E+00  0.51100000000E-03 0. -1.
</event>
<event>
 8    1  0.1094829E+005  0.1043930E+01  0.7957747E-01            NaN
         13   -1    0    0    0    0  0.00000000000E+00  0.00000000000E+00  0.74505805969E-08  0.10566000000E+00  0.10566000000E+00 0.  1.
     999900   -1    0    0    0    0 -0.00000000000E+00 -0.00000000000E+00 -0.74505805969E-08  0.93827000000E+00  0.93827000000E+00 0. -1.
     999902    2    1    2    0    0  0.11605146112E-01  0.13331782566E-01 -0.17411806287E-01  0.10191189774E+01  0.10188169135E+01 0.  0.
     999903    2    3    3    0    0  0.70873609066E-01  0.10414365802E+00  0.30785013757E-01  0.13115361725E+00  0.19610820387E-01 0.  0.
         14    1    1    2    0    0 -0.11605146112E-01 -0.13331782566E-01  0.17411806287E-01  0.24811022568E-01  0.00000000000E+00 0.  1.
     999901    1    3    3    0    0 -0.59268462954E-01 -0.90811875459E-01 -0.48196820044E-01  0.88796536018E+00  0.88000000000E+00 0. -1.
        -11    1    4    4    0    0  0.27771963079E-01  0.41243291800E-01  0.23784337298E-02  0.49781614275E-01  0.51100000000E-03 0. -1.
         11    1    4    4    0    0  0.43101645987E-01  0.62900366225E-01  0.28406580028E-01  0.81372002973E-01  0.51100000000E-03 0.  1.
</event>
<event>
 8    1  0.1119708E+005  0.1043930E+01  0.7957747E-01            NaN
         13   -1    0    0    0    0  0.00000000000E+00  0.00000000000E+00  0.74505805969E-08  0.10566000000E+00  0.10566000000E+00 0.  1.
     999900   -1    0    0    0    0 -0.00000000000E+00 -0.00000000000E+00 -0.74505805969E-08  0.93827000000E+00  0.93827000000E+00 0. -1.
     999902    2    1    2    0    0  0.95386218639E-02  0.20787381921E-01  0.52373322739E-02  0.10204666199E+01  0.10201968399E+01 0.  0.
     999903    2    3    3    0    0  0.54696985984E-02 -0.18085234362E-01 -0.12681044106E+00  0.12975664982E+00  0.19972654014E-01 0.  0.
         14    1    1    2    0    0 -0.95386218639E-02 -0.20787381921E-01 -0.52373322739E-02  0.23463380054E-01  0.00000000000E+00 0.  1.
     999901    1    3    3    0    0  0.40689232655E-02  0.38872616283E-01  0.13204777333E+00  0.89070997012E+00  0.88000000000E+00 0.  1.
        -11    1    4    4    0    0  0.78047879798E-02  0.34685372377E-03 -0.56124888444E-01  0.56668326663E-01  0.51100000000E-03 0.  1.
         11    1    4    4    0    0 -0.23350893815E-02 -0.18432088086E-01 -0.70685552611E-01  0.73088323161E-01  0.51100000000E-03 0. -1.
</event>
<event>
 8    1  0.1094829E+005  0.1043930E+01  0.7957747E-01            NaN
         13   -1    0    0    0    0  0.00000000000E+00  0.00000000000E+00  0.74505805969E-08  0.10566000000E+00  0.10566000000E+00 0. -1.
     999900   -1    0    0    0    0 -0.00000000000E+00 -0.00000000000E+00 -0.74505805969E-08  0.93827000000E+00  0.93827000000E+00 0.  1.
     999902    2    1    2    0    0 -0.15641662455E-01  0.10872658167E-01 -0.17146171954E-01  0.10183005733E+01  0.10179779910E+01 0.  0.
     999903    2    3    3    0    0 -0.51443965551E-01 -0.82165189228E-01  0.80005542781E-01  0.12735932854E+00  0.20540491168E-01 0.  0.
         14    1    1    2    0    0  0.15641662455E-01 -0.10872658167E-01  0.17146171954E-01  0.25629426693E-01  0.00000000000E+00 0. -1.
     999901    1    3    3    0    0  0.35802303096E-01  0.93037847395E-01 -0.97151714734E-01  0.89094124477E+00  0.88000000000E+00 0.  1.
        -11    1    4    4    0    0 -0.28563217342E-01 -0.57371609850E-01  0.61737955162E-01  0.88989860267E-01  0.51100000000E-03 0. -1.
         11    1    4    4    0    0 -0.22880748209E-01 -0.24793579378E-01  0.18267587618E-01  0.38369468270E-01  0.51100000000E-03 0.  1.
</event>
<event>
 8    1  0.1094829E+005  0.1043930E+01  0.7957747E-01            NaN
         13   -1    0    0    0    0  0.00000000000E+00  0.00000000000E+00  0.74505805969E-08  0.10566000000E+00  0.10566000000E+00 0.  1.
     999900   -1    0    0    0    0 -0.00000000000E+00 -0.00000000000E+00 -0.74505805969E-08  0.93827000000E+00  0.93827000000E+00 0. -1.
     999902    2    1    2    0    0 -0.15118940851E-01  0.14601723223E-01 -0.11853700217E-01  0.10197990468E+01  0.10195135080E+01 0.  0.
     999903    2    3    3    0    0 -0.74680787101E-01  0.10685336627E+00 -0.16302225864E-01  0.13296322854E+00  0.20459612132E-01 0.  0.
         14    1    1    2    0    0  0.15118940851E-01 -0.14601723223E-01  0.11853700217E-01  0.24130953200E-01  0.00000000000E+00 0.  1.
     999901    1    3    3    0    0  0.59561846251E-01 -0.92251643051E-01  0.44485256476E-02  0.88683581826E+00  0.88000000000E+00 0. -1.
        -11    1    4    4    0    0 -0.52641995143E-01  0.65878893640E-01 -0.22509149704E-02  0.84359563886E-01  0.51100000000E-03 0. -1.
         11    1    4    4    0    0 -0.22038791959E-01  0.40974472633E-01 -0.14051310894E-01  0.48603664650E-01  0.51100000000E-03 0.  1.
</event>
<event>
 8    1  0.1094829E+005  0.1043930E+01  0.7957747E-01            NaN
         13   -1    0    0    0    0  0.00000000000E+00  0.00000000000E+00  0.74505805969E-08  0.10566000000E+00  0.10566000000E+00 0. -1.
     999900   -1    0    0    0    0 -0.00000000000E+00 -0.00000000000E+00 -0.74505805969E-08  0.93827000000E+00  0.93827000000E+00 0.  1.
     999902    2    1    2    0    0 -0.93484096652E-02  0.24696837050E-01  0.82935389819E-02  0.10162513203E+01  0.10158743213E+01 0.  0.
     999903    2    3    3    0    0 -0.10396266405E+00 -0.53156611035E-01 -0.43577437971E-01  0.12624928949E+00  0.20150165842E-01 0.  0.
         14    1    1    2    0    0  0.93484096652E-02 -0.24696837050E-01 -0.82935389819E-02  0.27678679744E-01  0.00000000000E+00 0.  1.
     999901    1    3    3    0    0  0.94614254388E-01  0.77853448085E-01  0.51870976953E-01  0.89000203076E+00  0.88000000000E+00 0. -1.
        -11    1    4    4    0    0 -0.12814241962E-01 -0.14675304496E-01 -0.86874305670E-02  0.21337805181E-01  0.51100000000E-03 0.  1.
         11    1    4    4    0    0 -0.91148422092E-01 -0.38481306539E-01 -0.34890007404E-01  0.10491148431E+00  0.51100000000E-03 0. -1.
</event>
<event>
 8    1  0.1094829E+005  0.1043930E+01  0.7957747E-01            NaN
         13   -1    0    0    0    0  0.00000000000E+00  0.00000000000E+00  0.74505805969E-08  0.10566000000E+00  0.10566000000E+00 0. -1.
     999900   -1    0    0    0    0 -0.00000000000E+00 -0.00000000000E+00 -0.74505805969E-08  0.93827000000E+00  0.93827000000E+00 0. -1.
     999902    2    1    2    0    0  0.13397902043E-01  0.10223718784E-01  0.16706224736E-01  0.10201997208E+01  0.10199236953E+01 0.  0.
     999903    2    3    3    0    0  0.71382905658E-01 -0.38019415910E-01 -0.99189524433E-01  0.12940149150E+00  0.19109919899E-01 0.  0.
         14    1    1    2    0    0 -0.13397902043E-01 -0.10223718784E-01 -0.16706224736E-01  0.23730279178E-01  0.00000000000E+00 0.  1.
     999901    1    3    3    0    0 -0.57985003615E-01  0.48243134694E-01  0.11589574917E+00  0.89079822932E+00  0.88000000000E+00 0.  1.
        -11    1    4    4    0    0  0.28585585680E-01 -0.24055288575E-01 -0.53520554772E-01  0.65272532670E-01  0.51100000000E-03 0.  1.
         11    1    4    4    0    0  0.42797319979E-01 -0.13964127335E-01 -0.45668969662E-01  0.64128958829E-01  0.51100000000E-03 0. -1.
</event>
<event>
 8    1  0.1094829E+005  0.1043930E+01  0.7957747E-01            NaN
         13   -1    0    0    0    0  0.00000000000E+00  0.00000000000E+00  0.74505805969E-08  0.10566000000E+00  0.10566000000E+00 0.  1.
     999900   -1    0    0    0    0 -0.00000000000E+00 -0.00000000000E+00 -0.74505805969E-08  0.93827000000E+00  0.93827000000E+00 0. -1.
     999902    2    1    2    0    0  0.11524313274E-01  0.17008403892E-01 -0.13767999588E-01  0.10191983722E+01  0.10188982621E+01 0.  0.
     999903    2    3    3    0    0  0.11578648119E+00 -0.48155117594E-01 -0.30246278030E-01  0.13049796273E+00  0.19734648811E-01 0.  0.
         14    1    1    2    0    0 -0.11524313274E-01 -0.17008403892E-01  0.13767999588E-01  0.24731627768E-01  0.00000000000E+00 0.  1.
     999901    1    3    3    0    0 -0.10426216792E+00  0.65163521486E-01  0.16478278442E-01  0.88870040950E+00  0.88000000000E+00 0. -1.
        -11    1    4    4    0    0  0.68349584703E-01 -0.18482780795E-01 -0.13411688900E-01  0.72065341428E-01  0.51100000000E-03 0. -1.
         11    1    4    4    0    0  0.47436896491E-01 -0.29672336799E-01 -0.16834589130E-01  0.58432621300E-01  0.51100000000E-03 0.  1.
</event>
<event>
 8    1  0.1094829E+005  0.1043930E+01  0.7957747E-01            NaN
         13   -1    0    0    0    0  0.00000000000E+00  0.00000000000E+00  0.74505805969E-08  0.10566000000E+00  0.10566000000E+00 0.  1.
     999900   -1    0    0    0    0 -0.00000000000E+00 -0.00000000000E+00 -0.74505805969E-08  0.93827000000E+00  0.93827000000E+00 0.  1.
     999902    2    1    2    0    0  0.18517171826E-01  0.51398696590E-03  0.15143763571E-01  0.10200033745E+01  0.10197227076E+01 0.  0.
     999903    2    3    3    0    0 -0.12481172215E+00  0.26798735647E-01 -0.17457122821E-02  0.12786027256E+00  0.70045390946E-02 0.  0.
         14    1    1    2    0    0 -0.18517171826E-01 -0.51398696590E-03 -0.15143763571E-01  0.23926625549E-01  0.00000000000E+00 0. -1.
     999901    1    3    3    0    0  0.14332889398E+00 -0.26284748681E-01  0.16889475853E-01  0.89214310189E+00  0.88000000000E+00 0. -1.
        -11    1    4    4    0    0 -0.10326433623E+00  0.24804237258E-01 -0.14197961144E-02  0.10621228868E+00  0.51100000000E-03 0. -1.
         11    1    4    4    0    0 -0.21547385919E-01  0.19944983890E-02 -0.32591616773E-03  0.21647983881E-01  0.51100000000E-03 0.  1.
</event>
<event>
 8    1  0.1094829E+005  0.1043930E+01  0.7957747E-01            NaN
         13   -1    0    0    0    0  0.00000000000E+00  0.00000000000E+00  0.74505805969E-08  0.10566000000E+00  0.10566000000E+00 0.  1.
     999900   -1    0    0    0    0 -0.00000000000E+00 -0.00000000000E+00 -0.74505805969E-08  0.93827000000E+00  0.93827000000E+00 0.  1.
     999902    2    1    2    0    0  0.68583187840E-02 -0.21705774260E-01 -0.10668546362E-02  0.10211415084E+01  0.10208871949E+01 0.  0.
     999903    2    3    3    0    0 -0.41742690744E-01 -0.32599076437E-01  0.11884296080E+00  0.13161405740E+00  0.19835794871E-01 0.  0.
         14    1    1    2    0    0 -0.68583187840E-02  0.21705774260E-01  0.10668546362E-02  0.22788491648E-01  0.00000000000E+00 0.  1.
     999901    1    3    3    0    0  0.48601009528E-01  0.10893302177E-01 -0.11990981544E+00  0.88952745095E+00  0.88000000000E+00 0.  1.
        -11    1    4    4    0    0 -0.14921763472E-01 -0.24155164326E-01  0.62052091817E-01  0.68241147474E-01  0.51100000000E-03 0. -1.
         11    1    4    4    0    0 -0.26820927272E-01 -0.84439121115E-02  0.56790868984E-01  0.63372909925E-01  0.51100000000E-03 0.  1.
</event>
<event>
 8    1  0.1094829E+005  0.1043930E+01  0.7957747E-01            NaN
         13   -1    0    0    0    0  0.00000000000E+00  0.00000000000E+00  0.74505805969E-08  0.10566000000E+00  0.10566000000E+00 0.  1.
     999900   -1    0    0    0    0 -0.00000000000E+00 -0.00000000000E+00 -0.74505805969E-08  0.93827000000E+00  0.93827000000E+00 0. -1.
     999902    2    1    2    0    0  0.15963492070E-01 -0.11618025305E-01 -0.14226763369E-01  0.10195945857E+01  0.10193041288E+01 0.  0.
     999903    2    3    3    0    0  0.27275055792E-01  0.49955569127E-01 -0.11671414700E+00  0.13143754850E+00  0.20350663125E-01 0.  0.
         14    1    1    2    0    0 -0.15963492070E-01  0.11618025305E-01  0.14226763369E-01  0.24335414256E-01  0.00000000000E+00 0.  1.
     999901    1    3    3    0    0 -0.11311563722E-01 -0.61573594432E-01  0.10248738363E+00  0.88815703725E+00  0.88000000000E+00 0.  1.
        -11    1    4    4    0    0  0.10326606739E-01  0.33601866953E-01 -0.84560599831E-01  0.91577728920E-01  0.51100000000E-03 0.  1.
         11    1    4    4    0    0  0.16948449054E-01  0.16353702174E-01 -0.32153547171E-01  0.39859819578E-01  0.51100000000E-03 0. -1.
</event>
<event>
 8    1  0.1094829E+005  0.1043930E+01  0.7957747E-01            NaN
         13   -1    0    0    0    0  0.00000000000E+00  0.00000000000E+00  0.74505805969E-08  0.10566000000E+00  0.10566000000E+00 0. -1.
     999900   -1    0    0    0    0 -0.00000000000E+00 -0.00000000000E+00 -0.74505805969E-08  0.93827000000E+00  0.93827000000E+00 0. -1.
     999902    2    1    2    0    0  0.22930179917E-01  0.35686783114E-02 -0.10260678219E-02  0.10207011078E+01  0.10204367546E+01 0.  0.
     999903    2    3    3    0    0  0.11421960537E+00 -0.64142689943E-01 -0.15040883446E-01  0.13328068682E+00  0.19419330035E-01 0.  0.
         14    1    1    2    0    0 -0.22930179917E-01 -0.35686783114E-02  0.10260678219E-02  0.23228892162E-01  0.00000000000E+00 0. -1.
     999901    1    3    3    0    0 -0.91289425454E-01  0.67711368254E-01  0.14014815624E-01  0.88742042102E+00  0.88000000000E+00 0. -1.
        -11    1    4    4    0    0  0.96019373037E-01 -0.59193437865E-01 -0.17853339308E-01  0.11420414148E+00  0.51100000000E-03 0. -1.
         11    1    4    4    0    0  0.18200232334E-01 -0.49492520775E-02  0.28124558620E-02  0.19076545340E-01  0.51100000000E-03 0.  1.
</event>
<event>
 8    1  0.1094829E+005  0.1043930E+01  0.7957747E-01            NaN
         13   -1    0    0    0    0  0.00000000000E+00  0.00000000000E+00  0.74505805969E-08  0.10566000000E+00  0.10566000000E+00 0.  1.
     999900   -1    0    0    0    0 -0.00000000000E+00 -0.00000000000E+00 -0.74505805969E-08  0.93827000000E+00  0.93827000000E+00 0.  1.
     999902    2    1    2    0    0 -0.13183337091E-01 -0.17606453518E-01  0.44481010335E-02  0.10214895636E+01  0.10212430442E+01 0.  0.
     999903    2    3    3    0    0  0.11672247172E+00  0.36507494654E-01 -0.37402899165E-01  0.12932626871E+00  0.19219113988E-01 0.  0.
         14    1    1    2    0    0  0.13183337091E-01  0.17606453518E-01 -0.44481010335E-02  0.22440436385E-01  0.00000000000E+00 0. -1.
     999901    1    3    3    0    0 -0.12990580881E+00 -0.54113948172E-01  0.41851000199E-01  0.89216329490E+00  0.88000000000E+00 0.  1.
        -11    1    4    4    0    0  0.80889446424E-01  0.15846330551E-01 -0.25443235401E-01  0.86266030877E-01  0.51100000000E-03 0.  1.
         11    1    4    4    0    0  0.35833025300E-01  0.20661164103E-01 -0.11959663765E-01  0.43060237837E-01  0.51100000000E-03 0. -1.
</event>
<event>
 8    1  0.1094829E+005  0.1043930E+01  0.7957747E-01            NaN
         13   -1    0    0    0    0  0.00000000000E+00  0.00000000000E+00  0.74505805969E-08  0.10566000000E+00  0.10566000000E+00 0.  1.
     999900   -1    0    0    0    0 -0.00000000000E+00 -0.00000000000E+00 -0.74505805969E-08  0.93827000000E+00  0.93827000000E+00 0.  1.
     999902    2    1    2    0    0  0.18153494118E-01  0.81988477258E-02 -0.15869101810E-01  0.10184623962E+01  0.10181439258E+01 0.  0.
     999903    2    3    3    0    0  0.64727539521E-01  0.11175354315E+00  0.81838402843E-02  0.13084127166E+00  0.19337899312E-01 0.  0.
         14    1    1    2    0    0 -0.18153494118E-01 -0.81988477258E-02  0.15869101810E-01  0.25467603832E-01  0.00000000000E+00 0.  1.
     999901    1    3    3    0    0 -0.46574045403E-01 -0.10355469542E+00 -0.24052942094E-01  0.88762112451E+00  0.88000000000E+00 0.  1.
        -11    1    4    4    0    0  0.27991692229E-01  0.65643293979E-01  0.34195755511E-03  0.71364941912E-01  0.51100000000E-03 0. -1.
         11    1    4    4    0    0  0.36735847292E-01  0.46110249167E-01  0.78418827292E-02  0.59476329748E-01  0.51100000000E-03 0.  1.
</event>
<event>
 8    1  0.1094829E+005  0.1043930E+01  0.7957747E-01            NaN
         13   -1    0    0    0    0  0.00000000000E+00  0.00000000000E+00  0.74505805969E-08  0.10566000000E+00  0.10566000000E+00 0.  1.
     999900   -1    0    0    0    0 -0.00000000000E+00 -0.00000000000E+00 -0.74505805969E-08  0.93827000000E+00  0.93827000000E+00 0.  1.
     999902    2    1    2    0    0 -0.10691955476E-01  0.13868178567E-01  0.15373928520E-01  0.10206275974E+01  0.10203615490E+01 0.  0.
     999903    2    3    3    0    0  0.92926790691E-01  0.46802434038E-01 -0.74252674029E-01  0.12941806108E+00  0.20241508696E-01 0.  0.
         14    1    1    2    0    0  0.10691955476E-01 -0.13868178567E-01 -0.15373928520E-01  0.23302402597E-01  0.00000000000E+00 0. -1.
     999901    1    3    3    0    0 -0.10361874617E+00 -0.32934255472E-01  0.89626602549E-01  0.89120953632E+00  0.88000000000E+00 0.  1.
        -11    1    4    4    0    0  0.28947534255E-01  0.13501121559E-01 -0.34663564323E-01  0.47138772103E-01  0.51100000000E-03 0. -1.
         11    1    4    4    0    0  0.63979256436E-01  0.33301312480E-01 -0.39589109707E-01  0.82279288982E-01  0.51100000000E-03 0.  1.
</event>
<event>
 8    1  0.1094829E+005  0.1043930E+01  0.7957747E-01            NaN
         13   -1    0    0    0    0  0.00000000000E+00  0.00000000000E+00  0.74505805969E-08  0.10566000000E+00  0.10566000000E+00 0.  1.
     999900   -1    0    0    0    0 -0.00000000000E+00 -0.00000000000E+00 -0.74505805969E-08  0.93827000000E+00  0.93827000000E+00 0.  1.
     999902    2    1    2    0    0  0.22391940067E-01 -0.77598234317E-02  0.26174371446E-02  0.10200874998E+01  0.10198088264E+01 0.  0.
     999903    2    3    3    0    0 -0.11159828612E+00 -0.49388280632E-01 -0.33750802502E-01  0.12823047199E+00  0.20262219711E-01 0.  0.
         14    1    1    2    0    0 -0.22391940067E-01  0.77598234317E-02 -0.26174371446E-02  0.23842500223E-01  0.00000000000E+00 0.  1.
     999901    1    3    3    0    0  0.13399022619E+00  0.41628457200E-01  0.36368239647E-01  0.89185702779E+00  0.88000000000E+00 0.  1.
        -11    1    4    4    0    0 -0.10249158037E-01 -0.80267406638E-02 -0.94648153882E-02  0.16103343053E-01  0.51100000000E-03 0.  1.
         11    1    4    4    0    0 -0.10134912808E+00 -0.41361539968E-01 -0.24285987114E-01  0.11212712893E+00  0.51100000000E-03 0. -1.
</event>
<event>
 8    1  0.1094829E+005  0.1043930E+01  0.7957747E-01            NaN
         13   -1    0    0    0    0  0.00000000000E+00  0.00000000000E+00  0.74505805969E-08  0.10566000000E+00  0.10566000000E+00 0. -1.
     999900   -1    0    0    0    0 -0.00000000000E+00 -0.00000000000E+00 -0.74505805969E-08  0.93827000000E+00  0.93827000000E+00 0.  1.
     999902    2    1    2    0    0  0.12221721680E-01  0.84712940099E-02 -0.17627723170E-01  0.10208676947E+01  0.10206071625E+01 0.  0.
     999903    2    3    3    0    0 -0.51341006135E-01  0.60033060771E-02  0.11602042289E+00  0.12850670366E+00  0.19526795989E-01 0.  0.
         14    1    1    2    0    0 -0.12221721680E-01 -0.84712940099E-02  0.17627723170E-01  0.23062305331E-01  0.00000000000E+00 0. -1.
     999901    1    3    3    0    0  0.63562727815E-01  0.24679879328E-02 -0.13364814606E+00  0.89236099101E+00  0.88000000000E+00 0.  1.
        -11    1    4    4    0    0 -0.14036548834E-01  0.31193451537E-02  0.55651091060E-01  0.57480954016E-01  0.51100000000E-03 0. -1.
         11    1    4    4    0    0 -0.37304457301E-01  0.28839609234E-02  0.60369331834E-01  0.71025749642E-01  0.51100000000E-03 0.  1.
</event>
<event>
 8    1  0.1094829E+005  0.1043930E+01  0.7957747E-01            NaN
         13   -1    0    0    0    0  0.00000000000E+00  0.00000000000E+00  0.74505805969E-08  0.10566000000E+00  0.10566000000E+00 0.  1.
     999900   -1    0    0    0    0 -0.00000000000E+00 -0.00000000000E+00 -0.74505805969E-08  0.93827000000E+00  0.93827000000E+00 0.  1.
     999902    2    1    2    0    0  0.18922292037E-01 -0.11195786500E-01 -0.65092827406E-02  0.10210003351E+01  0.10207428250E+01 0.  0.
     999903    2    3    3    0    0 -0.47128145073E-01  0.11726702464E+00  0.16237447006E-01  0.12893376369E+00  0.19688667000E-01 0.  0.
         14    1    1    2    0    0 -0.18922292037E-01  0.11195786500E-01  0.65092827406E-02  0.22929664914E-01  0.00000000000E+00 0. -1.
     999901    1    3    3    0    0  0.66050437110E-01 -0.12846281114E+00 -0.22746729747E-01  0.89206657140E+00  0.88000000000E+00 0.  1.
        -11    1    4    4    0    0 -0.97607707176E-02  0.33438559837E-01 -0.36314561209E-02  0.35026540274E-01  0.51100000000E-03 0. -1.
         11    1    4    4    0    0 -0.37367374355E-01  0.83828464802E-01  0.19868903127E-01  0.93907223416E-01  0.51100000000E-03 0.  1.
</event>
<event>
 8    1  0.1094829E+005  0.1043930E+01  0.7957747E-01            NaN
         13   -1    0    0    0    0  0.00000000000E+00  0.00000000000E+00  0.74505805969E-08  0.10566000000E+00  0.10566000000E+00 0. -1.
     999900   -1    0    0    0    0 -0.00000000000E+00 -0.00000000000E+00 -0.74505805969E-08  0.93827000000E+00  0.93827000000E+00 0. -1.
     999902    2    1    2    0    0 -0.21898781416E-01  0.11702477318E-01 -0.11124882948E-01  0.10167221404E+01  0.10163580290E+01 0.  0.
     999903    2    3    3    0    0 -0.99596900627E-01 -0.76890384397E-01 -0.19377362904E-01  0.12882924355E+00  0.19743808448E-01 0.  0.
         14    1    1    2    0    0  0.21898781416E-01 -0.11702477318E-01  0.11124882948E-01  0.27207859591E-01  0.00000000000E+00 0. -1.
     999901    1    3    3    0    0  0.77698119211E-01  0.88592861715E-01  0.82524799558E-02  0.88789289686E+00  0.88000000000E+00 0.  1.
        -11    1    4    4    0    0 -0.25710840979E-01 -0.31172079641E-01 -0.80684716321E-02  0.41208096880E-01  0.51100000000E-03 0.  1.
         11    1    4    4    0    0 -0.73886059649E-01 -0.45718304756E-01 -0.11308891272E-01  0.87621146665E-01  0.51100000000E-03 0. -1.
</event>
<event>
 8    1  0.1094829E+005  0.1043930E+01  0.7957747E-01            NaN
         13   -1    0    0    0    0  0.00000000000E+00  0.00000000000E+00  0.74505805969E-08  0.10566000000E+00  0.10566000000E+00 0. -1.
     999900   -1    0    0    0    0 -0.00000000000E+00 -0.00000000000E+00 -0.74505805969E-08  0.93827000000E+00  0.93827000000E+00 0.  1.
     999902    2    1    2    0    0  0.30376512972E-02  0.10300652469E-01 -0.21800385634E-01  0.10196279923E+01  0.10193383418E+01 0.  0.
     999903    2    3    3    0    0  0.74826701429E-01  0.32506782499E-01  0.96941187794E-01  0.12847910391E+00  0.21296950400E-01 0.  0.
         14    1    1    2    0    0 -0.30376512972E-02 -0.10300652469E-01  0.21800385634E-01  0.24302007746E-01  0.00000000000E+00 0. -1.
     999901    1    3    3    0    0 -0.71789050132E-01 -0.22206130030E-01 -0.11874157343E+00  0.89114888834E+00  0.88000000000E+00 0. -1.
        -11    1    4    4    0    0  0.50784907619E-01  0.12346906893E-01  0.68213084916E-01  0.85935086120E-01  0.51100000000E-03 0. -1.
         11    1    4    4    0    0  0.24041793811E-01  0.20159875606E-01  0.28728102878E-01  0.42544017794E-01  0.51100000000E-03 0.  1.
</event>
<event>
 8    1  0.1094829E+005  0.1043930E+01  0.7957747E-01            NaN
         13   -1    0    0    0    0  0.00000000000E+00  0.00000000000E+00  0.74505805969E-08  0.10566000000E+00  0.10566000000E+00 0. -1.
     999900   -1    0    0    0    0 -0.00000000000E+00 -0.00000000000E+00 -0.74505805969E-08  0.93827000000E+00  0.93827000000E+00 0. -1.
     999902    2    1    2    0    0  0.19552008659E-01 -0.12808018782E-01  0.78273239284E-02  0.10192805905E+01  0.10189824968E+01 0.  0.
     999903    2    3    3    0    0  0.75991259575E-01 -0.84011402406E-01  0.65535707305E-01  0.13272231923E+00  0.22083881543E-01 0.  0.
         14    1    1    2    0    0 -0.19552008659E-01  0.12808018782E-01 -0.78273239284E-02  0.24649409478E-01  0.00000000000E+00 0.  1.
     999901    1    3    3    0    0 -0.56439250915E-01  0.71203383623E-01 -0.57708383376E-01  0.88655827129E+00  0.88000000000E+00 0. -1.
        -11    1    4    4    0    0  0.46326865489E-01 -0.34982657149E-01  0.30964899618E-01  0.65795523378E-01  0.51100000000E-03 0. -1.
         11    1    4    4    0    0  0.29664394086E-01 -0.49028745257E-01  0.34570807686E-01  0.66926795852E-01  0.51100000000E-03 0.  1.
</event>
<event>
 8    1  0.1099354E+005  0.1043930E+01  0.7957747E-01            NaN
         13   -1    0    0    0    0  0.00000000000E+00  0.00000000000E+00  0.74505805969E-08  0.10566000000E+00  0.10566000000E+00 0.  1.
     999900   -1    0    0    0    0 -0.00000000000E+00 -0.00000000000E+00 -0.74505805969E-08  0.93827000000E+00  0.93827000000E+00 0. -1.
     999902    2    1    2    0    0 -0.71193222266E-02  0.19846192944E-01 -0.90503001440E-02  0.10209851954E+01  0.10207273413E+01 0.  0.
     999903    2    3    3    0    0 -0.70639866334E-01 -0.10361587724E-01  0.10742351740E+00  0.13052827919E+00  0.20011655669E-01 0.  0.
         14    1    1    2    0    0  0.71193222266E-02 -0.19846192944E-01  0.90503001440E-02  0.22944804554E-01  0.00000000000E+00 0.  1.
     999901    1    3    3    0    0  0.63520544108E-01  0.30207780668E-01 -0.11647381754E+00  0.89045691626E+00  0.88000000000E+00 0. -1.
        -11    1    4    4    0    0 -0.23750366161E-01  0.59236269336E-02  0.33920779045E-01  0.41833594405E-01  0.51100000000E-03 0.  1.
         11    1    4    4    0    0 -0.46889500173E-01 -0.16285214658E-01  0.73502738350E-01  0.88694684784E-01  0.51100000000E-03 0. -1.
</event>
<event>
 8    1  0.1094829E+005  0.1043930E+01  0.7957747E-01            NaN
         13   -1    0    0    0    0  0.00000000000E+00  0.00000000000E+00  0.74505805969E-08  0.10566000000E+00  0.10566000000E+00 0. -1.
     999900   -1    0    0    0    0 -0.00000000000E+00 -0.00000000000E+00 -0.74505805969E-08  0.93827000000E+00  0.93827000000E+00 0.  1.
     999902    2    1    2    0    0 -0.18352014252E-01  0.53523671792E-02  0.13906002467E-01  0.10202906014E+01  0.10200167107E+01 0.  0.
     999903    2    3    3    0    0 -0.26094757940E-01  0.12507796150E+00  0.26007643045E-01  0.13206730869E+00  0.20974834517E-01 0.  0.
         14    1    1    2    0    0  0.18352014252E-01 -0.53523671792E-02 -0.13906002467E-01  0.23639398599E-01  0.00000000000E+00 0.  1.
     999901    1    3    3    0    0  0.77427436881E-02 -0.11972559432E+00 -0.12101640579E-01  0.88822329271E+00  0.88000000000E+00 0.  1.
        -11    1    4    4    0    0 -0.43311672231E-03  0.51008660582E-01  0.80189021927E-02  0.51639470929E-01  0.51100000000E-03 0.  1.
         11    1    4    4    0    0 -0.25661641218E-01  0.74069300915E-01  0.17988740852E-01  0.80427837758E-01  0.51100000000E-03 0. -1.
</event>
<event>
 8    1  0.1094829E+005  0.1043930E+01  0.7957747E-01            NaN
         13   -1    0    0    0    0  0.00000000000E+00  0.00000000000E+00  0.74505805969E-08  0.10566000000E+00  0.10566000000E+00 0. -1.
     999900   -1    0    0    0    0 -0.00000000000E+00 -0.00000000000E+00 -0.74505805969E-08  0.93827000000E+00  0.93827000000E+00 0. -1.
     999902    2    1    2    0    0 -0.97039727627E-02  0.11886755823E-01 -0.16968056333E-01  0.10210525660E+01  0.10207962409E+01 0.  0.
     999903    2    3    3    0    0 -0.99213772472E-01  0.82181948454E-01 -0.28461281011E-01  0.13364876130E+00  0.21323732816E-01 0.  0.
         14    1    1    2    0    0  0.97039727627E-02 -0.11886755823E-01  0.16968056333E-01  0.22877434014E-01  0.00000000000E+00 0. -1.
     999901    1    3    3    0    0  0.89509799710E-01 -0.70295192632E-01  0.11493224678E-01  0.88740380468E+00  0.88000000000E+00 0. -1.
        -11    1    4    4    0    0 -0.66717360220E-01  0.51577419769E-01 -0.28469142720E-01  0.89006682856E-01  0.51100000000E-03 0. -1.
         11    1    4    4    0    0 -0.32496412252E-01  0.30604528685E-01  0.78617096231E-05  0.44642078448E-01  0.51100000000E-03 0.  1.
</event>
<event>
 8    1  0.1094829E+005  0.1043930E+01  0.7957747E-01            NaN
         13   -1    0    0    0    0  0.00000000000E+00  0.00000000000E+00  0.74505805969E-08  0.10566000000E+00  0.10566000000E+00 0. -1.
     999900   -1    0    0    0    0 -0.00000000000E+00 -0.00000000000E+00 -0.74505805969E-08  0.93827000000E+00  0.93827000000E+00 0. -1.
     999902    2    1    2    0    0  0.14793083171E-01 -0.14492681519E-01  0.10636853796E-01  0.10206487675E+01  0.10203832078E+01 0.  0.
     999903    2    3    3    0    0  0.25806094125E-02  0.83414509381E-01  0.98594301735E-01  0.13077716150E+00  0.20425222525E-01 0.  0.
         14    1    1    2    0    0 -0.14793083171E-01  0.14492681519E-01 -0.10636853796E-01  0.23281232485E-01  0.00000000000E+00 0.  1.
     999901    1    3    3    0    0  0.12212473758E-01 -0.97907190900E-01 -0.87957447938E-01  0.88987160602E+00  0.88000000000E+00 0. -1.
        -11    1    4    4    0    0  0.78842932457E-02  0.13635489438E-01  0.21497002578E-01  0.26654659875E-01  0.51100000000E-03 0. -1.
         11    1    4    4    0    0 -0.53036838332E-02  0.69779019943E-01  0.77097299156E-01  0.10412250162E+00  0.51100000000E-03 0.  1.
</event>
<event>
 8    1  0.1094829E+005  0.1043930E+01  0.7957747E-01            NaN
         13   -1    0    0    0    0  0.00000000000E+00  0.00000000000E+00  0.74505805969E-08  0.10566000000E+00  0.10566000000E+00 0.  1.
     999900   -1    0    0    0    0 -0.00000000000E+00 -0.00000000000E+00 -0.74505805969E-08  0.93827000000E+00  0.93827000000E+00 0.  1.
     999902    2    1    2    0    0 -0.89114768248E-02 -0.61455170692E-02 -0.20913878804E-01  0.10203806449E+01  0.10201088610E+01 0.  0.
     999903    2    3    3    0    0 -0.63371409421E-01  0.11071509138E+00  0.16062159062E-01  0.13021801175E+00  0.20614816045E-01 0.  0.
         14    1    1    2    0    0  0.89114768248E-02  0.61455170692E-02  0.20913878804E-01  0.23549355106E-01  0.00000000000E+00 0.  1.
     999901    1    3    3    0    0  0.54459932596E-01 -0.11686060845E+00 -0.36976037867E-01  0.89016263314E+00  0.88000000000E+00 0.  1.
        -11    1    4    4    0    0 -0.27632649201E-01  0.38977197353E-01  0.14935780313E-01  0.50061201243E-01  0.51100000000E-03 0.  1.
         11    1    4    4    0    0 -0.35738760220E-01  0.71737894024E-01  0.11263787497E-02  0.80156810510E-01  0.51100000000E-03 0. -1.
</event>
<event>
 8    1  0.1094829E+005  0.1043930E+01  0.7957747E-01            NaN
         13   -1    0    0    0    0  0.00000000000E+00  0.00000000000E+00  0.74505805969E-08  0.10566000000E+00  0.10566000000E+00 0. -1.
     999900   -1    0    0    0    0 -0.00000000000E+00 -0.00000000000E+00 -0.74505805969E-08  0.93827000000E+00  0.93827000000E+00 0.  1.
     999902    2    1    2    0    0 -0.55870846593E-02 -0.16131268563E-01  0.14121071990E-01  0.10217751356E+01  0.10215349185E+01 0.  0.
     999903    2    3    3    0    0  0.82352670045E-01  0.86219382637E-01 -0.46227699155E-01  0.12944614338E+00  0.20088794412E-01 0.  0.
         14    1    1    2    0    0  0.55870846593E-02  0.16131268563E-01 -0.14121071990E-01  0.22154864355E-01  0.00000000000E+00 0.  1.
     999901    1    3    3    0    0 -0.87939754704E-01 -0.10235065120E+00  0.60348771145E-01  0.89232899227E+00  0.88000000000E+00 0. -1.
        -11    1    4    4    0    0  0.63417980382E-01  0.54337427727E-01 -0.27678921361E-01  0.87981703192E-01  0.51100000000E-03 0. -1.
         11    1    4    4    0    0  0.18934689663E-01  0.31881954909E-01 -0.18548777793E-01  0.41464440188E-01  0.51100000000E-03 0.  1.
</event>
<event>
 8    1  0.1094829E+005  0.1043930E+01  0.7957747E-01            NaN
         13   -1    0    0    0    0  0.00000000000E+00  0.00000000000E+00  0.74505805969E-08  0.10566000000E+00  0.10566000000E+00 0.  1.
     999900   -1    0    0    0    0 -0.00000000000E+00 -0.00000000000E+00 -0.74505805969E-08  0.93827000000E+00  0.93827000000E+00 0. -1.
     999902    2    1    2    0    0  0.19593112613E-01  0.14578496683E-02  0.13017281174E-01  0.10203616951E+01  0.10200894685E+01 0.  0.
     999903    2    3    3    0    0  0.28586392891E-01 -0.15566766601E-01  0.12726355935E+00  0.13276779654E+00  0.19281290909E-01 0.  0.
         14    1    1    2    0    0 -0.19593112613E-01 -0.14578496683E-02 -0.13017281174E-01  0.23568304917E-01  0.00000000000E+00 0. -1.
     999901    1    3    3    0    0 -0.89932802782E-02  0.17024616269E-01 -0.11424627818E+00  0.88759389854E+00  0.88000000000E+00 0. -1.
        -11    1    4    4    0    0  0.64763779642E-02 -0.14249326314E-01  0.54653922553E-01  0.56853312510E-01  0.51100000000E-03 0.  1.
         11    1    4    4    0    0  0.22110014927E-01 -0.13174402868E-02  0.72609636797E-01  0.75914484032E-01  0.51100000000E-03 0. -1.
</event>
<event>
 8    1  0.1094829E+005  0.1043930E+01  0.7957747E-01            NaN
         13   -1    0    0    0    0  0.00000000000E+00  0.00000000000E+00  0.74505805969E-08  0.10566000000E+00  0.10566000000E+00 0. -1.
     999900   -1    0    0    0    0 -0.00000000000E+00 -0.00000000000E+00 -0.74505805969E-08  0.93827000000E+00  0.93827000000E+00 0. -1.
     999902    2    1    2    0    0 -0.11652837428E-01  0.76484663400E-02  0.18909165964E-01  0.10204386353E+01  0.10201682039E+01 0.  0.
     999903    2    3    3    0    0  0.61552201569E-01  0.85346465592E-01 -0.72504249531E-01  0.12928636473E+00  0.19631739583E-01 0.  0.
         14    1    1    2    0    0  0.11652837428E-01 -0.76484663400E-02 -0.18909165964E-01  0.23491364688E-01  0.00000000000E+00 0.  1.
     999901    1    3    3    0    0 -0.73205038998E-01 -0.77697999252E-01  0.91413415495E-01  0.89115227058E+00  0.88000000000E+00 0.  1.
        -11    1    4    4    0    0  0.34217084445E-01  0.31196518988E-01 -0.33801095540E-01  0.57330679793E-01  0.51100000000E-03 0.  1.
         11    1    4    4    0    0  0.27335117125E-01  0.54149946605E-01 -0.38703153991E-01  0.71955684941E-01  0.51100000000E-03 0. -1.
</event>
<event>
 8    1  0.1094829E+005  0.1043930E+01  0.7957747E-01            NaN
         13   -1    0    0    0    0  0.00000000000E+00  0.00000000000E+00  0.74505805969E-08  0.10566000000E+00  0.10566000000E+00 0.  1.
     999900   -1    0    0    0    0 -0.00000000000E+00 -0.00000000000E+00 -0.74505805969E-08  0.93827000000E+00  0.93827000000E+00 0. -1.
     999902    2    1    2    0    0 -0.23281661678E-01 -0.69714462257E-02  0.86640466202E-02  0.10181287881E+01  0.10178018110E+01 0.  0.
     999903    2    3    3    0    0 -0.11408702274E+00  0.24509483554E-01 -0.55083131822E-01  0.13060393473E+00  0.20166130375E-01 0.  0.
         14    1    1    2    0    0  0.23281661678E-01  0.69714462257E-02 -0.86640466202E-02  0.25801211925E-01  0.00000000000E+00 0. -1.
     999901    1    3    3    0    0  0.90805361065E-01 -0.31480929780E-01  0.63747178442E-01  0.88752485334E+00  0.88000000000E+00 0.  1.
        -11    1    4    4    0    0 -0.18398522648E-01  0.11862956764E-01 -0.10317294452E-01  0.24206260856E-01  0.51100000000E-03 0. -1.
         11    1    4    4    0    0 -0.95688500095E-01  0.12646526790E-01 -0.44765837370E-01  0.10639767388E+00  0.51100000000E-03 0.  1.
</event>
<event>
 8    1  0.1094829E+005  0.1043930E+01  0.7957747E-01            NaN
         13   -1    0    0    0    0  0.00000000000E+00  0.00000000000E+00  0.74505805969E-08  0.10566000000E+00  0.10566000000E+00 0. -1.
     999900   -1    0    0    0    0 -0.00000000000E+00 -0.00000000000E+00 -0.74505805969E-08  0.93827000000E+00  0.93827000000E+00 0. -1.
     999902    2    1    2    0    0 -0.12910288946E-01  0.33500721666E-02  0.19434548801E-01  0.10203588263E+01  0.10200865327E+01 0.  0.
     999903    2    3    3    0    0 -0.40451093008E-01  0.82569720427E-01  0.94350648128E-01  0.13320231781E+00  0.19666291214E-01 0.  0.
         14    1    1    2    0    0  0.12910288946E-01 -0.33500721666E-02 -0.19434548801E-01  0.23571173736E-01  0.00000000000E+00 0.  1.
     999901    1    3    3    0    0  0.27540804062E-01 -0.79219648260E-01 -0.74916099328E-01  0.88715650846E+00  0.88000000000E+00 0. -1.
        -11    1    4    4    0    0  0.18145462367E-03 -0.97871477354E-03  0.10889177457E-02  0.15613043410E-02  0.51100000000E-03 0.  1.
         11    1    4    4    0    0 -0.40632547632E-01  0.83548435200E-01  0.93261730383E-01  0.13164101347E+00  0.51100000000E-03 0. -1.
</event>
<event>
 8    1  0.1094829E+005  0.1043930E+01  0.7957747E-01            NaN
         13   -1    0    0    0    0  0.00000000000E+00  0.00000000000E+00  0.74505805969E-08  0.10566000000E+00  0.10566000000E+00 0. -1.
     999900   -1    0    0    0    0 -0.00000000000E+00 -0.00000000000E+00 -0.74505805969E-08  0.93827000000E+00  0.93827000000E+00 0. -1.
     999902    2    1    2    0    0  0.32019021425E-02  0.22670971962E-01  0.64862669992E-02  0.10201330085E+01  0.10198554104E+01 0.  0.
     999903    2    3    3    0    0 -0.49790838920E-01 -0.34586060125E-01  0.11337307294E+00  0.13023897678E+00  0.20818602454E-01 0.  0.
         14    1    1    2    0    0 -0.32019021425E-02 -0.22670971962E-01 -0.64862669992E-02  0.23796991545E-01  0.00000000000E+00 0.  1.
     999901    1    3    3    0    0  0.52992741062E-01  0.57257032087E-01 -0.10688680594E+00  0.88989403168E+00  0.88000000000E+00 0. -1.
        -11    1    4    4    0    0 -0.27573047113E-01 -0.31159244532E-01  0.73035303865E-01  0.84057053116E-01  0.51100000000E-03 0. -1.
         11    1    4    4    0    0 -0.22217791807E-01 -0.34268155937E-02  0.40337769079E-01  0.46181923662E-01  0.51100000000E-03 0.  1.
</event>
<event>
 8    1  0.1094829E+005  0.1043930E+01  0.7957747E-01            NaN
         13   -1    0    0    0    0  0.00000000000E+00  0.00000000000E+00  0.74505805969E-08  0.10566000000E+00  0.10566000000E+00 0.  1.
     999900   -1    0    0    0    0 -0.00000000000E+00 -0.00000000000E+00 -0.74505805969E-08  0.93827000000E+00  0.93827000000E+00 0.  1.
     999902    2    1    2    0    0  0.18322487559E-01  0.11176606162E-01  0.67371763079E-02  0.10214351201E+01  0.10211873898E+01 0.  0.
     999903    2    3    3    0    0  0.12144635623E+00  0.40579984855E-01  0.35767992787E-01  0.13445040816E+00  0.20040217910E-01 0.  0.
         14    1    1    2    0    0 -0.18322487559E-01 -0.11176606162E-01 -0.67371763079E-02  0.22494879868E-01  0.00000000000E+00 0. -1.
     999901    1    3    3    0    0 -0.10312386867E+00 -0.29403378693E-01 -0.29030816480E-01  0.88698471197E+00  0.88000000000E+00 0. -1.
        -11    1    4    4    0    0  0.55839640216E-01  0.91814787795E-02  0.11288929949E-01  0.57706724326E-01  0.51100000000E-03 0. -1.
         11    1    4    4    0    0  0.65606716013E-01  0.31398506075E-01  0.24479062839E-01  0.76743683833E-01  0.51100000000E-03 0.  1.
</event>
<event>
 8    1  0.1094829E+005  0.1043930E+01  0.7957747E-01            NaN
         13   -1    0    0    0    0  0.00000000000E+00  0.00000000000E+00  0.74505805969E-08  0.10566000000E+00  0.10566000000E+00 0.  1.
     999900   -1    0    0    0    0 -0.00000000000E+00 -0.00000000000E+00 -0.74505805969E-08  0.93827000000E+00  0.93827000000E+00 0.  1.
     999902    2    1    2    0    0  0.11820735664E-01  0.16166764830E-01 -0.12845489877E-01  0.10201371295E+01  0.10198596287E+01 0.  0.
     999903    2    3    3    0    0  0.65344919685E-01  0.10260532078E+00  0.47262326255E-01  0.13224670169E+00  0.21392808206E-01 0.  0.
         14    1    1    2    0    0 -0.11820735664E-01 -0.16166764830E-01  0.12845489877E-01  0.23792870506E-01  0.00000000000E+00 0.  1.
     999901    1    3    3    0    0 -0.53524184021E-01 -0.86438555952E-01 -0.60107816132E-01  0.88789042781E+00  0.88000000000E+00 0. -1.
        -11    1    4    4    0    0  0.41077799926E-01  0.62875413233E-01  0.17921721154E-01  0.77214975530E-01  0.51100000000E-03 0.  1.
         11    1    4    4    0    0  0.24267119758E-01  0.39729907549E-01  0.29340605101E-01  0.55031726158E-01  0.51100000000E-03 0. -1.
</event>
<event>
 8    1  0.1094829E+005  0.1043930E+01  0.7957747E-01            NaN
         13   -1    0    0    0    0  0.00000000000E+00  0.00000000000E+00  0.74505805969E-08  0.10566000000E+00  0.10566000000E+00 0.  1.
     999900   -1    0    0    0    0 -0.00000000000E+00 -0.00000000000E+00 -0.74505805969E-08  0.93827000000E+00  0.93827000000E+00 0. -1.
     999902    2    1    2    0    0  0.15283460719E-02 -0.28903686692E-02  0.23796350340E-01  0.10199100840E+01  0.10196271981E+01 0.  0.
     999903    2    3    3    0    0  0.11179966451E+00 -0.20210769117E-01 -0.57932714076E-01  0.12910179945E+00  0.20085693646E-01 0.  0.
         14    1    1    2    0    0 -0.15283460719E-02  0.28903686692E-02 -0.23796350340E-01  0.24019915951E-01  0.00000000000E+00 0. -1.
     999901    1    3    3    0    0 -0.11027131843E+00  0.17320400447E-01  0.81729064416E-01  0.89080828460E+00  0.88000000000E+00 0.  1.
        -11    1    4    4    0    0  0.52234266288E-01 -0.31339242812E-02 -0.17805369312E-01  0.55276869967E-01  0.51100000000E-03 0.  1.
         11    1    4    4    0    0  0.59565398217E-01 -0.17076844835E-01 -0.40127344764E-01  0.73824929483E-01  0.51100000000E-03 0. -1.
</event>
<event>
 8    1  0.1094829E+005  0.1043930E+01  0.7957747E-01            NaN
         13   -1    0    0    0    0  0.00000000000E+00  0.00000000000E+00  0.74505805969E-08  0.10566000000E+00  0.10566000000E+00 0.  1.
     999900   -1    0    0    0    0 -0.00000000000E+00 -0.00000000000E+00 -0.74505805969E-08  0.93827000000E+00  0.93827000000E+00 0. -1.
     999902    2    1    2    0    0 -0.22154313149E-01 -0.36120585363E-02  0.84538225675E-02  0.10199440109E+01  0.10196619330E+01 0.  0.
     999903    2    3    3    0    0  0.38161045640E-01  0.94792076323E-01  0.76935293841E-01  0.12976929310E+00  0.21891250677E-01 0.  0.
         14    1    1    2    0    0  0.22154313149E-01  0.36120585363E-02 -0.84538225675E-02  0.23985989118E-01  0.00000000000E+00 0. -1.
     999901    1    3    3    0    0 -0.60315358789E-01 -0.98404134860E-01 -0.68481471274E-01  0.89017471778E+00  0.88000000000E+00 0. -1.
        -11    1    4    4    0    0  0.28907074030E-01  0.88037387153E-01  0.71693477969E-01  0.11715978990E+00  0.51100000000E-03 0. -1.
         11    1    4    4    0    0  0.92539716102E-02  0.67546891705E-02  0.52418158728E-02  0.12609503202E-01  0.51100000000E-03 0.  1.
</event>
<event>
 8    1  0.1094829E+005  0.1043930E+01  0.7957747E-01            NaN
         13   -1    0    0    0    0  0.00000000000E+00  0.00000000000E+00  0.74505805969E-08  0.10566000000E+00  0.10566000000E+00 0. -1.
     999900   -1    0    0    0    0 -0.00000000000E+00 -0.00000000000E+00 -0.74505805969E-08  0.93827000000E+00  0.93827000000E+00 0.  1.
     999902    2    1    2    0    0  0.17049530369E-01  0.91721117872E-02 -0.12188142959E-01  0.10210528291E+01  0.10207965100E+01 0.  0.
     999903    2    3    3    0    0  0.11484184977E+00 -0.23531235155E-01 -0.61970122422E-01  0.13363461194E+00  0.16599516505E-01 0.  0.
         14    1    1    2    0    0 -0.17049530369E-01 -0.91721117872E-02  0.12188142959E-01  0.22877170918E-01  0.00000000000E+00 0. -1.
     999901    1    3    3    0    0 -0.97792319404E-01  0.32703346942E-01  0.49781979463E-01  0.88741821714E+00  0.88000000000E+00 0. -1.
        -11    1    4    4    0    0  0.69940967317E-01 -0.61276333565E-02 -0.38184709878E-01  0.79922587478E-01  0.51100000000E-03 0. -1.
         11    1    4    4    0    0  0.44900882456E-01 -0.17403601799E-01 -0.23785412544E-01  0.53712024462E-01  0.51100000000E-03 0.  1.
</event>
<event>
 8    1  0.1094829E+005  0.1043930E+01  0.7957747E-01            NaN
         13   -1    0    0    0    0  0.00000000000E+00  0.00000000000E+00  0.74505805969E-08  0.10566000000E+00  0.10566000000E+00 0.  1.
     999900   -1    0    0    0    0 -0.00000000000E+00 -0.00000000000E+00 -0.74505805969E-08  0.93827000000E+00  0.93827000000E+00 0. -1.
     999902    2    1    2    0    0 -0.19034518746E-01  0.14677610712E-01 -0.27358988149E-02  0.10197384663E+01  0.10194514747E+01 0.  0.
     999903    2    3    3    0    0 -0.79415480169E-01  0.88994609141E-01  0.54663036954E-01  0.13268519024E+00  0.19759887466E-01 0.  0.
         14    1    1    2    0    0  0.19034518746E-01 -0.14677610712E-01  0.27358988149E-02  0.24191533693E-01  0.00000000000E+00 0.  1.
     999901    1    3    3    0    0  0.60380961424E-01 -0.74316998430E-01 -0.57398935768E-01  0.88705327607E+00  0.88000000000E+00 0. -1.
        -11    1    4    4    0    0 -0.84224573354E-02  0.16694696122E-01  0.29967162133E-02  0.18944447610E-01  0.51100000000E-03 0.  1.
         11    1    4    4    0    0 -0.70993022834E-01  0.72299913019E-01  0.51666320740E-01  0.11374074263E+00  0.51100000000E-03 0. -1.
</event>
<event>
 8    1  0.1094829E+005  0.1043930E+01  0.7957747E-01            NaN
         13   -1    0    0    0    0  0.00000000000E+00  0.00000000000E+00  0.74505805969E-08  0.10566000000E+00  0.10566000000E+00 0. -1.
     999900   -1    0    0    0    0 -0.00000000000E+00 -0.00000000000E+00 -0.74505805969E-08  0.93827000000E+00  0.93827000000E+00 0. -1.
     999902    2    1    2    0    0  0.47371139647E-02  0.31260374731E-02 -0.23919435857E-01  0.10193464329E+01  0.10190499490E+01 0.  0.
     999903    2    3    3    0    0 -0.87688871237E-01  0.63279452144E-01  0.65623814747E-01  0.12795482999E+00  0.19295757376E-01 0.  0.
         14    1    1    2    0    0 -0.47371139647E-02 -0.31260374731E-02  0.23919435857E-01  0.24583567087E-01  0.00000000000E+00 0. -1.
     999901    1    3    3    0    0  0.92425985202E-01 -0.60153414671E-01 -0.89543250604E-01  0.89139160293E+00  0.88000000000E+00 0. -1.
        -11    1    4    4    0    0 -0.38191523119E-01  0.24054615580E-01  0.16942547816E-01  0.48213359314E-01  0.51100000000E-03 0. -1.
         11    1    4    4    0    0 -0.49497348118E-01  0.39224836563E-01  0.48681266931E-01  0.79741470673E-01  0.51100000000E-03 0.  1.
</event>
<event>
 8    1  0.1094829E+005  0.1043930E+01  0.7957747E-01            NaN
         13   -1    0    0    0    0  0.00000000000E+00  0.00000000000E+00  0.74505805969E-08  0.10566000000E+00  0.10566000000E+00 0.  1.
     999900   -1    0    0    0    0 -0.00000000000E+00 -0.00000000000E+00 -0.74505805969E-08  0.93827000000E+00  0.93827000000E+00 0. -1.
     999902    2    1    2    0    0 -0.98914001069E-02  0.16838107815E-01  0.14255286916E-01  0.10197520167E+01  0.10194653504E+01 0.  0.
     999903    2    3    3    0    0 -0.22728543749E-01 -0.10108978040E+00  0.74947511411E-01  0.12972093569E+00  0.21786722708E-01 0.  0.
         14    1    1    2    0    0  0.98914001069E-02 -0.16838107815E-01 -0.14255286916E-01  0.24177983289E-01  0.00000000000E+00 0. -1.
     999901    1    3    3    0    0  0.12837143642E-01  0.11792788821E+00 -0.60692224495E-01  0.89003108102E+00  0.88000000000E+00 0. -1.
        -11    1    4    4    0    0 -0.36126416795E-02 -0.15240479094E-01  0.22164507117E-01  0.27144978903E-01  0.51100000000E-03 0.  1.
         11    1    4    4    0    0 -0.19115902070E-01 -0.85849301306E-01  0.52783004294E-01  0.10257595678E+00  0.51100000000E-03 0. -1.
</event>
<event>
 8    1  0.1094829E+005  0.1043930E+01  0.7957747E-01            NaN
         13   -1    0    0    0    0  0.00000000000E+00  0.00000000000E+00  0.74505805969E-08  0.10566000000E+00  0.10566000000E+00 0. -1.
     999900   -1    0    0    0    0 -0.00000000000E+00 -0.00000000000E+00 -0.74505805969E-08  0.93827000000E+00  0.93827000000E+00 0.  1.
     999902    2    1    2    0    0 -0.10516375480E-01  0.26044060121E-02  0.19413363252E-01  0.10216981365E+01  0.10214562283E+01 0.  0.
     999903    2    3    3    0    0  0.79141946093E-01  0.62839164728E-01 -0.78873262914E-01  0.12966276627E+00  0.19473908133E-01 0.  0.
         14    1    1    2    0    0  0.10516375480E-01 -0.26044060121E-02 -0.19413363252E-01  0.22231863545E-01  0.00000000000E+00 0.  1.
     999901    1    3    3    0    0 -0.89658321573E-01 -0.60234758716E-01  0.98286626166E-01  0.89203537019E+00  0.88000000000E+00 0. -1.
        -11    1    4    4    0    0  0.24988708592E-02  0.37606739143E-02 -0.96967829627E-02  0.10708676141E-01  0.51100000000E-03 0. -1.
         11    1    4    4    0    0  0.76643075234E-01  0.59078490814E-01 -0.69176479952E-01  0.11895409013E+00  0.51100000000E-03 0.  1.
</event>
<event>
 8    1  0.1094829E+005  0.1043930E+01  0.7957747E-01            NaN
         13   -1    0    0    0    0  0.00000000000E+00  0.00000000000E+00  0.74505805969E-08  0.10566000000E+00  0.10566000000E+00 0. -1.
     999900   -1    0    0    0    0 -0.00000000000E+00 -0.00000000000E+00 -0.74505805969E-08  0.93827000000E+00  0.93827000000E+00 0. -1.
     999902    2    1    2    0    0 -0.19102471139E-02  0.28322319587E-01  0.22605556891E-01  0.10076420677E+01  0.10069884421E+01 0.  0.
     999903    2    3    3    0    0  0.51006445837E-02  0.12085739776E+00  0.40878809472E-02  0.12256873872E+00  0.19335402002E-01 0.  0.
         14    1    1    2    0    0  0.19102471139E-02 -0.28322319587E-01 -0.22605556891E-01  0.36287932335E-01  0.00000000000E+00 0.  1.
     999901    1    3    3    0    0 -0.70108916975E-02 -0.92535078175E-01  0.18517675944E-01  0.88507332895E+00  0.88000000000E+00 0.  1.
        -11    1    4    4    0    0  0.76004848698E-02  0.74114349539E-01  0.10778425573E-01  0.75280407522E-01  0.51100000000E-03 0.  1.
         11    1    4    4    0    0 -0.24998402861E-02  0.46743048223E-01 -0.66905446257E-02  0.47288331193E-01  0.51100000000E-03 0. -1.
</event>
<event>
 8    1  0.1094829E+005  0.1043930E+01  0.7957747E-01            NaN
         13   -1    0    0    0    0  0.00000000000E+00  0.00000000000E+00  0.74505805969E-08  0.10566000000E+00  0.10566000000E+00 0. -1.
     999900   -1    0    0    0    0 -0.00000000000E+00 -0.00000000000E+00 -0.74505805969E-08  0.93827000000E+00  0.93827000000E+00 0.  1.
     999902    2    1    2    0    0  0.13767459623E-01  0.15323992787E-01  0.10526847529E-01  0.10207959943E+01  0.10205338210E+01 0.  0.
     999903    2    3    3    0    0 -0.40917769475E-01  0.10849856028E+00  0.59704002142E-01  0.13282619369E+00  0.25140175379E-01 0.  0.
         14    1    1    2    0    0 -0.13767459623E-01 -0.15323992787E-01 -0.10526847529E-01  0.23134005669E-01  0.00000000000E+00 0.  1.
     999901    1    3    3    0    0  0.54685229098E-01 -0.93174567492E-01 -0.49177154613E-01  0.88796980064E+00  0.88000000000E+00 0.  1.
        -11    1    4    4    0    0  0.65877992027E-03  0.13906831292E-01  0.95309773716E-03  0.13964364069E-01  0.51100000000E-03 0. -1.
         11    1    4    4    0    0 -0.41576549395E-01  0.94591728987E-01  0.58750904405E-01  0.11886182962E+00  0.51100000000E-03 0.  1.
</event>
<event>
 8    1  0.1094829E+005  0.1043930E+01  0.7957747E-01            NaN
         13   -1    0    0    0    0  0.00000000000E+00  0.00000000000E+00  0.74505805969E-08  0.10566000000E+00  0.10566000000E+00 0. -1.
     999900   -1    0    0    0    0 -0.00000000000E+00 -0.00000000000E+00 -0.74505805969E-08  0.93827000000E+00  0.93827000000E+00 0.  1.
     999902    2    1    2    0    0 -0.44154597785E-02 -0.18069332189E-01 -0.13403222470E-01  0.10210030852E+01  0.10207456375E+01 0.  0.
     999903    2    3    3    0    0  0.66712429683E-01  0.10851534847E+00  0.98222069226E-02  0.12880227896E+00  0.16353048303E-01 0.  0.
         14    1    1    2    0    0  0.44154597785E-02  0.18069332189E-01  0.13403222470E-01  0.22926914825E-01  0.00000000000E+00 0. -1.
     999901    1    3    3    0    0 -0.71127889461E-01 -0.12658468066E+00 -0.23225429393E-01  0.89220080621E+00  0.88000000000E+00 0.  1.
        -11    1    4    4    0    0  0.48118324431E-01  0.64594493112E-01  0.28597781405E-02  0.80599386713E-01  0.51100000000E-03 0. -1.
         11    1    4    4    0    0  0.18594105252E-01  0.43920855359E-01  0.69624287821E-02  0.48202892248E-01  0.51100000000E-03 0.  1.
</event>
<event>
 8    1  0.1094829E+005  0.1043930E+01  0.7957747E-01            NaN
         13   -1    0    0    0    0  0.00000000000E+00  0.00000000000E+00  0.74505805969E-08  0.10566000000E+00  0.10566000000E+00 0.  1.
     999900   -1    0    0    0    0 -0.00000000000E+00 -0.00000000000E+00 -0.74505805969E-08  0.93827000000E+00  0.93827000000E+00 0.  1.
     999902    2    1    2    0    0  0.86678945001E-02  0.12159245193E-01 -0.16115410148E-01  0.10219598820E+01  0.10217236977E+01 0.  0.
     999903    2    3    3    0    0 -0.52521320500E-01 -0.98581072431E-01 -0.66476927243E-01  0.13148595183E+00  0.19815567755E-01 0.  0.
         14    1    1    2    0    0 -0.86678945001E-02 -0.12159245193E-01  0.16115410148E-01  0.21970117955E-01  0.00000000000E+00 0.  1.
     999901    1    3    3    0    0  0.61189215000E-01  0.11074031762E+00  0.50361517096E-01  0.89047393021E+00  0.88000000000E+00 0. -1.
        -11    1    4    4    0    0 -0.32546224785E-01 -0.76566363426E-01 -0.43317288739E-01  0.93799325055E-01  0.51100000000E-03 0. -1.
         11    1    4    4    0    0 -0.19975095715E-01 -0.22014709005E-01 -0.23159638504E-01  0.37686626780E-01  0.51100000000E-03 0.  1.
</event>
<event>
 8    1  0.1094829E+005  0.1043930E+01  0.7957747E-01            NaN
         13   -1    0    0    0    0  0.00000000000E+00  0.00000000000E+00  0.74505805969E-08  0.10566000000E+00  0.10566000000E+00 0. -1.
     999900   -1    0    0    0    0 -0.00000000000E+00 -0.00000000000E+00 -0.74505805969E-08  0.93827000000E+00  0.93827000000E+00 0.  1.
     999902    2    1    2    0    0 -0.53609305419E-02 -0.22668491915E-02 -0.22926637078E-01  0.10202760602E+01  0.10200018285E+01 0.  0.
     999903    2    3    3    0    0 -0.82331256992E-01 -0.15222986939E-01 -0.10193522444E+00  0.13329542367E+00  0.19149537338E-01 0.  0.
         14    1    1    2    0    0  0.53609305419E-02  0.22668491915E-02  0.22926637078E-01  0.23653939825E-01  0.00000000000E+00 0.  1.
     999901    1    3    3    0    0  0.76970326450E-01  0.12956137747E-01  0.79008587363E-01  0.88698063651E+00  0.88000000000E+00 0. -1.
        -11    1    4    4    0    0 -0.30019957361E-01  0.35529952778E-02 -0.33300562413E-01  0.44977885604E-01  0.51100000000E-03 0. -1.
         11    1    4    4    0    0 -0.52311299631E-01 -0.18775982216E-01 -0.68634662028E-01  0.88317538065E-01  0.51100000000E-03 0.  1.
</event>
<event>
 8    1  0.1094829E+005  0.1043930E+01  0.7957747E-01            NaN
         13   -1    0    0    0    0  0.00000000000E+00  0.00000000000E+00  0.74505805969E-08  0.10566000000E+00  0.10566000000E+00 0.  1.
     999900   -1    0    0    0    0 -0.00000000000E+00 -0.00000000000E+00 -0.74505805969E-08  0.93827000000E+00  0.93827000000E+00 0. -1.
     999902    2    1    2    0    0 -0.16479153347E-01  0.50406334048E-02 -0.16224526932E-01  0.10202613339E+01  0.10199867566E+01 0.  0.
     999903    2    3    3    0    0  0.44886755177E-01  0.65477134455E-02 -0.12135635286E+00  0.13188036448E+00  0.24644934865E-01 0.  0.
         14    1    1    2    0    0  0.16479153347E-01 -0.50406334048E-02  0.16224526932E-01  0.23668666086E-01  0.00000000000E+00 0.  1.
     999901    1    3    3    0    0 -0.61365908524E-01 -0.15070800406E-02  0.10513182593E+00  0.88838096943E+00  0.88000000000E+00 0.  1.
        -11    1    4    4    0    0  0.24484384802E-01 -0.16574817594E-02 -0.91874646356E-01  0.95097024711E-01  0.51100000000E-03 0.  1.
         11    1    4    4    0    0  0.20402370375E-01  0.82051952048E-02 -0.29481706509E-01  0.36783339774E-01  0.51100000000E-03 0. -1.
</event>
<event>
 8    1  0.1094829E+005  0.1043930E+01  0.7957747E-01            NaN
         13   -1    0    0    0    0  0.00000000000E+00  0.00000000000E+00  0.74505805969E-08  0.10566000000E+00  0.10566000000E+00 0.  1.
     999900   -1    0    0    0    0 -0.00000000000E+00 -0.00000000000E+00 -0.74505805969E-08  0.93827000000E+00  0.93827000000E+00 0.  1.
     999902    2    1    2    0    0  0.21325707864E-01 -0.52200442876E-02 -0.58201439141E-02  0.10212163752E+01  0.10209637487E+01 0.  0.
     999903    2    3    3    0    0  0.50384279634E-01  0.98159597690E-01  0.69089238837E-01  0.13152925791E+00  0.18781387358E-01 0.  0.
         14    1    1    2    0    0 -0.21325707864E-01  0.52200442876E-02  0.58201439141E-02  0.22713624842E-01  0.00000000000E+00 0.  1.
     999901    1    3    3    0    0 -0.29058571769E-01 -0.10337964198E+00 -0.74909382751E-01  0.88968711725E+00  0.88000000000E+00 0.  1.
        -11    1    4    4    0    0  0.34030217483E-01  0.63248550004E-01  0.55062757509E-01  0.90501951167E-01  0.51100000000E-03 0. -1.
         11    1    4    4    0    0  0.16354062151E-01  0.34911047685E-01  0.14026481328E-01  0.41027306745E-01  0.51100000000E-03 0.  1.
</event>
<event>
 8    1  0.1094829E+005  0.1043930E+01  0.7957747E-01            NaN
         13   -1    0    0    0    0  0.00000000000E+00  0.00000000000E+00  0.74505805969E-08  0.10566000000E+00  0.10566000000E+00 0.  1.
     999900   -1    0    0    0    0 -0.00000000000E+00 -0.00000000000E+00 -0.74505805969E-08  0.93827000000E+00  0.93827000000E+00 0.  1.
     999902    2    1    2    0    0  0.15543948396E-01  0.13746348882E-01  0.11782745319E-01  0.10200676965E+01  0.10197885545E+01 0.  0.
     999903    2    3    3    0    0  0.50366959731E-01 -0.11693268095E+00  0.14917050576E-01  0.12973097662E+00  0.19938038803E-01 0.  0.
         14    1    1    2    0    0 -0.15543948396E-01 -0.13746348882E-01 -0.11782745319E-01  0.23862303464E-01  0.00000000000E+00 0. -1.
     999901    1    3    3    0    0 -0.34823011335E-01  0.13067902983E+00 -0.31343052572E-02  0.89033671991E+00  0.88000000000E+00 0. -1.
        -11    1    4    4    0    0  0.37049892729E-01 -0.61020781643E-01  0.78562387232E-02  0.71820693059E-01  0.51100000000E-03 0. -1.
         11    1    4    4    0    0  0.13317067002E-01 -0.55911899306E-01  0.70608118529E-02  0.57910283564E-01  0.51100000000E-03 0.  1.
</event>
<event>
 8    1  0.1094829E+005  0.1043930E+01  0.7957747E-01            NaN
         13   -1    0    0    0    0  0.00000000000E+00  0.00000000000E+00  0.74505805969E-08  0.10566000000E+00  0.10566000000E+00 0.  1.
     999900   -1    0    0    0    0 -0.00000000000E+00 -0.00000000000E+00 -0.74505805969E-08  0.93827000000E+00  0.93827000000E+00 0. -1.
     999902    2    1    2    0    0 -0.17727846365E-01 -0.16423829616E-02 -0.15158715846E-01  0.10205470869E+01  0.10202791755E+01 0.  0.
     999903    2    3    3    0    0 -0.10039283888E+00  0.59026695306E-01  0.57899133309E-01  0.13158607125E+00  0.19992789993E-01 0.  0.
         14    1    1    2    0    0  0.17727846365E-01  0.16423829616E-02  0.15158715846E-01  0.23382913091E-01  0.00000000000E+00 0.  1.
     999901    1    3    3    0    0  0.82664992512E-01 -0.60669078268E-01 -0.73057849154E-01  0.88896101566E+00  0.88000000000E+00 0. -1.
        -11    1    4    4    0    0 -0.38163427720E-01  0.12992406815E-01  0.14521072276E-01  0.42852917185E-01  0.51100000000E-03 0. -1.
         11    1    4    4    0    0 -0.62229411157E-01  0.46034288492E-01  0.43378061032E-01  0.88733154062E-01  0.51100000000E-03 0.  1.
</event>
<event>
 8    1  0.1094829E+005  0.1043930E+01  0.7957747E-01            NaN
         13   -1    0    0    0    0  0.00000000000E+00  0.00000000000E+00  0.74505805969E-08  0.10566000000E+00  0.10566000000E+00 0.  1.
     999900   -1    0    0    0    0 -0.00000000000E+00 -0.00000000000E+00 -0.74505805969E-08  0.93827000000E+00  0.93827000000E+00 0.  1.
     999902    2    1    2    0    0 -0.20169527241E-01 -0.94125779449E-02 -0.80649779630E-02  0.10202561680E+01  0.10199814694E+01 0.  0.
     999903    2    3    3    0    0  0.12002100975E+00 -0.81610190788E-02  0.38773976295E-01  0.12792840270E+00  0.19763855048E-01 0.  0.
         14    1    1    2    0    0  0.20169527241E-01  0.94125779449E-02  0.80649779630E-02  0.23673832014E-01  0.00000000000E+00 0. -1.
     999901    1    3    3    0    0 -0.14019053699E+00 -0.12515588661E-02 -0.46838954258E-01  0.89232776528E+00  0.88000000000E+00 0.  1.
        -11    1    4    4    0    0  0.58698689508E-01 -0.70254808844E-02  0.28893717693E-01  0.65802747471E-01  0.51100000000E-03 0.  1.
         11    1    4    4    0    0  0.61322320241E-01 -0.11355381943E-02  0.98802586022E-02  0.62125655230E-01  0.51100000000E-03 0. -1.
</event>
<event>
 8    1  0.1094829E+005  0.1043930E+01  0.7957747E-01            NaN
         13   -1    0    0    0    0  0.00000000000E+00  0.00000000000E+00  0.74505805969E-08  0.10566000000E+00  0.10566000000E+00 0.  1.
     999900   -1    0    0    0    0 -0.00000000000E+00 -0.00000000000E+00 -0.74505805969E-08  0.93827000000E+00  0.93827000000E+00 0. -1.
     999902    2    1    2    0    0  0.13849785402E-01  0.12276017564E-01 -0.15167453325E-01  0.10200015900E+01  0.10197208809E+01 0.  0.
     999903    2    3    3    0    0 -0.90244790884E-01  0.87339922932E-01 -0.29356798990E-01  0.13057952587E+00  0.20415839681E-01 0.  0.
         14    1    1    2    0    0 -0.13849785402E-01 -0.12276017564E-01  0.15167453325E-01  0.23928409961E-01  0.00000000000E+00 0.  1.
     999901    1    3    3    0    0  0.10409457629E+00 -0.75063905368E-01  0.14189345665E-01  0.88942206417E+00  0.88000000000E+00 0. -1.
        -11    1    4    4    0    0 -0.33497473711E-01  0.33119530337E-01 -0.97930557892E-03  0.47119042808E-01  0.51100000000E-03 0. -1.
         11    1    4    4    0    0 -0.56747317173E-01  0.54220392595E-01 -0.28377493411E-01  0.83460483061E-01  0.51100000000E-03 0.  1.
</event>
<event>
 8    1  0.1094829E+005  0.1043930E+01  0.7957747E-01            NaN
         13   -1    0    0    0    0  0.00000000000E+00  0.00000000000E+00  0.74505805969E-08  0.10566000000E+00  0.10566000000E+00 0.  1.
     999900   -1    0    0    0    0 -0.00000000000E+00 -0.00000000000E+00 -0.74505805969E-08  0.93827000000E+00  0.93827000000E+00 0.  1.
     999902    2    1    2    0    0  0.16556666733E-01  0.13570822422E-01  0.67933036661E-02  0.10214702714E+01  0.10212233232E+01 0.  0.
     999903    2    3    3    0    0  0.87852702395E-01  0.25890477878E-01  0.95794228056E-01  0.13402671648E+00  0.19955260926E-01 0.  0.
         14    1    1    2    0    0 -0.16556666733E-01 -0.13570822422E-01 -0.67933036661E-02  0.22459728610E-01  0.00000000000E+00 0. -1.
     999901    1    3    3    0    0 -0.71296035662E-01 -0.12319655455E-01 -0.89000924389E-01  0.88744355491E+00  0.88000000000E+00 0.  1.
        -11    1    4    4    0    0  0.39748628041E-01  0.22097388579E-01  0.46546811741E-01  0.65077759775E-01  0.51100000000E-03 0.  1.
         11    1    4    4    0    0  0.48104074354E-01  0.37930892991E-02  0.49247416314E-01  0.68948956704E-01  0.51100000000E-03 0. -1.
</event>
<event>
 8    1  0.1094829E+005  0.1043930E+01  0.7957747E-01            NaN
         13   -1    0    0    0    0  0.00000000000E+00  0.00000000000E+00  0.74505805969E-08  0.10566000000E+00  0.10566000000E+00 0.  1.
     999900   -1    0    0    0    0 -0.00000000000E+00 -0.00000000000E+00 -0.74505805969E-08  0.93827000000E+00  0.93827000000E+00 0. -1.
     999902    2    1    2    0    0 -0.12208528023E-01  0.14771019207E-02 -0.18489078149E-01  0.10217246854E+01  0.10214833610E+01 0.  0.
     999903    2    3    3    0    0  0.10393513316E+00 -0.75573618063E-01 -0.13720833797E-01  0.13074269923E+00  0.19786573021E-01 0.  0.
         14    1    1    2    0    0  0.12208528023E-01 -0.14771019207E-02  0.18489078149E-01  0.22205314620E-01  0.00000000000E+00 0.  1.
     999901    1    3    3    0    0 -0.11614366118E+00  0.77050719984E-01 -0.47682443512E-02  0.89098198615E+00  0.88000000000E+00 0. -1.
        -11    1    4    4    0    0  0.19222109780E-01 -0.74661824472E-02 -0.72060751172E-02  0.21849989115E-01  0.51100000000E-03 0. -1.
         11    1    4    4    0    0  0.84713023375E-01 -0.68107435616E-01 -0.65147586801E-02  0.10889271012E+00  0.51100000000E-03 0.  1.
</event>
<event>
 8    1  0.1094829E+005  0.1043930E+01  0.7957747E-01            NaN
         13   -1    0    0    0    0  0.00000000000E+00  0.00000000000E+00  0.74505805969E-08  0.10566000000E+00  0.10566000000E+00 0. -1.
     999900   -1    0    0    0    0 -0.00000000000E+00 -0.00000000000E+00 -0.74505805969E-08  0.93827000000E+00  0.93827000000E+00 0. -1.
     999902    2    1    2    0    0  0.18302503938E-01 -0.11885032538E-01  0.10053717082E-01  0.10199026640E+01  0.10196196012E+01 0.  0.
     999903    2    3    3    0    0 -0.16814198543E-02  0.10356480799E+00  0.76344606624E-01  0.12966533331E+00  0.16003220782E-01 0.  0.
         14    1    1    2    0    0 -0.18302503938E-01  0.11885032538E-01 -0.10053717082E-01  0.24027336015E-01  0.00000000000E+00 0.  1.
     999901    1    3    3    0    0  0.19983923792E-01 -0.11544984053E+00 -0.66290889542E-01  0.89023733067E+00  0.88000000000E+00 0. -1.
        -11    1    4    4    0    0  0.40159387447E-02  0.68805084442E-01  0.43509853366E-01  0.81508501827E-01  0.51100000000E-03 0.  1.
         11    1    4    4    0    0 -0.56973585991E-02  0.34759723548E-01  0.32834753258E-01  0.48156831485E-01  0.51100000000E-03 0. -1.
</event>
<event>
 8    1  0.1094829E+005  0.1043930E+01  0.7957747E-01            NaN
         13   -1    0    0    0    0  0.00000000000E+00  0.00000000000E+00  0.74505805969E-08  0.10566000000E+00  0.10566000000E+00 0.  1.
     999900   -1    0    0    0    0 -0.00000000000E+00 -0.00000000000E+00 -0.74505805969E-08  0.93827000000E+00  0.93827000000E+00 0. -1.
     999902    2    1    2    0    0  0.12471755830E-01  0.20043534859E-01 -0.52976216143E-02  0.10197359351E+01  0.10194488827E+01 0.  0.
     999903    2    3    3    0    0  0.94993079006E-02 -0.36499281320E-01  0.12148239284E+00  0.12884924330E+00  0.20535855009E-01 0.  0.
         14    1    1    2    0    0 -0.12471755830E-01 -0.20043534859E-01  0.52976216143E-02  0.24194064932E-01  0.00000000000E+00 0.  1.
     999901    1    3    3    0    0  0.29724479299E-02  0.56542816179E-01 -0.12678001445E+00  0.89088669177E+00  0.88000000000E+00 0. -1.
        -11    1    4    4    0    0  0.10228482911E-01 -0.24156097404E-01  0.10505678085E+00  0.10828355013E+00  0.51100000000E-03 0.  1.
         11    1    4    4    0    0 -0.72917500999E-03 -0.12343183916E-01  0.16425611989E-01  0.20565693171E-01  0.51100000000E-03 0. -1.
</event>
<event>
 8    1  0.1094829E+005  0.1043930E+01  0.7957747E-01            NaN
         13   -1    0    0    0    0  0.00000000000E+00  0.00000000000E+00  0.74505805969E-08  0.10566000000E+00  0.10566000000E+00 0.  1.
     999900   -1    0    0    0    0 -0.00000000000E+00 -0.00000000000E+00 -0.74505805969E-08  0.93827000000E+00  0.93827000000E+00 0. -1.
     999902    2    1    2    0    0  0.39926659692E-02 -0.40504165536E-02  0.22942912818E-01  0.10202926460E+01  0.10200188032E+01 0.  0.
     999903    2    3    3    0    0 -0.74209438674E-02 -0.89656448760E-01  0.96120066798E-01  0.13304208437E+00  0.19177584834E-01 0.  0.
         14    1    1    2    0    0 -0.39926659692E-02  0.40504165536E-02 -0.22942912818E-01  0.23637354006E-01  0.00000000000E+00 0. -1.
     999901    1    3    3    0    0  0.11413609837E-01  0.85606032206E-01 -0.73177153979E-01  0.88725056163E+00  0.88000000000E+00 0. -1.
        -11    1    4    4    0    0 -0.38733562433E-02 -0.49859586385E-01  0.39437277209E-01  0.63690982075E-01  0.51100000000E-03 0. -1.
         11    1    4    4    0    0 -0.35475876240E-02 -0.39796862375E-01  0.56682789589E-01  0.69351102294E-01  0.51100000000E-03 0.  1.
</event>
<event>
 8    1  0.1094829E+005  0.1043930E+01  0.7957747E-01            NaN
         13   -1    0    0    0    0  0.00000000000E+00  0.00000000000E+00  0.74505805969E-08  0.10566000000E+00  0.10566000000E+00 0.  1.
     999900   -1    0    0    0    0 -0.00000000000E+00 -0.00000000000E+00 -0.74505805969E-08  0.93827000000E+00  0.93827000000E+00 0.  1.
     999902    2    1    2    0    0 -0.20744377970E-01 -0.11766896490E-01 -0.31120647395E-03  0.10200786705E+01  0.10197997882E+01 0.  0.
     999903    2    3    3    0    0  0.20899712668E-01  0.81782638337E-01  0.95636516972E-01  0.12896043400E+00  0.18953950416E-01 0.  0.
         14    1    1    2    0    0  0.20744377970E-01  0.11766896490E-01  0.31120647395E-03  0.23851329520E-01  0.00000000000E+00 0. -1.
     999901    1    3    3    0    0 -0.41644090639E-01 -0.93549534827E-01 -0.95947723446E-01  0.89111823648E+00  0.88000000000E+00 0.  1.
        -11    1    4    4    0    0  0.78769690946E-02  0.50002946869E-01  0.68557773741E-01  0.85221891548E-01  0.51100000000E-03 0. -1.
         11    1    4    4    0    0  0.13022743574E-01  0.31779691468E-01  0.27078743231E-01  0.43738542453E-01  0.51100000000E-03 0.  1.
</event>
<event>
 8    1  0.1094829E+005  0.1043930E+01  0.7957747E-01            NaN
         13   -1    0    0    0    0  0.00000000000E+00  0.00000000000E+00  0.74505805969E-08  0.10566000000E+00  0.10566000000E+00 0. -1.
     999900   -1    0    0    0    0 -0.00000000000E+00 -0.00000000000E+00 -0.74505805969E-08  0.93827000000E+00  0.93827000000E+00 0.  1.
     999902    2    1    2    0    0 -0.21326172922E-01 -0.45108547680E-02  0.89311179703E-02  0.10203732954E+01  0.10201013399E+01 0.  0.
     999903    2    3    3    0    0 -0.10675328155E+00 -0.32065644368E-01  0.70735339687E-01  0.13365078013E+00  0.20846440390E-01 0.  0.
         14    1    1    2    0    0  0.21326172922E-01  0.45108547680E-02 -0.89311179703E-02  0.23556704575E-01  0.00000000000E+00 0.  1.
     999901    1    3    3    0    0  0.85427108629E-01  0.27554789600E-01 -0.61804221717E-01  0.88672251530E+00  0.88000000000E+00 0.  1.
        -11    1    4    4    0    0 -0.84080030663E-01 -0.16089411372E-01  0.55102499361E-01  0.10180799218E+00  0.51100000000E-03 0. -1.
         11    1    4    4    0    0 -0.22673250887E-01 -0.15976232997E-01  0.15632840326E-01  0.31842787946E-01  0.51100000000E-03 0.  1.
</event>
<event>
 8    1  0.1094829E+005  0.1043930E+01  0.7957747E-01            NaN
         13   -1    0    0    0    0  0.00000000000E+00  0.00000000000E+00  0.74505805969E-08  0.10566000000E+00  0.10566000000E+00 0.  1.
     999900   -1    0    0    0    0 -0.00000000000E+00 -0.00000000000E+00 -0.74505805969E-08  0.93827000000E+00  0.93827000000E+00 0.  1.
     999902    2    1    2    0    0  0.18137834707E-01 -0.14830687436E-02 -0.13643930595E-01  0.10211849482E+01  0.10209316143E+01 0.  0.
     999903    2    3    3    0    0 -0.34270898581E-01  0.15722046990E-01 -0.12527513710E+00  0.13241938988E+00  0.20478222361E-01 0.  0.
         14    1    1    2    0    0 -0.18137834707E-01  0.14830687436E-02  0.13643930595E-01  0.22745051832E-01  0.00000000000E+00 0.  1.
     999901    1    3    3    0    0  0.52408733288E-01 -0.17205115734E-01  0.11163120650E+00  0.88876555829E+00  0.88000000000E+00 0. -1.
        -11    1    4    4    0    0 -0.28618618494E-01  0.15337368446E-01 -0.73769920766E-01  0.80601008221E-01  0.51100000000E-03 0.  1.
         11    1    4    4    0    0 -0.56522800868E-02  0.38467854425E-03 -0.51505216329E-01  0.51818381660E-01  0.51100000000E-03 0. -1.
</event>
<event>
 8    1  0.1094829E+005  0.1043930E+01  0.7957747E-01            NaN
         13   -1    0    0    0    0  0.00000000000E+00  0.00000000000E+00  0.74505805969E-08  0.10566000000E+00  0.10566000000E+00 0.  1.
     999900   -1    0    0    0    0 -0.00000000000E+00 -0.00000000000E+00 -0.74505805969E-08  0.93827000000E+00  0.93827000000E+00 0.  1.
     999902    2    1    2    0    0 -0.15446942603E-02  0.34732265937E-02  0.22602811976E-01  0.10210097798E+01  0.10207524842E+01 0.  0.
     999903    2    3    3    0    0  0.95290565053E-01 -0.11289580338E-01 -0.84369680509E-01  0.12913640201E+00  0.18714190425E-01 0.  0.
         14    1    1    2    0    0  0.15446942603E-02 -0.34732265937E-02 -0.22602811976E-01  0.22920220168E-01  0.00000000000E+00 0. -1.
     999901    1    3    3    0    0 -0.96835259313E-01  0.14762806931E-01  0.10697249249E+00  0.89187337782E+00  0.88000000000E+00 0. -1.
        -11    1    4    4    0    0  0.37369879453E-01 -0.98425106605E-02 -0.43749062720E-01  0.58374862024E-01  0.51100000000E-03 0. -1.
         11    1    4    4    0    0  0.57920685599E-01 -0.14470696770E-02 -0.40620617788E-01  0.70761539988E-01  0.51100000000E-03 0.  1.
</event>
<event>
 8    1  0.1128154E+005  0.1043930E+01  0.7957747E-01            NaN
         13   -1    0    0    0    0  0.00000000000E+00  0.00000000000E+00  0.74505805969E-08  0.10566000000E+00  0.10566000000E+00 0.  1.
     999900   -1    0    0    0    0 -0.00000000000E+00 -0.00000000000E+00 -0.74505805969E-08  0.93827000000E+00  0.93827000000E+00 0.  1.
     999902    2    1    2    0    0 -0.16744588928E-01 -0.42629679594E-02  0.15937504263E-01  0.10204234435E+01  0.10201526582E+01 0.  0.
     999903    2    3    3    0    0 -0.55176020495E-01  0.11557795493E+00 -0.17679400274E-01  0.13083425858E+00  0.20059539436E-01 0.  0.
         14    1    1    2    0    0  0.16744588928E-01  0.42629679594E-02 -0.15937504263E-01  0.23506556454E-01  0.00000000000E+00 0.  1.
     999901    1    3    3    0    0  0.38431431567E-01 -0.11984092289E+00  0.33616904537E-01  0.88958918496E+00  0.88000000000E+00 0. -1.
        -11    1    4    4    0    0 -0.26439284867E-01  0.51952214046E-01  0.18949238043E-02  0.58325982082E-01  0.51100000000E-03 0.  1.
         11    1    4    4    0    0 -0.28736735628E-01  0.63625740881E-01 -0.19574324078E-01  0.72508276502E-01  0.51100000000E-03 0. -1.
</event>
<event>
 8    1  0.1094829E+005  0.1043930E+01  0.7957747E-01            NaN
         13   -1    0    0    0    0  0.00000000000E+00  0.00000000000E+00  0.74505805969E-08  0.10566000000E+00  0.10566000000E+00 0.  1.
     999900   -1    0    0    0    0 -0.00000000000E+00 -0.00000000000E+00 -0.74505805969E-08  0.93827000000E+00  0.93827000000E+00 0.  1.
     999902    2    1    2    0    0  0.55768039145E-02 -0.10291010459E-01  0.20346387311E-01  0.10204570131E+01  0.10201870095E+01 0.  0.
     999903    2    3    3    0    0  0.23772469920E-01  0.24565280233E-01  0.12697438424E+00  0.13314896455E+00  0.20918154514E-01 0.  0.
         14    1    1    2    0    0 -0.55768039145E-02  0.10291010459E-01 -0.20346387311E-01  0.23472986917E-01  0.00000000000E+00 0.  1.
     999901    1    3    3    0    0 -0.18195666006E-01 -0.34856290692E-01 -0.10662799693E+00  0.88730804853E+00  0.88000000000E+00 0.  1.
        -11    1    4    4    0    0  0.21627176716E-01  0.26403214335E-01  0.93221829459E-01  0.99274544111E-01  0.51100000000E-03 0. -1.
         11    1    4    4    0    0  0.21452932040E-02 -0.18379341019E-02  0.33752554783E-01  0.33874420439E-01  0.51100000000E-03 0.  1.
</event>
<event>
 8    1  0.1094829E+005  0.1043930E+01  0.7957747E-01            NaN
         13   -1    0    0    0    0  0.00000000000E+00  0.00000000000E+00  0.74505805969E-08  0.10566000000E+00  0.10566000000E+00 0.  1.
     999900   -1    0    0    0    0 -0.00000000000E+00 -0.00000000000E+00 -0.74505805969E-08  0.93827000000E+00  0.93827000000E+00 0.  1.
     999902    2    1    2    0    0  0.21175454104E-01 -0.13184938413E-02 -0.10661776609E-01  0.10201852793E+01  0.10199089137E+01 0.  0.
     999903    2    3    3    0    0 -0.57849935471E-01  0.11332128349E+00 -0.11007694956E-01  0.12923780022E+00  0.19821991130E-01 0.  0.
         14    1    1    2    0    0 -0.21175454104E-01  0.13184938413E-02  0.10661776609E-01  0.23744720740E-01  0.00000000000E+00 0.  1.
     999901    1    3    3    0    0  0.79025389575E-01 -0.11463977733E+00  0.34591834702E-03  0.89094747904E+00  0.88000000000E+00 0.  1.
        -11    1    4    4    0    0 -0.19143580884E-02  0.18280706284E-01 -0.33629893333E-02  0.18692774202E-01  0.51100000000E-03 0.  1.
         11    1    4    4    0    0 -0.55935577382E-01  0.95040577207E-01 -0.76447056232E-02  0.11054502602E+00  0.51100000000E-03 0. -1.
</event>
<event>
 8    1  0.1094829E+005  0.1043930E+01  0.7957747E-01            NaN
         13   -1    0    0    0    0  0.00000000000E+00  0.00000000000E+00  0.74505805969E-08  0.10566000000E+00  0.10566000000E+00 0. -1.
     999900   -1    0    0    0    0 -0.00000000000E+00 -0.00000000000E+00 -0.74505805969E-08  0.93827000000E+00  0.93827000000E+00 0.  1.
     999902    2    1    2    0    0  0.21227417336E-01 -0.76693896738E-05  0.11317829686E-01  0.10198738870E+01  0.10195901376E+01 0.  0.
     999903    2    3    3    0    0 -0.65893494215E-01 -0.58718868568E-01  0.93306458298E-01  0.12984063289E+00  0.19043021903E-01 0.  0.
         14    1    1    2    0    0 -0.21227417336E-01  0.76693896738E-05 -0.11317829686E-01  0.24056113036E-01  0.00000000000E+00 0. -1.
     999901    1    3    3    0    0  0.87120911551E-01  0.58711199178E-01 -0.81988628612E-01  0.89003325408E+00  0.88000000000E+00 0.  1.
        -11    1    4    4    0    0 -0.57721811461E-01 -0.54203457362E-01  0.90112931691E-01  0.11996009289E+00  0.51100000000E-03 0.  1.
         11    1    4    4    0    0 -0.81716827537E-02 -0.45154112063E-02  0.31935266062E-02  0.98805399941E-02  0.51100000000E-03 0. -1.
</event>
<event>
 8    1  0.1094829E+005  0.1043930E+01  0.7957747E-01            NaN
         13   -1    0    0    0    0  0.00000000000E+00  0.00000000000E+00  0.74505805969E-08  0.10566000000E+00  0.10566000000E+00 0. -1.
     999900   -1    0    0    0    0 -0.00000000000E+00 -0.00000000000E+00 -0.74505805969E-08  0.93827000000E+00  0.93827000000E+00 0.  1.
     999902    2    1    2    0    0 -0.14159433453E-01  0.37470501574E-02 -0.19077799141E-01  0.10198781319E+01  0.10195944839E+01 0.  0.
     999903    2    3    3    0    0 -0.12209135295E+00  0.41903090721E-01  0.16904364371E-01  0.13173405641E+00  0.20147868567E-01 0.  0.
         14    1    1    2    0    0  0.14159433453E-01 -0.37470501574E-02  0.19077799141E-01  0.24051868133E-01  0.00000000000E+00 0. -1.
     999901    1    3    3    0    0  0.10793191949E+00 -0.38156040564E-01 -0.35982163512E-01  0.88814407546E+00  0.88000000000E+00 0. -1.
        -11    1    4    4    0    0 -0.62375143967E-01  0.17735346962E-01  0.18000429218E-01  0.67301394412E-01  0.51100000000E-03 0. -1.
         11    1    4    4    0    0 -0.59716208978E-01  0.24167743759E-01 -0.10960648477E-02  0.64432661999E-01  0.51100000000E-03 0.  1.
</event>
<event>
 8    1  0.1094829E+005  0.1043930E+01  0.7957747E-01            NaN
         13   -1    0    0    0    0  0.00000000000E+00  0.00000000000E+00  0.74505805969E-08  0.10566000000E+00  0.10566000000E+00 0.  1.
     999900   -1    0    0    0    0 -0.00000000000E+00 -0.00000000000E+00 -0.74505805969E-08  0.93827000000E+00  0.93827000000E+00 0.  1.
     999902    2    1    2    0    0 -0.40005798890E-02  0.50610712733E-02  0.21526871527E-01  0.10214572325E+01  0.10212099943E+01 0.  0.
     999903    2    3    3    0    0  0.79756840318E-01 -0.55433606465E-01  0.88577323873E-01  0.13287933797E+00  0.19414887341E-01 0.  0.
         14    1    1    2    0    0  0.40005798890E-02 -0.50610712733E-02 -0.21526871527E-01  0.22472767511E-01  0.00000000000E+00 0. -1.
     999901    1    3    3    0    0 -0.83757420207E-01  0.60494677738E-01 -0.67050452346E-01  0.88857789452E+00  0.88000000000E+00 0.  1.
        -11    1    4    4    0    0  0.30597669501E-01 -0.23349262176E-01  0.22898471112E-01  0.44788464177E-01  0.51100000000E-03 0. -1.
         11    1    4    4    0    0  0.49159170817E-01 -0.32084344288E-01  0.65678852761E-01  0.88090873788E-01  0.51100000000E-03 0.  1.
</event>
<event>
 8    1  0.1094829E+005  0.1043930E+01  0.7957747E-01            NaN
         13   -1    0    0    0    0  0.00000000000E+00  0.00000000000E+00  0.74505805969E-08  0.10566000000E+00  0.10566000000E+00 0. -1.
     999900   -1    0    0    0    0 -0.00000000000E+00 -0.00000000000E+00 -0.74505805969E-08  0.93827000000E+00  0.93827000000E+00 0. -1.
     999902    2    1    2    0    0 -0.19844160156E-01 -0.12549660318E-01  0.13688160183E-02  0.10204106819E+01  0.10201395990E+01 0.  0.
     999903    2    3    3    0    0  0.18183699214E-01  0.17059246510E-01 -0.12477911991E+00  0.13010954903E+00  0.27147765583E-01 0.  0.
         14    1    1    2    0    0  0.19844160156E-01  0.12549660318E-01 -0.13688160183E-02  0.23519318095E-01  0.00000000000E+00 0. -1.
     999901    1    3    3    0    0 -0.38027859370E-01 -0.29608906827E-01  0.12614793593E+00  0.89030113287E+00  0.88000000000E+00 0.  1.
        -11    1    4    4    0    0  0.68605545084E-02  0.14225170493E-03 -0.86305227917E-01  0.86579102158E-01  0.51100000000E-03 0.  1.
         11    1    4    4    0    0  0.11323144706E-01  0.16916994805E-01 -0.38473891992E-01  0.43530446876E-01  0.51100000000E-03 0. -1.
</event>
<event>
 8    1  0.1094829E+005  0.1043930E+01  0.7957747E-01            NaN
         13   -1    0    0    0    0  0.00000000000E+00  0.00000000000E+00  0.74505805969E-08  0.10566000000E+00  0.10566000000E+00 0.  1.
     999900   -1    0    0    0    0 -0.00000000000E+00 -0.00000000000E+00 -0.74505805969E-08  0.93827000000E+00  0.93827000000E+00 0.  1.
     999902    2    1    2    0    0  0.63462620596E-02  0.21089774099E-01  0.70127463349E-02  0.10208165359E+01  0.10205548332E+01 0.  0.
     999903    2    3    3    0    0  0.69529902768E-01 -0.93594427222E-01  0.53709291631E-01  0.12990396673E+00  0.19900461749E-01 0.  0.
         14    1    1    2    0    0 -0.63462620596E-02 -0.21089774099E-01 -0.70127463349E-02  0.23113464147E-01  0.00000000000E+00 0.  1.
     999901    1    3    3    0    0 -0.63183640709E-01  0.11468420132E+00 -0.46696545296E-01  0.89091256913E+00  0.88000000000E+00 0.  1.
        -11    1    4    4    0    0  0.33652337004E-02 -0.11233602897E-01  0.10545339481E-01  0.15779224876E-01  0.51100000000E-03 0. -1.
         11    1    4    4    0    0  0.66164669068E-01 -0.82360824325E-01  0.43163952150E-01  0.11412474185E+00  0.51100000000E-03 0.  1.
</event>
<event>
 8    1  0.1094829E+005  0.1043930E+01  0.7957747E-01            NaN
         13   -1    0    0    0    0  0.00000000000E+00  0.00000000000E+00  0.74505805969E-08  0.10566000000E+00  0.10566000000E+00 0. -1.
     999900   -1    0    0    0    0 -0.00000000000E+00 -0.00000000000E+00 -0.74505805969E-08  0.93827000000E+00  0.93827000000E+00 0. -1.
     999902    2    1    2    0    0  0.50556910853E-02 -0.17959539017E-01  0.15268316369E-01  0.10198213597E+01  0.10195363550E+01 0.  0.
     999903    2    3    3    0    0  0.67890601537E-01 -0.57841949298E-02 -0.10769659941E+00  0.12896961247E+00  0.19799311260E-01 0.  0.
         14    1    1    2    0    0 -0.50556910853E-02  0.17959539017E-01 -0.15268316369E-01  0.24108640335E-01  0.00000000000E+00 0.  1.
     999901    1    3    3    0    0 -0.62834910452E-01 -0.12175344088E-01  0.12296491578E+00  0.89085174720E+00  0.88000000000E+00 0.  1.
        -11    1    4    4    0    0  0.40037194448E-01 -0.12905885898E-01 -0.67795512171E-01  0.79787413930E-01  0.51100000000E-03 0. -1.
         11    1    4    4    0    0  0.27853407089E-01  0.71216909685E-02 -0.39901087241E-01  0.49182198535E-01  0.51100000000E-03 0.  1.
</event>
<event>
 8    1  0.1094829E+005  0.1043930E+01  0.7957747E-01            NaN
         13   -1    0    0    0    0  0.00000000000E+00  0.00000000000E+00  0.74505805969E-08  0.10566000000E+00  0.10566000000E+00 0. -1.
     999900   -1    0    0    0    0 -0.00000000000E+00 -0.00000000000E+00 -0.74505805969E-08  0.93827000000E+00  0.93827000000E+00 0. -1.
     999902    2    1    2    0    0 -0.15614921985E-01  0.95858395037E-02 -0.16279809198E-01  0.10194198736E+01  0.10191251800E+01 0.  0.
     999903    2    3    3    0    0  0.10395928319E+00 -0.52502684783E-02 -0.74078006144E-01  0.12933070269E+00  0.20094322181E-01 0.  0.
         14    1    1    2    0    0  0.15614921985E-01 -0.95858395037E-02  0.16279809198E-01  0.24510126379E-01  0.00000000000E+00 0. -1.
     999901    1    3    3    0    0 -0.11957420517E+00  0.14836107982E-01  0.57798196946E-01  0.89008917093E+00  0.88000000000E+00 0. -1.
        -11    1    4    4    0    0  0.95693281280E-01 -0.46552256837E-02 -0.73947887104E-01  0.12102655220E+00  0.51100000000E-03 0. -1.
         11    1    4    4    0    0  0.82660019053E-02 -0.59504279460E-03 -0.13011904033E-03  0.83041504918E-02  0.51100000000E-03 0.  1.
</event>
<event>
 8    1  0.1094829E+005  0.1043930E+01  0.7957747E-01            NaN
         13   -1    0    0    0    0  0.00000000000E+00  0.00000000000E+00  0.74505805969E-08  0.10566000000E+00  0.10566000000E+00 0. -1.
     999900   -1    0    0    0    0 -0.00000000000E+00 -0.00000000000E+00 -0.74505805969E-08  0.93827000000E+00  0.93827000000E+00 0. -1.
     999902    2    1    2    0    0  0.96734099234E-02  0.17986365597E-01  0.14381763778E-01  0.10189516226E+01  0.10186454191E+01 0.  0.
     999903    2    3    3    0    0  0.80966493599E-01  0.62421880398E-01 -0.77913544086E-01  0.13014588310E+00  0.20380537242E-01 0.  0.
         14    1    1    2    0    0 -0.96734099234E-02 -0.17986365597E-01 -0.14381763778E-01  0.24978377375E-01  0.00000000000E+00 0.  1.
     999901    1    3    3    0    0 -0.71293083675E-01 -0.44435514801E-01  0.92295307864E-01  0.88880573952E+00  0.88000000000E+00 0.  1.
        -11    1    4    4    0    0  0.66750351805E-01  0.59781519880E-01 -0.69566202136E-01  0.11344230774E+00  0.51100000000E-03 0. -1.
         11    1    4    4    0    0  0.14216141794E-01  0.26403605176E-02 -0.83473419505E-02  0.16703575360E-01  0.51100000000E-03 0.  1.
</event>
<event>
 8    1  0.1094829E+005  0.1043930E+01  0.7957747E-01            NaN
         13   -1    0    0    0    0  0.00000000000E+00  0.00000000000E+00  0.74505805969E-08  0.10566000000E+00  0.10566000000E+00 0. -1.
     999900   -1    0    0    0    0 -0.00000000000E+00 -0.00000000000E+00 -0.74505805969E-08  0.93827000000E+00  0.93827000000E+00 0.  1.
     999902    2    1    2    0    0  0.12712751469E-01  0.17675803142E-01 -0.10724040564E-01  0.10196595836E+01  0.10193706947E+01 0.  0.
     999903    2    3    3    0    0 -0.59505900414E-01  0.43980336598E-01  0.10365480948E+00  0.12893516858E+00  0.20118051038E-01 0.  0.
         14    1    1    2    0    0 -0.12712751469E-01 -0.17675803142E-01  0.10724040564E-01  0.24270416408E-01  0.00000000000E+00 0. -1.
     999901    1    3    3    0    0  0.72218651883E-01 -0.26304533456E-01 -0.11437885004E+00  0.89072441501E+00  0.88000000000E+00 0.  1.
        -11    1    4    4    0    0 -0.32089129766E-01  0.12728099040E-01  0.54970284343E-01  0.64913096029E-01  0.51100000000E-03 0.  1.
         11    1    4    4    0    0 -0.27416770648E-01  0.31252237558E-01  0.48684525135E-01  0.64022072551E-01  0.51100000000E-03 0. -1.
</event>
<event>
 8    1  0.1094829E+005  0.1043930E+01  0.7957747E-01            NaN
         13   -1    0    0    0    0  0.00000000000E+00  0.00000000000E+00  0.74505805969E-08  0.10566000000E+00  0.10566000000E+00 0.  1.
     999900   -1    0    0    0    0 -0.00000000000E+00 -0.00000000000E+00 -0.74505805969E-08  0.93827000000E+00  0.93827000000E+00 0. -1.
     999902    2    1    2    0    0 -0.17873171078E-01 -0.13660278020E-01 -0.53316795480E-02  0.10208111712E+01  0.10205493457E+01 0.  0.
     999903    2    3    3    0    0 -0.73304668844E-01 -0.81256003649E-01  0.72622886834E-01  0.13305064744E+00  0.21266840104E-01 0.  0.
         14    1    1    2    0    0  0.17873171078E-01  0.13660278020E-01  0.53316795480E-02  0.23118828837E-01  0.00000000000E+00 0. -1.
     999901    1    3    3    0    0  0.55431497765E-01  0.67595725629E-01 -0.77954566382E-01  0.88776052373E+00  0.88000000000E+00 0. -1.
        -11    1    4    4    0    0 -0.46009632220E-01 -0.47051092457E-01  0.31352696812E-01  0.72896805670E-01  0.51100000000E-03 0. -1.
         11    1    4    4    0    0 -0.27295036623E-01 -0.34204911191E-01  0.41270190022E-01  0.60153841767E-01  0.51100000000E-03 0.  1.
</event>
<event>
 8    1  0.1094829E+005  0.1043930E+01  0.7957747E-01            NaN
         13   -1    0    0    0    0  0.00000000000E+00  0.00000000000E+00  0.74505805969E-08  0.10566000000E+00  0.10566000000E+00 0. -1.
     999900   -1    0    0    0    0 -0.00000000000E+00 -0.00000000000E+00 -0.74505805969E-08  0.93827000000E+00  0.93827000000E+00 0. -1.
     999902    2    1    2    0    0 -0.21047607384E-02  0.10683578752E-01  0.96075617129E-02  0.10294084947E+01  0.10293060648E+01 0.  0.
     999903    2    3    3    0    0 -0.30890605527E-01 -0.11219816838E+00 -0.68825225639E-01  0.13695107236E+00  0.21818020972E-01 0.  0.
         14    1    1    2    0    0  0.21047607384E-02 -0.10683578752E-01 -0.96075617129E-02  0.14521505252E-01  0.00000000000E+00 0. -1.
     999901    1    3    3    0    0  0.28785844789E-01  0.12288174713E+00  0.78432787352E-01  0.89245742239E+00  0.88000000000E+00 0. -1.
        -11    1    4    4    0    0 -0.12520340809E-01 -0.59158728549E-01 -0.23779880265E-01  0.64978903684E-01  0.51100000000E-03 0.  1.
         11    1    4    4    0    0 -0.18370264718E-01 -0.53039439832E-01 -0.45045345374E-01  0.71972168679E-01  0.51100000000E-03 0. -1.
</event>
<event>
 8    1  0.1094829E+005  0.1043930E+01  0.7957747E-01            NaN
         13   -1    0    0    0    0  0.00000000000E+00  0.00000000000E+00  0.74505805969E-08  0.10566000000E+00  0.10566000000E+00 0. -1.
     999900   -1    0    0    0    0 -0.00000000000E+00 -0.00000000000E+00 -0.74505805969E-08  0.93827000000E+00  0.93827000000E+00 0. -1.
     999902    2    1    2    0    0  0.15799069848E-01 -0.17408390911E-01 -0.33594400076E-02  0.10201823997E+01  0.10199059663E+01 0.  0.
     999903    2    3    3    0    0 -0.41809559768E-01  0.95299140451E-01 -0.68108438183E-01  0.12877106111E+00  0.33365571602E-01 0.  0.
         14    1    1    2    0    0 -0.15799069848E-01  0.17408390911E-01  0.33594400076E-02  0.23747600286E-01  0.00000000000E+00 0. -1.
     999901    1    3    3    0    0  0.57608629616E-01 -0.11270753136E+00  0.64748998176E-01  0.89141133861E+00  0.88000000000E+00 0.  1.
        -11    1    4    4    0    0 -0.17654196722E-01  0.71858519581E-01 -0.56716112529E-01  0.93232483823E-01  0.51100000000E-03 0.  1.
         11    1    4    4    0    0 -0.24155363046E-01  0.23440620870E-01 -0.11392325654E-01  0.35538577285E-01  0.51100000000E-03 0. -1.
</event>
<event>
 8    1  0.1094829E+005  0.1043930E+01  0.7957747E-01            NaN
         13   -1    0    0    0    0  0.00000000000E+00  0.00000000000E+00  0.74505805969E-08  0.10566000000E+00  0.10566000000E+00 0.  1.
     999900   -1    0    0    0    0 -0.00000000000E+00 -0.00000000000E+00 -0.74505805969E-08  0.93827000000E+00  0.93827000000E+00 0. -1.
     999902    2    1    2    0    0 -0.12291133826E-01 -0.16951384825E-01 -0.40359586941E-02  0.10226060609E+01  0.10223837075E+01 0.  0.
     999903    2    3    3    0    0  0.20738176040E-01 -0.11423259285E+00  0.63860555403E-01  0.13403163776E+00  0.20178012067E-01 0.  0.
         14    1    1    2    0    0  0.12291133826E-01  0.16951384825E-01  0.40359586941E-02  0.21323939148E-01  0.00000000000E+00 0. -1.
     999901    1    3    3    0    0 -0.33029309866E-01  0.97281208020E-01 -0.67896514097E-01  0.88857442309E+00  0.88000000000E+00 0. -1.
        -11    1    4    4    0    0  0.56306476761E-03 -0.15495449374E-01  0.16580234804E-02  0.15602440710E-01  0.51100000000E-03 0.  1.
         11    1    4    4    0    0  0.20175111272E-01 -0.98737143471E-01  0.62202531923E-01  0.11842919705E+00  0.51100000000E-03 0. -1.
</event>
<event>
 8    1  0.1094829E+005  0.1043930E+01  0.7957747E-01            NaN
         13   -1    0    0    0    0  0.00000000000E+00  0.00000000000E+00  0.74505805969E-08  0.10566000000E+00  0.10566000000E+00 0.  1.
     999900   -1    0    0    0    0 -0.00000000000E+00 -0.00000000000E+00 -0.74505805969E-08  0.93827000000E+00  0.93827000000E+00 0.  1.
     999902    2    1    2    0    0  0.64129029245E-03  0.10500707441E-02 -0.23894717824E-01  0.10200036246E+01  0.10197229637E+01 0.  0.
     999903    2    3    3    0    0 -0.87059898852E-01 -0.73880344101E-01  0.56024817299E-01  0.12888455410E+00  0.20849865683E-01 0.  0.
         14    1    1    2    0    0 -0.64129029245E-03 -0.10500707441E-02  0.23894717824E-01  0.23926375440E-01  0.00000000000E+00 0.  1.
     999901    1    3    3    0    0  0.87701189145E-01  0.74930414845E-01 -0.79919535123E-01  0.89111907046E+00  0.88000000000E+00 0. -1.
        -11    1    4    4    0    0 -0.32776723525E-01 -0.20783897968E-01  0.28342710669E-01  0.48060944528E-01  0.51100000000E-03 0. -1.
         11    1    4    4    0    0 -0.54283175327E-01 -0.53096446133E-01  0.27682106630E-01  0.80823609571E-01  0.51100000000E-03 0.  1.
</event>
<event>
 8    1  0.1094829E+005  0.1043930E+01  0.7957747E-01            NaN
         13   -1    0    0    0    0  0.00000000000E+00  0.00000000000E+00  0.74505805969E-08  0.10566000000E+00  0.10566000000E+00 0. -1.
     999900   -1    0    0    0    0 -0.00000000000E+00 -0.00000000000E+00 -0.74505805969E-08  0.93827000000E+00  0.93827000000E+00 0.  1.
     999902    2    1    2    0    0 -0.11906550987E-01 -0.12690724245E-01  0.15095918566E-01  0.10208929169E+01  0.10206329608E+01 0.  0.
     999903    2    3    3    0    0 -0.28965040500E-01  0.37502455178E-01 -0.11726779043E+00  0.12941633353E+00  0.27412497089E-01 0.  0.
         14    1    1    2    0    0  0.11906550987E-01  0.12690724245E-01 -0.15095918566E-01  0.23037083054E-01  0.00000000000E+00 0.  1.
     999901    1    3    3    0    0  0.17058489513E-01 -0.50193179423E-01  0.13236370899E+00  0.89147658342E+00  0.88000000000E+00 0. -1.
        -11    1    4    4    0    0 -0.17936028126E-01  0.26265048833E-02 -0.36967088318E-01  0.41175555522E-01  0.51100000000E-03 0.  1.
         11    1    4    4    0    0 -0.11029012374E-01  0.34875950295E-01 -0.80300702108E-01  0.88240778005E-01  0.51100000000E-03 0. -1.
</event>
<event>
 8    1  0.1094829E+005  0.1043930E+01  0.7957747E-01            NaN
         13   -1    0    0    0    0  0.00000000000E+00  0.00000000000E+00  0.74505805969E-08  0.10566000000E+00  0.10566000000E+00 0. -1.
     999900   -1    0    0    0    0 -0.00000000000E+00 -0.00000000000E+00 -0.74505805969E-08  0.93827000000E+00  0.93827000000E+00 0. -1.
     999902    2    1    2    0    0  0.78050154810E-02  0.22326439695E-01  0.56579921280E-02  0.10196112613E+01  0.10193212071E+01 0.  0.
     999903    2    3    3    0    0  0.91077000439E-01 -0.84041740455E-01 -0.28414636855E-01  0.12865146578E+00  0.19641128048E-01 0.  0.
         14    1    1    2    0    0 -0.78050154810E-02 -0.22326439695E-01 -0.56579921280E-02  0.24318738681E-01  0.00000000000E+00 0. -1.
     999901    1    3    3    0    0 -0.83271984958E-01  0.10636818015E+00  0.34072628983E-01  0.89095979554E+00  0.88000000000E+00 0. -1.
        -11    1    4    4    0    0  0.60248965429E-02 -0.62386287126E-02  0.29743270793E-02  0.91830065414E-02  0.51100000000E-03 0. -1.
         11    1    4    4    0    0  0.85052103897E-01 -0.77803111743E-01 -0.31388963935E-01  0.11946845923E+00  0.51100000000E-03 0.  1.
</event>
<event>
 8    1  0.1094829E+005  0.1043930E+01  0.7957747E-01            NaN
         13   -1    0    0    0    0  0.00000000000E+00  0.00000000000E+00  0.74505805969E-08  0.10566000000E+00  0.10566000000E+00 0.  1.
     999900   -1    0    0    0    0 -0.00000000000E+00 -0.00000000000E+00 -0.74505805969E-08  0.93827000000E+00  0.93827000000E+00 0.  1.
     999902    2    1    2    0    0 -0.21946698602E-01 -0.79217099684E-02  0.97357585364E-02  0.10186476729E+01  0.10183338772E+01 0.  0.
     999903    2    3    3    0    0  0.96529944669E-01  0.42911888029E-01 -0.65885688903E-01  0.12604508890E+00  0.19671809303E-01 0.  0.
         14    1    1    2    0    0  0.21946698602E-01  0.79217099684E-02 -0.97357585364E-02  0.25282327081E-01  0.00000000000E+00 0. -1.
     999901    1    3    3    0    0 -0.11847664327E+00 -0.50833597997E-01  0.75621447439E-01  0.89260258402E+00  0.88000000000E+00 0.  1.
        -11    1    4    4    0    0  0.21284648976E-01  0.18437156402E-01 -0.14289466981E-01  0.31581877807E-01  0.51100000000E-03 0. -1.
         11    1    4    4    0    0  0.75245295694E-01  0.24474731627E-01 -0.51596221921E-01  0.94463211092E-01  0.51100000000E-03 0.  1.
</event>
<event>
 8    1  0.1094829E+005  0.1043930E+01  0.7957747E-01            NaN
         13   -1    0    0    0    0  0.00000000000E+00  0.00000000000E+00  0.74505805969E-08  0.10566000000E+00  0.10566000000E+00 0.  1.
     999900   -1    0    0    0    0 -0.00000000000E+00 -0.00000000000E+00 -0.74505805969E-08  0.93827000000E+00  0.93827000000E+00 0. -1.
     999902    2    1    2    0    0 -0.15880056773E-02 -0.23120378467E-01  0.37340410009E-02  0.10204562546E+01  0.10201862334E+01 0.  0.
     999903    2    3    3    0    0  0.18157318635E-01  0.84278097576E-01  0.94722492379E-01  0.12905106680E+00  0.15790545566E-01 0.  0.
         14    1    1    2    0    0  0.15880056773E-02  0.23120378467E-01 -0.37340410009E-02  0.23473745434E-01  0.00000000000E+00 0.  1.
     999901    1    3    3    0    0 -0.19745324312E-01 -0.10739847604E+00 -0.90988451378E-01  0.89140518776E+00  0.88000000000E+00 0. -1.
        -11    1    4    4    0    0  0.11066393288E-01  0.73197874225E-01  0.75385660724E-01  0.10565818859E+00  0.51100000000E-03 0.  1.
         11    1    4    4    0    0  0.70909253472E-02  0.11080223350E-01  0.19336831655E-01  0.23392878216E-01  0.51100000000E-03 0. -1.
</event>
<event>
 8    1  0.1094829E+005  0.1043930E+01  0.7957747E-01            NaN
         13   -1    0    0    0    0  0.00000000000E+00  0.00000000000E+00  0.74505805969E-08  0.10566000000E+00  0.10566000000E+00 0.  1.
     999900   -1    0    0    0    0 -0.00000000000E+00 -0.00000000000E+00 -0.74505805969E-08  0.93827000000E+00  0.93827000000E+00 0. -1.
     999902    2    1    2    0    0  0.10759335733E-01 -0.19511108632E-01  0.77807159844E-02  0.10203294448E+01  0.10200564640E+01 0.  0.
     999903    2    3    3    0    0 -0.19938828549E-01  0.11935230828E-01 -0.12543703449E+00  0.12921877904E+00  0.20567853924E-01 0.  0.
         14    1    1    2    0    0 -0.10759335733E-01  0.19511108632E-01 -0.77807159844E-02  0.23600555221E-01  0.00000000000E+00 0.  1.
     999901    1    3    3    0    0  0.30698164283E-01 -0.31446339461E-01  0.13321775048E+00  0.89111066574E+00  0.88000000000E+00 0.  1.
        -11    1    4    4    0    0 -0.10368464126E-01  0.16922255745E-01 -0.71188291360E-01  0.73904680066E-01  0.51100000000E-03 0.  1.
         11    1    4    4    0    0 -0.95703644230E-02 -0.49870249169E-02 -0.54248743132E-01  0.55314098973E-01  0.51100000000E-03 0. -1.
</event>
<event>
 8    1  0.1094829E+005  0.1043930E+01  0.7957747E-01            NaN
         13   -1    0    0    0    0  0.00000000000E+00  0.00000000000E+00  0.74505805969E-08  0.10566000000E+00  0.10566000000E+00 0.  1.
     999900   -1    0    0    0    0 -0.00000000000E+00 -0.00000000000E+00 -0.74505805969E-08  0.93827000000E+00  0.93827000000E+00 0. -1.
     999902    2    1    2    0    0 -0.20856683829E-01 -0.12271170387E-01  0.83257289781E-03  0.10197168618E+01  0.10194293513E+01 0.  0.
     999903    2    3    3    0    0 -0.58631365907E-01  0.11161234525E+00 -0.23907495367E-01  0.12989321467E+00  0.20142646348E-01 0.  0.
         14    1    1    2    0    0  0.20856683829E-01  0.12271170387E-01 -0.83257289781E-03  0.24213138182E-01  0.00000000000E+00 0.  1.
     999901    1    3    3    0    0  0.37774682078E-01 -0.12388351563E+00  0.24740068265E-01  0.88982364715E+00  0.88000000000E+00 0. -1.
        -11    1    4    4    0    0 -0.28603942319E-01  0.61650287671E-01 -0.32308800568E-02  0.68041481414E-01  0.51100000000E-03 0.  1.
         11    1    4    4    0    0 -0.30027423588E-01  0.49962057576E-01 -0.20676615311E-01  0.61851733252E-01  0.51100000000E-03 0. -1.
</event>
<event>
 8    1  0.1094829E+005  0.1043930E+01  0.7957747E-01            NaN
         13   -1    0    0    0    0  0.00000000000E+00  0.00000000000E+00  0.74505805969E-08  0.10566000000E+00  0.10566000000E+00 0. -1.
     999900   -1    0    0    0    0 -0.00000000000E+00 -0.00000000000E+00 -0.74505805969E-08  0.93827000000E+00  0.93827000000E+00 0.  1.
     999902    2    1    2    0    0 -0.11459586586E-01 -0.85462381806E-02 -0.19433297624E-01  0.10198050468E+01  0.10195196516E+01 0.  0.
     999903    2    3    3    0    0 -0.12128965996E+00 -0.55293927093E-02  0.44294661601E-01  0.13068582014E+00  0.19365194082E-01 0.  0.
         14    1    1    2    0    0  0.11459586586E-01  0.85462381806E-02  0.19433297624E-01  0.24124953229E-01  0.00000000000E+00 0. -1.
     999901    1    3    3    0    0  0.10983007338E+00 -0.30168454713E-02 -0.63727959225E-01  0.88911922663E+00  0.88000000000E+00 0.  1.
        -11    1    4    4    0    0 -0.24456917608E-01  0.61720097472E-02  0.62601135551E-02  0.25993935176E-01  0.51100000000E-03 0.  1.
         11    1    4    4    0    0 -0.96832742356E-01 -0.11701402456E-01  0.38034548046E-01  0.10469188497E+00  0.51100000000E-03 0. -1.
</event>
<event>
 8    1  0.1094829E+005  0.1043930E+01  0.7957747E-01            NaN
         13   -1    0    0    0    0  0.00000000000E+00  0.00000000000E+00  0.74505805969E-08  0.10566000000E+00  0.10566000000E+00 0.  1.
     999900   -1    0    0    0    0 -0.00000000000E+00 -0.00000000000E+00 -0.74505805969E-08  0.93827000000E+00  0.93827000000E+00 0. -1.
     999902    2    1    2    0    0  0.35671601805E-02  0.91214379912E-02  0.16492230453E-01  0.10247487871E+01  0.10245692547E+01 0.  0.
     999903    2    3    3    0    0 -0.92212629462E-01 -0.54937571407E-02  0.97532056219E-01  0.13572976290E+00  0.19409176897E-01 0.  0.
         14    1    1    2    0    0 -0.35671601805E-02 -0.91214379912E-02 -0.16492230453E-01  0.19181212894E-01  0.00000000000E+00 0. -1.
     999901    1    3    3    0    0  0.95779789642E-01  0.14615195132E-01 -0.81039825766E-01  0.88901902420E+00  0.88000000000E+00 0. -1.
        -11    1    4    4    0    0 -0.22298870368E-01  0.68460951501E-02  0.26334601440E-01  0.35183532973E-01  0.51100000000E-03 0.  1.
         11    1    4    4    0    0 -0.69913759094E-01 -0.12339852291E-01  0.71197454779E-01  0.10054622993E+00  0.51100000000E-03 0. -1.
</event>
<event>
 8    1  0.1094829E+005  0.1043930E+01  0.7957747E-01            NaN
         13   -1    0    0    0    0  0.00000000000E+00  0.00000000000E+00  0.74505805969E-08  0.10566000000E+00  0.10566000000E+00 0.  1.
     999900   -1    0    0    0    0 -0.00000000000E+00 -0.00000000000E+00 -0.74505805969E-08  0.93827000000E+00  0.93827000000E+00 0.  1.
     999902    2    1    2    0    0 -0.65092780199E-02 -0.13899336327E-01 -0.97923610952E-02  0.10257241606E+01  0.10255625779E+01 0.  0.
     999903    2    3    3    0    0 -0.15467953288E-01  0.12872093511E+00  0.24820552289E-01  0.13352527393E+00  0.20114727163E-01 0.  0.
         14    1    1    2    0    0  0.65092780199E-02  0.13899336327E-01  0.97923610952E-02  0.18205839351E-01  0.00000000000E+00 0.  1.
     999901    1    3    3    0    0  0.89586752686E-02 -0.14262027143E+00 -0.34612913384E-01  0.89219888672E+00  0.88000000000E+00 0.  1.
        -11    1    4    4    0    0 -0.29959163738E-02  0.38746020600E-01  0.16782373174E-01  0.42333660338E-01  0.51100000000E-03 0. -1.
         11    1    4    4    0    0 -0.12472036915E-01  0.89974914507E-01  0.80381791149E-02  0.91191613593E-01  0.51100000000E-03 0.  1.
</event>
<event>
 8    1  0.1094829E+005  0.1043930E+01  0.7957747E-01            NaN
         13   -1    0    0    0    0  0.00000000000E+00  0.00000000000E+00  0.74505805969E-08  0.10566000000E+00  0.10566000000E+00 0. -1.
     999900   -1    0    0    0    0 -0.00000000000E+00 -0.00000000000E+00 -0.74505805969E-08  0.93827000000E+00  0.93827000000E+00 0. -1.
     999902    2    1    2    0    0  0.16122084147E-01 -0.10487120195E-01 -0.69481689170E-02  0.10234805908E+01  0.10232762781E+01 0.  0.
     999903    2    3    3    0    0  0.91167511254E-01 -0.10424447094E-01 -0.97845558108E-01  0.13562128015E+00  0.19979844435E-01 0.  0.
         14    1    1    2    0    0 -0.16122084147E-01  0.10487120195E-01  0.69481689170E-02  0.20449409246E-01  0.00000000000E+00 0. -1.
     999901    1    3    3    0    0 -0.75045427107E-01 -0.62673100812E-04  0.90897389191E-01  0.88785931060E+00  0.88000000000E+00 0.  1.
        -11    1    4    4    0    0  0.38169082975E-01  0.52440528729E-02 -0.36954477160E-01  0.53387952656E-01  0.51100000000E-03 0. -1.
         11    1    4    4    0    0  0.52998428279E-01 -0.15668499967E-01 -0.60891080948E-01  0.82233327497E-01  0.51100000000E-03 0.  1.
</event>
<event>
 8    1  0.1094829E+005  0.1043930E+01  0.7957747E-01            NaN
         13   -1    0    0    0    0  0.00000000000E+00  0.00000000000E+00  0.74505805969E-08  0.10566000000E+00  0.10566000000E+00 0. -1.
     999900   -1    0    0    0    0 -0.00000000000E+00 -0.00000000000E+00 -0.74505805969E-08  0.93827000000E+00  0.93827000000E+00 0.  1.
     999902    2    1    2    0    0  0.47465256667E-02 -0.12088793150E-01 -0.20060997395E-01  0.10200320494E+01  0.10197520629E+01 0.  0.
     999903    2    3    3    0    0 -0.43225525491E-01 -0.11107113062E+00 -0.54256879873E-01  0.13252532876E+00  0.20344818449E-01 0.  0.
         14    1    1    2    0    0 -0.47465256667E-02  0.12088793150E-01  0.20060997395E-01  0.23897950586E-01  0.00000000000E+00 0. -1.
     999901    1    3    3    0    0  0.47972051158E-01  0.98982337474E-01  0.34195882478E-01  0.88750672065E+00  0.88000000000E+00 0. -1.
        -11    1    4    4    0    0 -0.29023196834E-01 -0.54680293711E-01 -0.35795543543E-01  0.71511275568E-01  0.51100000000E-03 0. -1.
         11    1    4    4    0    0 -0.14202328658E-01 -0.56390836914E-01 -0.18461336329E-01  0.61014053194E-01  0.51100000000E-03 0.  1.
</event>
<event>
 8    1  0.1094829E+005  0.1043930E+01  0.7957747E-01            NaN
         13   -1    0    0    0    0  0.00000000000E+00  0.00000000000E+00  0.74505805969E-08  0.10566000000E+00  0.10566000000E+00 0.  1.
     999900   -1    0    0    0    0 -0.00000000000E+00 -0.00000000000E+00 -0.74505805969E-08  0.93827000000E+00  0.93827000000E+00 0.  1.
     999902    2    1    2    0    0 -0.24186962667E-01  0.18903790165E-01  0.57873498275E-03  0.10132266227E+01  0.10127613201E+01 0.  0.
     999903    2    3    3    0    0  0.10154757787E+00 -0.19427818695E-01  0.60863623639E-01  0.12142353076E+00  0.18706748242E-01 0.  0.
         14    1    1    2    0    0  0.24186962667E-01 -0.18903790165E-01 -0.57873498275E-03  0.30703377336E-01  0.00000000000E+00 0. -1.
     999901    1    3    3    0    0 -0.12573454054E+00  0.38331608860E-01 -0.60284888656E-01  0.89180309190E+00  0.88000000000E+00 0.  1.
        -11    1    4    4    0    0  0.48826975506E-01 -0.14761232283E-01  0.21016320820E-01  0.55171680936E-01  0.51100000000E-03 0.  1.
         11    1    4    4    0    0  0.52720602366E-01 -0.46665864120E-02  0.39847302819E-01  0.66251849827E-01  0.51100000000E-03 0. -1.
</event>
<event>
 8    1  0.1094829E+005  0.1043930E+01  0.7957747E-01            NaN
         13   -1    0    0    0    0  0.00000000000E+00  0.00000000000E+00  0.74505805969E-08  0.10566000000E+00  0.10566000000E+00 0.  1.
     999900   -1    0    0    0    0 -0.00000000000E+00 -0.00000000000E+00 -0.74505805969E-08  0.93827000000E+00  0.93827000000E+00 0.  1.
     999902    2    1    2    0    0 -0.82571994342E-02  0.20696619403E-01 -0.95023945078E-02  0.10197054897E+01  0.10194177058E+01 0.  0.
     999903    2    3    3    0    0 -0.12877600948E-01 -0.95652108762E-01 -0.83235464699E-01  0.12897829225E+00  0.19801484092E-01 0.  0.
         14    1    1    2    0    0  0.82571994342E-02 -0.20696619403E-01  0.95023945078E-02  0.24224510286E-01  0.00000000000E+00 0.  1.
     999901    1    3    3    0    0  0.46204015134E-02  0.11634872816E+00  0.73733070192E-01  0.89072719746E+00  0.88000000000E+00 0. -1.
        -11    1    4    4    0    0 -0.12646585726E-01 -0.32694296249E-01 -0.23629922707E-01  0.42278688555E-01  0.51100000000E-03 0. -1.
         11    1    4    4    0    0 -0.23101522187E-03 -0.62957812512E-01 -0.59605541993E-01  0.86699603699E-01  0.51100000000E-03 0.  1.
</event>
<event>
 8    1  0.1094829E+005  0.1043930E+01  0.7957747E-01            NaN
         13   -1    0    0    0    0  0.00000000000E+00  0.00000000000E+00  0.74505805969E-08  0.10566000000E+00  0.10566000000E+00 0. -1.
     999900   -1    0    0    0    0 -0.00000000000E+00 -0.00000000000E+00 -0.74505805969E-08  0.93827000000E+00  0.93827000000E+00 0. -1.
     999902    2    1    2    0    0  0.12539724088E-01 -0.14847032156E-01  0.12817074250E-01  0.10206500422E+01  0.10203845119E+01 0.  0.
     999903    2    3    3    0    0 -0.28958454150E-01 -0.21752728681E-01 -0.12246385677E+00  0.12931917334E+00  0.20353847470E-01 0.  0.
         14    1    1    2    0    0 -0.12539724088E-01  0.14847032156E-01 -0.12817074250E-01  0.23279957826E-01  0.00000000000E+00 0.  1.
     999901    1    3    3    0    0  0.41498178238E-01  0.69056965248E-02  0.13528093102E+00  0.89133086884E+00  0.88000000000E+00 0.  1.
        -11    1    4    4    0    0 -0.16817345503E-01 -0.20013255413E-01 -0.10332517226E+00  0.10658192082E+00  0.51100000000E-03 0. -1.
         11    1    4    4    0    0 -0.12141108647E-01 -0.17394732680E-02 -0.19138684504E-01  0.22737252516E-01  0.51100000000E-03 0.  1.
</event>
<event>
 8    1  0.1094829E+005  0.1043930E+01  0.7957747E-01            NaN
         13   -1    0    0    0    0  0.00000000000E+00  0.00000000000E+00  0.74505805969E-08  0.10566000000E+00  0.10566000000E+00 0. -1.
     999900   -1    0    0    0    0 -0.00000000000E+00 -0.00000000000E+00 -0.74505805969E-08  0.93827000000E+00  0.93827000000E+00 0.  1.
     999902    2    1    2    0    0  0.75453297055E-02  0.20809025448E-01  0.10427021113E-01  0.10194622598E+01  0.10191685969E+01 0.  0.
     999903    2    3    3    0    0  0.27203759055E-01 -0.10344409495E+00 -0.66231035568E-01  0.12721691832E+00  0.18890975296E-01 0.  0.
         14    1    1    2    0    0 -0.75453297055E-02 -0.20809025448E-01 -0.10427021113E-01  0.24467740185E-01  0.00000000000E+00 0. -1.
     999901    1    3    3    0    0 -0.19658429349E-01  0.12425312039E+00  0.76658056682E-01  0.89224534150E+00  0.88000000000E+00 0. -1.
        -11    1    4    4    0    0  0.17003534881E-01 -0.35785687692E-01 -0.30647958528E-01  0.50092855029E-01  0.51100000000E-03 0.  1.
         11    1    4    4    0    0  0.10200224174E-01 -0.67658407254E-01 -0.35583077041E-01  0.77124063287E-01  0.51100000000E-03 0. -1.
</event>
<event>
 8    1  0.1094829E+005  0.1043930E+01  0.7957747E-01            NaN
         13   -1    0    0    0    0  0.00000000000E+00  0.00000000000E+00  0.74505805969E-08  0.10566000000E+00  0.10566000000E+00 0.  1.
     999900   -1    0    0    0    0 -0.00000000000E+00 -0.00000000000E+00 -0.74505805969E-08  0.93827000000E+00  0.93827000000E+00 0.  1.
     999902    2    1    2    0    0  0.16812044409E-01  0.11058731800E-01 -0.12308891212E-01  0.10203408247E+01  0.10200681102E+01 0.  0.
     999903    2    3    3    0    0  0.59487873927E-01 -0.95655434614E-01  0.61337924054E-01  0.12981682555E+00  0.20032422577E-01 0.  0.
         14    1    1    2    0    0 -0.16812044409E-01 -0.11058731800E-01  0.12308891212E-01  0.23589175253E-01  0.00000000000E+00 0. -1.
     999901    1    3    3    0    0 -0.42675829518E-01  0.10671416641E+00 -0.73646815266E-01  0.89052399919E+00  0.88000000000E+00 0.  1.
        -11    1    4    4    0    0  0.46758390867E-01 -0.87074784481E-01  0.50280120943E-01  0.11089056268E+00  0.51100000000E-03 0.  1.
         11    1    4    4    0    0  0.12729483060E-01 -0.85806501326E-02  0.11057803111E-01  0.18926262872E-01  0.51100000000E-03 0. -1.
</event>
<event>
 8    1  0.1094829E+005  0.1043930E+01  0.7957747E-01            NaN
         13   -1    0    0    0    0  0.00000000000E+00  0.00000000000E+00  0.74505805969E-08  0.10566000000E+00  0.10566000000E+00 0.  1.
     999900   -1    0    0    0    0 -0.00000000000E+00 -0.00000000000E+00 -0.74505805969E-08  0.93827000000E+00  0.93827000000E+00 0.  1.
     999902    2    1    2    0    0 -0.19143397501E-01 -0.12330451755E-01 -0.64369317175E-02  0.10202668684E+01  0.10199924210E+01 0.  0.
     999903    2    3    3    0    0 -0.81051893526E-02 -0.11052750622E+00  0.68072624760E-01  0.13160710359E+00  0.20112775712E-01 0.  0.
         14    1    1    2    0    0  0.19143397501E-01  0.12330451755E-01  0.64369317175E-02  0.23663131625E-01  0.00000000000E+00 0.  1.
     999901    1    3    3    0    0 -0.11038208148E-01  0.98197054468E-01 -0.74509556477E-01  0.88865976479E+00  0.88000000000E+00 0. -1.
        -11    1    4    4    0    0 -0.11696950100E-01 -0.37690545037E-01  0.28047698886E-01  0.48418285395E-01  0.51100000000E-03 0.  1.
         11    1    4    4    0    0  0.35917607477E-02 -0.72836961186E-01  0.40024925874E-01  0.83188818193E-01  0.51100000000E-03 0. -1.
</event>
<event>
 8    1  0.1094829E+005  0.1043930E+01  0.7957747E-01            NaN
         13   -1    0    0    0    0  0.00000000000E+00  0.00000000000E+00  0.74505805969E-08  0.10566000000E+00  0.10566000000E+00 0.  1.
     999900   -1    0    0    0    0 -0.00000000000E+00 -0.00000000000E+00 -0.74505805969E-08  0.93827000000E+00  0.93827000000E+00 0.  1.
     999902    2    1    2    0    0  0.18322625482E-01 -0.10043625385E-01  0.11209070750E-01  0.10202184779E+01  0.10199428936E+01 0.  0.
     999903    2    3    3    0    0  0.54447492272E-01 -0.11511734395E+00 -0.31203904753E-01  0.13221827919E+00  0.17072123121E-01 0.  0.
         14    1    1    2    0    0 -0.18322625482E-01  0.10043625385E-01 -0.11209070750E-01  0.23711522146E-01  0.00000000000E+00 0.  1.
     999901    1    3    3    0    0 -0.36124866790E-01  0.10507371856E+00  0.42412975503E-01  0.88800019866E+00  0.88000000000E+00 0. -1.
        -11    1    4    4    0    0  0.48724708304E-01 -0.10340003095E+00 -0.22411683585E-01  0.11648265228E+00  0.51100000000E-03 0. -1.
         11    1    4    4    0    0  0.57227839686E-02 -0.11717313000E-01 -0.87922211685E-02  0.15735626913E-01  0.51100000000E-03 0.  1.
</event>
<event>
 8    1  0.1094829E+005  0.1043930E+01  0.7957747E-01            NaN
         13   -1    0    0    0    0  0.00000000000E+00  0.00000000000E+00  0.74505805969E-08  0.10566000000E+00  0.10566000000E+00 0. -1.
     999900   -1    0    0    0    0 -0.00000000000E+00 -0.00000000000E+00 -0.74505805969E-08  0.93827000000E+00  0.93827000000E+00 0. -1.
     999902    2    1    2    0    0 -0.50799198140E-02  0.11817351874E-01 -0.20342614854E-01  0.10198618183E+01  0.10195777808E+01 0.  0.
     999903    2    3    3    0    0  0.89150582057E-01  0.45299195742E-01 -0.83477252302E-01  0.13195055935E+00  0.21039368911E-01 0.  0.
         14    1    1    2    0    0  0.50799198140E-02 -0.11817351874E-01  0.20342614854E-01  0.24068181687E-01  0.00000000000E+00 0. -1.
     999901    1    3    3    0    0 -0.94230501871E-01 -0.33481843867E-01  0.63134637449E-01  0.88791125897E+00  0.88000000000E+00 0.  1.
        -11    1    4    4    0    0  0.34897019890E-01  0.69811657588E-02 -0.25501778702E-01  0.43785163132E-01  0.51100000000E-03 0.  1.
         11    1    4    4    0    0  0.54253562167E-01  0.38318029983E-01 -0.57975473600E-01  0.88165396215E-01  0.51100000000E-03 0. -1.
</event>
<event>
 8    1  0.1094829E+005  0.1043930E+01  0.7957747E-01            NaN
         13   -1    0    0    0    0  0.00000000000E+00  0.00000000000E+00  0.74505805969E-08  0.10566000000E+00  0.10566000000E+00 0.  1.
     999900   -1    0    0    0    0 -0.00000000000E+00 -0.00000000000E+00 -0.74505805969E-08  0.93827000000E+00  0.93827000000E+00 0. -1.
     999902    2    1    2    0    0  0.22935537339E-01 -0.71319376829E-02 -0.47037122724E-02  0.10194549450E+01  0.10191611043E+01 0.  0.
     999903    2    3    3    0    0  0.11755191183E+00  0.50331936600E-01  0.26775301466E-01  0.13196112334E+00  0.18575938433E-01 0.  0.
         14    1    1    2    0    0 -0.22935537339E-01  0.71319376829E-02  0.47037122724E-02  0.24475055000E-01  0.00000000000E+00 0.  1.
     999901    1    3    3    0    0 -0.94616374492E-01 -0.57463874283E-01 -0.31479013738E-01  0.88749382165E+00  0.88000000000E+00 0.  1.
        -11    1    4    4    0    0  0.73143807699E-01  0.21715945175E-01  0.13490943600E-01  0.77484614987E-01  0.51100000000E-03 0.  1.
         11    1    4    4    0    0  0.44408104132E-01  0.28615991425E-01  0.13284357866E-01  0.54476508357E-01  0.51100000000E-03 0. -1.
</event>
<event>
 8    1  0.1094829E+005  0.1043930E+01  0.7957747E-01            NaN
         13   -1    0    0    0    0  0.00000000000E+00  0.00000000000E+00  0.74505805969E-08  0.10566000000E+00  0.10566000000E+00 0. -1.
     999900   -1    0    0    0    0 -0.00000000000E+00 -0.00000000000E+00 -0.74505805969E-08  0.93827000000E+00  0.93827000000E+00 0.  1.
     999902    2    1    2    0    0 -0.62091675005E-02  0.16552852894E-01  0.17425372676E-01  0.10191067385E+01  0.10188043728E+01 0.  0.
     999903    2    3    3    0    0 -0.96992847597E-01 -0.32096767414E-01 -0.75054876526E-01  0.12828629718E+00  0.19655141589E-01 0.  0.
         14    1    1    2    0    0  0.62091675005E-02 -0.16552852894E-01 -0.17425372676E-01  0.24823261528E-01  0.00000000000E+00 0.  1.
     999901    1    3    3    0    0  0.90783680097E-01  0.48649620308E-01  0.92480249202E-01  0.89082044129E+00  0.88000000000E+00 0.  1.
        -11    1    4    4    0    0 -0.13069462872E-01 -0.77041428985E-02 -0.19555755950E-01  0.24755875855E-01  0.51100000000E-03 0. -1.
         11    1    4    4    0    0 -0.83923384725E-01 -0.24392624515E-01 -0.55499120576E-01  0.10353042133E+00  0.51100000000E-03 0.  1.
</event>
<event>
 8    1  0.1094829E+005  0.1043930E+01  0.7957747E-01            NaN
         13   -1    0    0    0    0  0.00000000000E+00  0.00000000000E+00  0.74505805969E-08  0.10566000000E+00  0.10566000000E+00 0. -1.
     999900   -1    0    0    0    0 -0.00000000000E+00 -0.00000000000E+00 -0.74505805969E-08  0.93827000000E+00  0.93827000000E+00 0.  1.
     999902    2    1    2    0    0 -0.73987197299E-02 -0.19012933980E-01  0.13488146074E-01  0.10194726331E+01  0.10191792221E+01 0.  0.
     999903    2    3    3    0    0  0.12059525435E+00  0.14018600853E-01 -0.35589155013E-01  0.12824756545E+00  0.21002703292E-01 0.  0.
         14    1    1    2    0    0  0.73987197299E-02  0.19012933980E-01 -0.13488146074E-01  0.24457366921E-01  0.00000000000E+00 0.  1.
     999901    1    3    3    0    0 -0.12799397408E+00 -0.33031534834E-01  0.49077301087E-01  0.89122506763E+00  0.88000000000E+00 0. -1.
        -11    1    4    4    0    0  0.97838309987E-01  0.19569497641E-01 -0.29189482843E-01  0.10395954583E+00  0.51100000000E-03 0. -1.
         11    1    4    4    0    0  0.22756944368E-01 -0.55508967881E-02 -0.63996721698E-02  0.24288019619E-01  0.51100000000E-03 0.  1.
</event>
<event>
 8    1  0.1094829E+005  0.1043930E+01  0.7957747E-01            NaN
         13   -1    0    0    0    0  0.00000000000E+00  0.00000000000E+00  0.74505805969E-08  0.10566000000E+00  0.10566000000E+00 0. -1.
     999900   -1    0    0    0    0 -0.00000000000E+00 -0.00000000000E+00 -0.74505805969E-08  0.93827000000E+00  0.93827000000E+00 0.  1.
     999902    2    1    2    0    0  0.18921891066E-01  0.46793821313E-02  0.15087839200E-01  0.10192809134E+01  0.10189828276E+01 0.  0.
     999903    2    3    3    0    0  0.69881747140E-01 -0.10840540720E+00 -0.43368788987E-02  0.13037012137E+00  0.18503219527E-01 0.  0.
         14    1    1    2    0    0 -0.18921891066E-01 -0.46793821313E-02 -0.15087839200E-01  0.24649086603E-01  0.00000000000E+00 0.  1.
     999901    1    3    3    0    0 -0.50959856073E-01  0.11308478934E+00  0.19424718098E-01  0.88891079203E+00  0.88000000000E+00 0. -1.
        -11    1    4    4    0    0  0.43829686094E-01 -0.68313148522E-01  0.62141746309E-02  0.81403960171E-01  0.51100000000E-03 0. -1.
         11    1    4    4    0    0  0.26052061046E-01 -0.40092258682E-01 -0.10551053530E-01  0.48966161199E-01  0.51100000000E-03 0.  1.
</event>
<event>
 8    1  0.1094829E+005  0.1043930E+01  0.7957747E-01            NaN
         13   -1    0    0    0    0  0.00000000000E+00  0.00000000000E+00  0.74505805969E-08  0.10566000000E+00  0.10566000000E+00 0.  1.
     999900   -1    0    0    0    0 -0.00000000000E+00 -0.00000000000E+00 -0.74505805969E-08  0.93827000000E+00  0.93827000000E+00 0.  1.
     999902    2    1    2    0    0  0.60745891063E-02 -0.10709041828E-01  0.18658642637E-01  0.10215753773E+01  0.10213307605E+01 0.  0.
     999903    2    3    3    0    0 -0.62853541388E-01  0.23533684134E-01  0.11306141002E+00  0.13318608544E+00  0.21242621434E-01 0.  0.
         14    1    1    2    0    0 -0.60745891063E-02  0.10709041828E-01 -0.18658642637E-01  0.22354622671E-01  0.00000000000E+00 0. -1.
     999901    1    3    3    0    0  0.68928130495E-01 -0.34242725963E-01 -0.94402767381E-01  0.88838929189E+00  0.88000000000E+00 0.  1.
        -11    1    4    4    0    0 -0.47234621806E-01  0.72038087801E-02  0.75686321013E-01  0.89508014544E-01  0.51100000000E-03 0.  1.
         11    1    4    4    0    0 -0.15618919582E-01  0.16329875354E-01  0.37375089006E-01  0.43678070896E-01  0.51100000000E-03 0. -1.
</event>
<event>
 8    1  0.1094829E+005  0.1043930E+01  0.7957747E-01            NaN
         13   -1    0    0    0    0  0.00000000000E+00  0.00000000000E+00  0.74505805969E-08  0.10566000000E+00  0.10566000000E+00 0.  1.
     999900   -1    0    0    0    0 -0.00000000000E+00 -0.00000000000E+00 -0.74505805969E-08  0.93827000000E+00  0.93827000000E+00 0.  1.
     999902    2    1    2    0    0 -0.25803601172E-01 -0.10266074099E-01 -0.24043045875E-01  0.10071973692E+01  0.10065273242E+01 0.  0.
     999903    2    3    3    0    0 -0.51272575220E-01 -0.56522106155E-01  0.88446450389E-01  0.11846671489E+00  0.19696763580E-01 0.  0.
         14    1    1    2    0    0  0.25803601172E-01  0.10266074099E-01  0.24043045875E-01  0.36732630804E-01  0.00000000000E+00 0. -1.
     999901    1    3    3    0    0  0.25468974048E-01  0.46256032056E-01 -0.11248949626E+00  0.88873065431E+00  0.88000000000E+00 0.  1.
        -11    1    4    4    0    0 -0.21399676782E-01 -0.19557653544E-01  0.20349753455E-01  0.35423460661E-01  0.51100000000E-03 0. -1.
         11    1    4    4    0    0 -0.29872898439E-01 -0.36964452610E-01  0.68096696934E-01  0.83043254225E-01  0.51100000000E-03 0.  1.
</event>
<event>
 8    1  0.1094829E+005  0.1043930E+01  0.7957747E-01            NaN
         13   -1    0    0    0    0  0.00000000000E+00  0.00000000000E+00  0.74505805969E-08  0.10566000000E+00  0.10566000000E+00 0.  1.
     999900   -1    0    0    0    0 -0.00000000000E+00 -0.00000000000E+00 -0.74505805969E-08  0.93827000000E+00  0.93827000000E+00 0. -1.
     999902    2    1    2    0    0  0.22300976105E-01 -0.55596173736E-02  0.56517869615E-02  0.10202617602E+01  0.10199871929E+01 0.  0.
     999903    2    3    3    0    0 -0.11858177253E+00 -0.26509065906E-01  0.35755666002E-01  0.12830151903E+00  0.20455922883E-01 0.  0.
         14    1    1    2    0    0 -0.22300976105E-01  0.55596173736E-02 -0.56517869615E-02  0.23668239826E-01  0.00000000000E+00 0. -1.
     999901    1    3    3    0    0  0.14088274864E+00  0.20949448532E-01 -0.30103879041E-01  0.89196024115E+00  0.88000000000E+00 0.  1.
        -11    1    4    4    0    0 -0.42441914063E-01 -0.42711414031E-02  0.39564030193E-02  0.42842420147E-01  0.51100000000E-03 0.  1.
         11    1    4    4    0    0 -0.76139858469E-01 -0.22237924503E-01  0.31799262983E-01  0.85459098878E-01  0.51100000000E-03 0. -1.
</event>
<event>
 8    1  0.1094829E+005  0.1043930E+01  0.7957747E-01            NaN
         13   -1    0    0    0    0  0.00000000000E+00  0.00000000000E+00  0.74505805969E-08  0.10566000000E+00  0.10566000000E+00 0.  1.
     999900   -1    0    0    0    0 -0.00000000000E+00 -0.00000000000E+00 -0.74505805969E-08  0.93827000000E+00  0.93827000000E+00 0.  1.
     999902    2    1    2    0    0  0.89444907165E-02 -0.28895585202E-02 -0.21833985662E-01  0.10201586645E+01  0.10198816717E+01 0.  0.
     999903    2    3    3    0    0  0.11381803305E+00 -0.61150384817E-01  0.12291810867E-01  0.13136321346E+00  0.20280311294E-01 0.  0.
         14    1    1    2    0    0 -0.89444907165E-02  0.28895585202E-02  0.21833985662E-01  0.23771335522E-01  0.00000000000E+00 0.  1.
     999901    1    3    3    0    0 -0.10487354233E+00  0.58260826296E-01 -0.34125796530E-01  0.88879545102E+00  0.88000000000E+00 0. -1.
        -11    1    4    4    0    0  0.62946737574E-01 -0.22390090275E-01  0.52034119983E-02  0.67014509855E-01  0.51100000000E-03 0. -1.
         11    1    4    4    0    0  0.50871295473E-01 -0.38760294541E-01  0.70883988690E-02  0.64348703605E-01  0.51100000000E-03 0.  1.
</event>
<event>
 8    1  0.1094829E+005  0.1043930E+01  0.7957747E-01            NaN
         13   -1    0    0    0    0  0.00000000000E+00  0.00000000000E+00  0.74505805969E-08  0.10566000000E+00  0.10566000000E+00 0.  1.
     999900   -1    0    0    0    0 -0.00000000000E+00 -0.00000000000E+00 -0.74505805969E-08  0.93827000000E+00  0.93827000000E+00 0.  1.
     999902    2    1    2    0    0  0.58768415553E-02 -0.60542569582E-03  0.22920128624E-01  0.10202606928E+01  0.10199861005E+01 0.  0.
     999903    2    3    3    0    0 -0.10021177251E+00 -0.43595122495E-01 -0.64759287242E-01  0.12852609774E+00  0.19551431175E-01 0.  0.
         14    1    1    2    0    0 -0.58768415553E-02  0.60542569582E-03 -0.22920128624E-01  0.23669307195E-01  0.00000000000E+00 0. -1.
     999901    1    3    3    0    0  0.10608861407E+00  0.42989696799E-01  0.87679415865E-01  0.89173459506E+00  0.88000000000E+00 0. -1.
        -11    1    4    4    0    0 -0.20337194682E-01 -0.96067547722E-02 -0.23082937866E-01  0.32233125295E-01  0.51100000000E-03 0. -1.
         11    1    4    4    0    0 -0.79874577832E-01 -0.33988367723E-01 -0.41676349376E-01  0.96292972447E-01  0.51100000000E-03 0.  1.
</event>
<event>
 8    1  0.1094829E+005  0.1043930E+01  0.7957747E-01            NaN
         13   -1    0    0    0    0  0.00000000000E+00  0.00000000000E+00  0.74505805969E-08  0.10566000000E+00  0.10566000000E+00 0.  1.
     999900   -1    0    0    0    0 -0.00000000000E+00 -0.00000000000E+00 -0.74505805969E-08  0.93827000000E+00  0.93827000000E+00 0.  1.
     999902    2    1    2    0    0  0.63213355650E-02  0.19245270847E-03 -0.22531898245E-01  0.10205273771E+01  0.10202590086E+01 0.  0.
     999903    2    3    3    0    0 -0.12301533694E+00 -0.27534969456E-01 -0.26905677871E-01  0.13063080177E+00  0.21202433886E-01 0.  0.
         14    1    1    2    0    0 -0.63213355650E-02 -0.19245270847E-03  0.22531898245E-01  0.23402622928E-01  0.00000000000E+00 0.  1.
     999901    1    3    3    0    0  0.12933667251E+00  0.27727422164E-01  0.43737796253E-02  0.88989657531E+00  0.88000000000E+00 0.  1.
        -11    1    4    4    0    0 -0.11387047296E+00 -0.22978184139E-01 -0.19018708591E-01  0.11771344000E+00  0.51100000000E-03 0.  1.
         11    1    4    4    0    0 -0.91448639810E-02 -0.45567853171E-02 -0.78869692792E-02  0.12917361769E-01  0.51100000000E-03 0. -1.
</event>
<event>
 8    1  0.1094829E+005  0.1043930E+01  0.7957747E-01            NaN
         13   -1    0    0    0    0  0.00000000000E+00  0.00000000000E+00  0.74505805969E-08  0.10566000000E+00  0.10566000000E+00 0. -1.
     999900   -1    0    0    0    0 -0.00000000000E+00 -0.00000000000E+00 -0.74505805969E-08  0.93827000000E+00  0.93827000000E+00 0. -1.
     999902    2    1    2    0    0  0.49730982050E-02  0.63038393994E-03 -0.22278926112E-01  0.10210940713E+01  0.10208386860E+01 0.  0.
     999903    2    3    3    0    0  0.73755260887E-01  0.22629814536E-01 -0.10761873921E+00  0.13402144490E+00  0.20688345788E-01 0.  0.
         14    1    1    2    0    0 -0.49730982050E-02 -0.63038393994E-03  0.22278926112E-01  0.22835928674E-01  0.00000000000E+00 0. -1.
     999901    1    3    3    0    0 -0.68782162682E-01 -0.21999430596E-01  0.85339813093E-01  0.88707262642E+00  0.88000000000E+00 0.  1.
        -11    1    4    4    0    0  0.23261536536E-01  0.13211682541E-01 -0.50868819415E-01  0.57476478209E-01  0.51100000000E-03 0.  1.
         11    1    4    4    0    0  0.50493724351E-01  0.94181319945E-02 -0.56749919790E-01  0.76544966695E-01  0.51100000000E-03 0. -1.
</event>
<event>
 8    1  0.1094829E+005  0.1043930E+01  0.7957747E-01            NaN
         13   -1    0    0    0    0  0.00000000000E+00  0.00000000000E+00  0.74505805969E-08  0.10566000000E+00  0.10566000000E+00 0. -1.
     999900   -1    0    0    0    0 -0.00000000000E+00 -0.00000000000E+00 -0.74505805969E-08  0.93827000000E+00  0.93827000000E+00 0. -1.
     999902    2    1    2    0    0 -0.86483619713E-02 -0.21815378615E-01  0.13870508717E-02  0.10204219414E+01  0.10201511210E+01 0.  0.
     999903    2    3    3    0    0 -0.72353413878E-01  0.10499520321E+00  0.61133845008E-04  0.12905163936E+00  0.19882471896E-01 0.  0.
         14    1    1    2    0    0  0.86483619713E-02  0.21815378615E-01 -0.13870508717E-02  0.23508058597E-01  0.00000000000E+00 0.  1.
     999901    1    3    3    0    0  0.63705051906E-01 -0.12681058182E+00  0.13259170267E-02  0.89137030204E+00  0.88000000000E+00 0. -1.
        -11    1    4    4    0    0 -0.30331906714E-01  0.27908354110E-01 -0.13402471983E-02  0.41242674229E-01  0.51100000000E-03 0. -1.
         11    1    4    4    0    0 -0.42021507164E-01  0.77086849098E-01  0.14013810434E-02  0.87808965135E-01  0.51100000000E-03 0.  1.
</event>
<event>
 8    1  0.1094829E+005  0.1043930E+01  0.7957747E-01            NaN
         13   -1    0    0    0    0  0.00000000000E+00  0.00000000000E+00  0.74505805969E-08  0.10566000000E+00  0.10566000000E+00 0.  1.
     999900   -1    0    0    0    0 -0.00000000000E+00 -0.00000000000E+00 -0.74505805969E-08  0.93827000000E+00  0.93827000000E+00 0.  1.
     999902    2    1    2    0    0  0.12340878409E-02  0.21916833869E-01  0.11561041078E-01  0.10191201582E+01  0.10188181234E+01 0.  0.
     999903    2    3    3    0    0 -0.11274846674E+00  0.32340679273E-01  0.54453413020E-01  0.13067182831E+00  0.18756765063E-01 0.  0.
         14    1    1    2    0    0 -0.12340878409E-02 -0.21916833869E-01 -0.11561041078E-01  0.24809841806E-01  0.00000000000E+00 0. -1.
     999901    1    3    3    0    0  0.11398255458E+00 -0.10423845404E-01 -0.42892371942E-01  0.88844832988E+00  0.88000000000E+00 0. -1.
        -11    1    4    4    0    0 -0.27891351807E-01  0.20811825814E-02  0.69548061695E-02  0.28825150068E-01  0.51100000000E-03 0.  1.
         11    1    4    4    0    0 -0.84857114936E-01  0.30259496692E-01  0.47498606851E-01  0.10184667824E+00  0.51100000000E-03 0. -1.
</event>
<event>
 8    1  0.1094829E+005  0.1043930E+01  0.7957747E-01            NaN
         13   -1    0    0    0    0  0.00000000000E+00  0.00000000000E+00  0.74505805969E-08  0.10566000000E+00  0.10566000000E+00 0.  1.
     999900   -1    0    0    0    0 -0.00000000000E+00 -0.00000000000E+00 -0.74505805969E-08  0.93827000000E+00  0.93827000000E+00 0.  1.
     999902    2    1    2    0    0 -0.47675664581E-02 -0.14946029356E-01  0.19540364686E-01  0.10188712822E+01  0.10185630812E+01 0.  0.
     999903    2    3    3    0    0  0.81840654050E-01  0.37577204605E-01  0.91855249034E-01  0.13011421957E+00  0.19554651539E-01 0.  0.
         14    1    1    2    0    0  0.47675664581E-02  0.14946029356E-01 -0.19540364686E-01  0.25058717755E-01  0.00000000000E+00 0. -1.
     999901    1    3    3    0    0 -0.86608220508E-01 -0.52523233961E-01 -0.72314884348E-01  0.88875706268E+00  0.88000000000E+00 0. -1.
        -11    1    4    4    0    0  0.36534740185E-01  0.74727129410E-02  0.43832021296E-01  0.57551158902E-01  0.51100000000E-03 0. -1.
         11    1    4    4    0    0  0.45305913865E-01  0.30104491664E-01  0.48023227738E-01  0.72563060664E-01  0.51100000000E-03 0.  1.
</event>
<event>
 8    1  0.1094829E+005  0.1043930E+01  0.7957747E-01            NaN
         13   -1    0    0    0    0  0.00000000000E+00  0.00000000000E+00  0.74505805969E-08  0.10566000000E+00  0.10566000000E+00 0. -1.
     999900   -1    0    0    0    0 -0.00000000000E+00 -0.00000000000E+00 -0.74505805969E-08  0.93827000000E+00  0.93827000000E+00 0.  1.
     999902    2    1    2    0    0 -0.16865626696E-01 -0.15361100390E-01 -0.41786145789E-02  0.10207378981E+01  0.10204743912E+01 0.  0.
     999903    2    3    3    0    0 -0.10170781162E+00  0.80690303801E-01 -0.60483214546E-02  0.13145303692E+00  0.19695549012E-01 0.  0.
         14    1    1    2    0    0  0.16865626696E-01  0.15361100390E-01  0.41786145789E-02  0.23192101863E-01  0.00000000000E+00 0. -1.
     999901    1    3    3    0    0  0.84842184923E-01 -0.96051404190E-01  0.18697068757E-02  0.88928486122E+00  0.88000000000E+00 0. -1.
        -11    1    4    4    0    0 -0.29121837547E-01  0.26656872596E-01  0.67677185498E-02  0.40059123980E-01  0.51100000000E-03 0.  1.
         11    1    4    4    0    0 -0.72585974072E-01  0.54033431205E-01 -0.12816040004E-01  0.91393912938E-01  0.51100000000E-03 0. -1.
</event>
<event>
 8    1  0.1094829E+005  0.1043930E+01  0.7957747E-01            NaN
         13   -1    0    0    0    0  0.00000000000E+00  0.00000000000E+00  0.74505805969E-08  0.10566000000E+00  0.10566000000E+00 0.  1.
     999900   -1    0    0    0    0 -0.00000000000E+00 -0.00000000000E+00 -0.74505805969E-08  0.93827000000E+00  0.93827000000E+00 0.  1.
     999902    2    1    2    0    0 -0.15663962859E-01 -0.12711172429E-02  0.19405936902E-01  0.10189586993E+01  0.10186526714E+01 0.  0.
     999903    2    3    3    0    0  0.11540531920E+00  0.27505507115E-01 -0.40343176521E-01  0.12678315191E+00  0.19273170363E-01 0.  0.
         14    1    1    2    0    0  0.15663962859E-01  0.12711172429E-02 -0.19405936902E-01  0.24971300698E-01  0.00000000000E+00 0. -1.
     999901    1    3    3    0    0 -0.13106928206E+00 -0.28776624358E-01  0.59749113422E-01  0.89217554739E+00  0.88000000000E+00 0.  1.
        -11    1    4    4    0    0  0.31249434661E-01  0.11208492183E-01 -0.19716571903E-01  0.38615564119E-01  0.51100000000E-03 0. -1.
         11    1    4    4    0    0  0.84155884538E-01  0.16297014932E-01 -0.20626604617E-01  0.88167587792E-01  0.51100000000E-03 0.  1.
</event>
<event>
 8    1  0.1094829E+005  0.1043930E+01  0.7957747E-01            NaN
         13   -1    0    0    0    0  0.00000000000E+00  0.00000000000E+00  0.74505805969E-08  0.10566000000E+00  0.10566000000E+00 0.  1.
     999900   -1    0    0    0    0 -0.00000000000E+00 -0.00000000000E+00 -0.74505805969E-08  0.93827000000E+00  0.93827000000E+00 0. -1.
     999902    2    1    2    0    0  0.18820102280E-01  0.16091970325E-01  0.18031626861E-03  0.10191675229E+01  0.10188666544E+01 0.  0.
     999903    2    3    3    0    0 -0.21452721072E-01 -0.96840737039E-02 -0.12544297442E+00  0.12896107722E+00  0.18466701951E-01 0.  0.
         14    1    1    2    0    0 -0.18820102280E-01 -0.16091970325E-01 -0.18031626861E-03  0.24762477112E-01  0.00000000000E+00 0. -1.
     999901    1    3    3    0    0  0.40272823352E-01  0.25776044029E-01  0.12562329069E+00  0.89020644567E+00  0.88000000000E+00 0.  1.
        -11    1    4    4    0    0 -0.12074804360E-01  0.26255044891E-02 -0.33221736716E-01  0.35449105568E-01  0.51100000000E-03 0.  1.
         11    1    4    4    0    0 -0.93779167120E-02 -0.12309578193E-01 -0.92221237705E-01  0.93511971651E-01  0.51100000000E-03 0. -1.
</event>
<event>
 8    1  0.1094829E+005  0.1043930E+01  0.7957747E-01            NaN
         13   -1    0    0    0    0  0.00000000000E+00  0.00000000000E+00  0.74505805969E-08  0.10566000000E+00  0.10566000000E+00 0. -1.
     999900   -1    0    0    0    0 -0.00000000000E+00 -0.00000000000E+00 -0.74505805969E-08  0.93827000000E+00  0.93827000000E+00 0. -1.
     999902    2    1    2    0    0 -0.92858348000E-04  0.20728840505E-01 -0.97845111973E-02  0.10210077377E+01  0.10207503957E+01 0.  0.
     999903    2    3    3    0    0  0.55752839709E-01 -0.65127447797E-01 -0.96786964244E-01  0.13080581053E+00  0.19811108719E-01 0.  0.
         14    1    1    2    0    0  0.92858348000E-04 -0.20728840505E-01  0.97845111973E-02  0.22922262339E-01  0.00000000000E+00 0. -1.
     999901    1    3    3    0    0 -0.55845698057E-01  0.85856288302E-01  0.87002453047E-01  0.89020192713E+00  0.88000000000E+00 0. -1.
        -11    1    4    4    0    0  0.60048861500E-02 -0.18197077103E-01 -0.26801657128E-01  0.32951209667E-01  0.51100000000E-03 0.  1.
         11    1    4    4    0    0  0.49747953559E-01 -0.46930370694E-01 -0.69985307116E-01  0.97854600862E-01  0.51100000000E-03 0. -1.
</event>
<event>
 8    1  0.1094829E+005  0.1043930E+01  0.7957747E-01            NaN
         13   -1    0    0    0    0  0.00000000000E+00  0.00000000000E+00  0.74505805969E-08  0.10566000000E+00  0.10566000000E+00 0.  1.
     999900   -1    0    0    0    0 -0.00000000000E+00 -0.00000000000E+00 -0.74505805969E-08  0.93827000000E+00  0.93827000000E+00 0.  1.
     999902    2    1    2    0    0  0.42159245200E-02 -0.19510457349E-01 -0.15860549133E-01  0.10184351185E+01  0.10181159568E+01 0.  0.
     999903    2    3    3    0    0  0.58263564725E-01  0.51887113029E-01 -0.10094567434E+00  0.12980795312E+00  0.23940761294E-01 0.  0.
         14    1    1    2    0    0 -0.42159245200E-02  0.19510457349E-01  0.15860549133E-01  0.25494881532E-01  0.00000000000E+00 0.  1.
     999901    1    3    3    0    0 -0.54047640205E-01 -0.71397570378E-01  0.85085125208E-01  0.88862716535E+00  0.88000000000E+00 0. -1.
        -11    1    4    4    0    0  0.20007370647E-01  0.41648538971E-02 -0.24983638561E-01  0.32281329045E-01  0.51100000000E-03 0.  1.
         11    1    4    4    0    0  0.38256194078E-01  0.47722259132E-01 -0.75962035780E-01  0.97526624072E-01  0.51100000000E-03 0. -1.
</event>
<event>
 8    1  0.1094829E+005  0.1043930E+01  0.7957747E-01            NaN
         13   -1    0    0    0    0  0.00000000000E+00  0.00000000000E+00  0.74505805969E-08  0.10566000000E+00  0.10566000000E+00 0.  1.
     999900   -1    0    0    0    0 -0.00000000000E+00 -0.00000000000E+00 -0.74505805969E-08  0.93827000000E+00  0.93827000000E+00 0.  1.
     999902    2    1    2    0    0  0.81580166696E-02  0.28555430993E-02  0.21789746858E-01  0.10204885745E+01  0.10202193050E+01 0.  0.
     999903    2    3    3    0    0 -0.57480764392E-01  0.84823349462E-01  0.81388999205E-01  0.13224353974E+00  0.19108786515E-01 0.  0.
         14    1    1    2    0    0 -0.81580166696E-02 -0.28555430993E-02 -0.21789746858E-01  0.23441425522E-01  0.00000000000E+00 0. -1.
     999901    1    3    3    0    0  0.65638781062E-01 -0.81967806362E-01 -0.59599252347E-01  0.88824503474E+00  0.88000000000E+00 0. -1.
        -11    1    4    4    0    0 -0.14808758660E-01  0.36545905163E-01  0.25631375225E-01  0.47033297079E-01  0.51100000000E-03 0.  1.
         11    1    4    4    0    0 -0.42672005732E-01  0.48277444299E-01  0.55757623979E-01  0.85210242659E-01  0.51100000000E-03 0. -1.
</event>
<event>
 8    1  0.1094829E+005  0.1043930E+01  0.7957747E-01            NaN
         13   -1    0    0    0    0  0.00000000000E+00  0.00000000000E+00  0.74505805969E-08  0.10566000000E+00  0.10566000000E+00 0.  1.
     999900   -1    0    0    0    0 -0.00000000000E+00 -0.00000000000E+00 -0.74505805969E-08  0.93827000000E+00  0.93827000000E+00 0.  1.
     999902    2    1    2    0    0 -0.61844046243E-03  0.22676161503E-01 -0.78282557648E-02  0.10199326594E+01  0.10196503113E+01 0.  0.
     999903    2    3    3    0    0  0.11817958810E+00  0.40716503945E-01  0.35459232790E-01  0.13071264598E+00  0.14289502813E-01 0.  0.
         14    1    1    2    0    0  0.61844046243E-03 -0.22676161503E-01  0.78282557648E-02  0.23997340632E-01  0.00000000000E+00 0. -1.
     999901    1    3    3    0    0 -0.11879802857E+00 -0.18040342442E-01 -0.43287488555E-01  0.88922001339E+00  0.88000000000E+00 0. -1.
        -11    1    4    4    0    0  0.92143853475E-01  0.36381041989E-01  0.23995869539E-01  0.10193200099E+00  0.51100000000E-03 0. -1.
         11    1    4    4    0    0  0.26035734629E-01  0.43354619559E-02  0.11463363251E-01  0.28780644991E-01  0.51100000000E-03 0.  1.
</event>
<event>
 8    1  0.1094829E+005  0.1043930E+01  0.7957747E-01            NaN
         13   -1    0    0    0    0  0.00000000000E+00  0.00000000000E+00  0.74505805969E-08  0.10566000000E+00  0.10566000000E+00 0. -1.
     999900   -1    0    0    0    0 -0.00000000000E+00 -0.00000000000E+00 -0.74505805969E-08  0.93827000000E+00  0.93827000000E+00 0. -1.
     999902    2    1    2    0    0  0.97624006016E-02  0.21061015510E-01 -0.92113342681E-02  0.10189556228E+01  0.10186495185E+01 0.  0.
     999903    2    3    3    0    0 -0.46980046226E-01 -0.10764238938E+00 -0.44083732244E-01  0.12710341760E+00  0.20442470067E-01 0.  0.
         14    1    1    2    0    0 -0.97624006016E-02 -0.21061015510E-01  0.92113342681E-02  0.24974377246E-01  0.00000000000E+00 0. -1.
     999901    1    3    3    0    0  0.56742446828E-01  0.12870340489E+00  0.34872397976E-01  0.89185220516E+00  0.88000000000E+00 0.  1.
        -11    1    4    4    0    0 -0.22862881819E-01 -0.74911222145E-01 -0.25251189646E-01  0.82293901766E-01  0.51100000000E-03 0. -1.
         11    1    4    4    0    0 -0.24117164408E-01 -0.32731167231E-01 -0.18832542598E-01  0.44809515832E-01  0.51100000000E-03 0.  1.
</event>
<event>
 8    1  0.1094829E+005  0.1043930E+01  0.7957747E-01            NaN
         13   -1    0    0    0    0  0.00000000000E+00  0.00000000000E+00  0.74505805969E-08  0.10566000000E+00  0.10566000000E+00 0.  1.
     999900   -1    0    0    0    0 -0.00000000000E+00 -0.00000000000E+00 -0.74505805969E-08  0.93827000000E+00  0.93827000000E+00 0.  1.
     999902    2    1    2    0    0 -0.93933596717E-02 -0.22461050341E-01 -0.52573861239E-02  0.10190226899E+01  0.10187182478E+01 0.  0.
     999903    2    3    3    0    0 -0.56754758157E-01 -0.21713405080E-01 -0.11438491215E+00  0.13101791626E+00  0.19728449482E-01 0.  0.
         14    1    1    2    0    0  0.93933596717E-02  0.22461050341E-01  0.52573861239E-02  0.24907310116E-01  0.00000000000E+00 0.  1.
     999901    1    3    3    0    0  0.47361398485E-01 -0.74764526113E-03  0.10912752603E+00  0.88800477362E+00  0.88000000000E+00 0. -1.
        -11    1    4    4    0    0 -0.25030204536E-01 -0.14775602068E-01 -0.71795830716E-01  0.77457936874E-01  0.51100000000E-03 0. -1.
         11    1    4    4    0    0 -0.31724553621E-01 -0.69378030124E-02 -0.42589081439E-01  0.53559979386E-01  0.51100000000E-03 0.  1.
</event>
<event>
 8    1  0.1094829E+005  0.1043930E+01  0.7957747E-01            NaN
         13   -1    0    0    0    0  0.00000000000E+00  0.00000000000E+00  0.74505805969E-08  0.10566000000E+00  0.10566000000E+00 0.  1.
     999900   -1    0    0    0    0 -0.00000000000E+00 -0.00000000000E+00 -0.74505805969E-08  0.93827000000E+00  0.93827000000E+00 0.  1.
     999902    2    1    2    0    0  0.42204467212E-02 -0.12641973787E-02  0.23061385424E-01  0.10204515447E+01  0.10201814139E+01 0.  0.
     999903    2    3    3    0    0  0.82533668261E-01  0.87250028555E-01  0.51478976246E-01  0.13209616067E+00  0.19363284594E-01 0.  0.
         14    1    1    2    0    0 -0.42204467212E-02  0.12641973787E-02 -0.23061385424E-01  0.23478455299E-01  0.00000000000E+00 0. -1.
     999901    1    3    3    0    0 -0.78313221540E-01 -0.88514225934E-01 -0.28417590822E-01  0.88835538403E+00  0.88000000000E+00 0.  1.
        -11    1    4    4    0    0  0.48237349780E-01  0.42843094252E-01  0.36029030962E-01  0.73896717329E-01  0.51100000000E-03 0. -1.
         11    1    4    4    0    0  0.34296318481E-01  0.44406934303E-01  0.15449945284E-01  0.58199443346E-01  0.51100000000E-03 0.  1.
</event>
<event>
 8    1  0.1094829E+005  0.1043930E+01  0.7957747E-01            NaN
         13   -1    0    0    0    0  0.00000000000E+00  0.00000000000E+00  0.74505805969E-08  0.10566000000E+00  0.10566000000E+00 0. -1.
     999900   -1    0    0    0    0 -0.00000000000E+00 -0.00000000000E+00 -0.74505805969E-08  0.93827000000E+00  0.93827000000E+00 0.  1.
     999902    2    1    2    0    0  0.24981698123E-01  0.72820169306E-02  0.43369168214E-02  0.10175496691E+01  0.10172076520E+01 0.  0.
     999903    2    3    3    0    0  0.14231625899E-01  0.56158804856E-01  0.11399891045E+00  0.12933220849E+00  0.19357634986E-01 0.  0.
         14    1    1    2    0    0 -0.24981698123E-01 -0.72820169306E-02 -0.43369168214E-02  0.26380330916E-01  0.00000000000E+00 0.  1.
     999901    1    3    3    0    0  0.10750072224E-01 -0.48876787926E-01 -0.10966199363E+00  0.88821746059E+00  0.88000000000E+00 0.  1.
        -11    1    4    4    0    0 -0.22832655923E-02  0.20992618208E-01  0.29032640080E-01  0.35903462674E-01  0.51100000000E-03 0. -1.
         11    1    4    4    0    0  0.16514891492E-01  0.35166186648E-01  0.84966270368E-01  0.93428745820E-01  0.51100000000E-03 0.  1.
</event>
<event>
 8    1  0.1094829E+005  0.1043930E+01  0.7957747E-01            NaN
         13   -1    0    0    0    0  0.00000000000E+00  0.00000000000E+00  0.74505805969E-08  0.10566000000E+00  0.10566000000E+00 0.  1.
     999900   -1    0    0    0    0 -0.00000000000E+00 -0.00000000000E+00 -0.74505805969E-08  0.93827000000E+00  0.93827000000E+00 0. -1.
     999902    2    1    2    0    0  0.16983025704E-01  0.14523148053E-01  0.90814867514E-02  0.10198090881E+01  0.10195237897E+01 0.  0.
     999903    2    3    3    0    0 -0.60938802532E-01  0.94681465653E-01 -0.61628953188E-01  0.12992306529E+00  0.20093716209E-01 0.  0.
         14    1    1    2    0    0 -0.16983025704E-01 -0.14523148053E-01 -0.90814867514E-02  0.24120911945E-01  0.00000000000E+00 0. -1.
     999901    1    3    3    0    0  0.77921828237E-01 -0.80158317600E-01  0.70710439939E-01  0.88988602277E+00  0.88000000000E+00 0.  1.
        -11    1    4    4    0    0 -0.31430941439E-01  0.31045580251E-01 -0.25661961525E-01  0.51093341281E-01  0.51100000000E-03 0. -1.
         11    1    4    4    0    0 -0.29507861093E-01  0.63635885402E-01 -0.35966991663E-01  0.78829724009E-01  0.51100000000E-03 0.  1.
</event>
<event>
 8    1  0.1094829E+005  0.1043930E+01  0.7957747E-01            NaN
         13   -1    0    0    0    0  0.00000000000E+00  0.00000000000E+00  0.74505805969E-08  0.10566000000E+00  0.10566000000E+00 0. -1.
     999900   -1    0    0    0    0 -0.00000000000E+00 -0.00000000000E+00 -0.74505805969E-08  0.93827000000E+00  0.93827000000E+00 0. -1.
     999902    2    1    2    0    0 -0.22587823423E-01  0.30763535659E-02 -0.54147926660E-02  0.10204993855E+01  0.10202303671E+01 0.  0.
     999903    2    3    3    0    0  0.28301944138E-01 -0.12115683846E+00 -0.31632043834E-01  0.12993158978E+00  0.20041264326E-01 0.  0.
         14    1    1    2    0    0  0.22587823423E-01 -0.30763535659E-02  0.54147926660E-02  0.23430614543E-01  0.00000000000E+00 0. -1.
     999901    1    3    3    0    0 -0.50889767561E-01  0.12423319203E+00  0.26217251168E-01  0.89056779568E+00  0.88000000000E+00 0.  1.
        -11    1    4    4    0    0  0.44535052253E-03 -0.15993011471E-01 -0.10394430911E-01  0.19086122392E-01  0.51100000000E-03 0.  1.
         11    1    4    4    0    0  0.27856593615E-01 -0.10516382699E+00 -0.21237612923E-01  0.11084546738E+00  0.51100000000E-03 0. -1.
</event>
<event>
 8    1  0.1094829E+005  0.1043930E+01  0.7957747E-01            NaN
         13   -1    0    0    0    0  0.00000000000E+00  0.00000000000E+00  0.74505805969E-08  0.10566000000E+00  0.10566000000E+00 0.  1.
     999900   -1    0    0    0    0 -0.00000000000E+00 -0.00000000000E+00 -0.74505805969E-08  0.93827000000E+00  0.93827000000E+00 0. -1.
     999902    2    1    2    0    0 -0.15131824949E-01  0.45207284838E-02 -0.16844081224E-01  0.10208403446E+01  0.10205791871E+01 0.  0.
     999903    2    3    3    0    0  0.10907858892E+00 -0.13623168032E-01 -0.67479361587E-01  0.13049133470E+00  0.19768533650E-01 0.  0.
         14    1    1    2    0    0  0.15131824949E-01 -0.45207284838E-02  0.16844081224E-01  0.23089655359E-01  0.00000000000E+00 0.  1.
     999901    1    3    3    0    0 -0.12421041387E+00  0.18143896516E-01  0.50635280363E-01  0.89034900995E+00  0.88000000000E+00 0. -1.
        -11    1    4    4    0    0  0.40320280153E-01 -0.14607216515E-01 -0.24348286647E-01  0.49317298685E-01  0.51100000000E-03 0. -1.
         11    1    4    4    0    0  0.68758308766E-01  0.98404848323E-03 -0.43131074940E-01  0.81174036010E-01  0.51100000000E-03 0.  1.
</event>
<event>
 8    1  0.1094829E+005  0.1043930E+01  0.7957747E-01            NaN
         13   -1    0    0    0    0  0.00000000000E+00  0.00000000000E+00  0.74505805969E-08  0.10566000000E+00  0.10566000000E+00 0.  1.
     999900   -1    0    0    0    0 -0.00000000000E+00 -0.00000000000E+00 -0.74505805969E-08  0.93827000000E+00  0.93827000000E+00 0.  1.
     999902    2    1    2    0    0 -0.12578516883E-01 -0.18808265540E-01  0.70191962577E-02  0.10202395155E+01  0.10199644258E+01 0.  0.
     999903    2    3    3    0    0 -0.10496225325E+00 -0.37648064505E-02 -0.76530176134E-01  0.13134044472E+00  0.19031452564E-01 0.  0.
         14    1    1    2    0    0  0.12578516883E-01  0.18808265540E-01 -0.70191962577E-02  0.23690484497E-01  0.00000000000E+00 0.  1.
     999901    1    3    3    0    0  0.92383736365E-01 -0.15043459089E-01  0.83549372392E-01  0.88889907078E+00  0.88000000000E+00 0. -1.
        -11    1    4    4    0    0 -0.84297928526E-01 -0.38767979697E-02 -0.51435146865E-01  0.98828162840E-01  0.51100000000E-03 0. -1.
         11    1    4    4    0    0 -0.20664324722E-01  0.11199151923E-03 -0.25095029268E-01  0.32512281884E-01  0.51100000000E-03 0.  1.
</event>
<event>
 8    1  0.1094829E+005  0.1043930E+01  0.7957747E-01            NaN
         13   -1    0    0    0    0  0.00000000000E+00  0.00000000000E+00  0.74505805969E-08  0.10566000000E+00  0.10566000000E+00 0. -1.
     999900   -1    0    0    0    0 -0.00000000000E+00 -0.00000000000E+00 -0.74505805969E-08  0.93827000000E+00  0.93827000000E+00 0. -1.
     999902    2    1    2    0    0  0.35577106855E-02 -0.65494039425E-02  0.22850118284E-01  0.10198950275E+01  0.10196117826E+01 0.  0.
     999903    2    3    3    0    0  0.48801931105E-01 -0.70360355782E-01  0.10003892542E+00  0.13305964875E+00  0.19101711499E-01 0.  0.
         14    1    1    2    0    0 -0.35577106855E-02  0.65494039425E-02 -0.22850118284E-01  0.24034972496E-01  0.00000000000E+00 0.  1.
     999901    1    3    3    0    0 -0.45244220419E-01  0.63810951839E-01 -0.77188807135E-01  0.88683537875E+00  0.88000000000E+00 0. -1.
        -11    1    4    4    0    0  0.12733979672E-01 -0.34520944562E-01  0.44919627241E-01  0.58067924746E-01  0.51100000000E-03 0.  1.
         11    1    4    4    0    0  0.36067951433E-01 -0.35839411219E-01  0.55119298177E-01  0.74991724008E-01  0.51100000000E-03 0. -1.
</event>
<event>
 8    1  0.1094829E+005  0.1043930E+01  0.7957747E-01            NaN
         13   -1    0    0    0    0  0.00000000000E+00  0.00000000000E+00  0.74505805969E-08  0.10566000000E+00  0.10566000000E+00 0. -1.
     999900   -1    0    0    0    0 -0.00000000000E+00 -0.00000000000E+00 -0.74505805969E-08  0.93827000000E+00  0.93827000000E+00 0. -1.
     999902    2    1    2    0    0 -0.17189732001E-01  0.21587784033E-01 -0.78714857920E-02  0.10152336658E+01  0.10148280232E+01 0.  0.
     999903    2    3    3    0    0 -0.37158297522E-01 -0.10942538342E+00 -0.41939274323E-01  0.12465867861E+00  0.20645333923E-01 0.  0.
         14    1    1    2    0    0  0.17189732001E-01 -0.21587784033E-01  0.78714857920E-02  0.28696334161E-01  0.00000000000E+00 0. -1.
     999901    1    3    3    0    0  0.19968565521E-01  0.13101316745E+00  0.34067788531E-01  0.89057498722E+00  0.88000000000E+00 0.  1.
        -11    1    4    4    0    0 -0.62371933084E-02 -0.31652035220E-01 -0.20615985151E-01  0.38288821850E-01  0.51100000000E-03 0. -1.
         11    1    4    4    0    0 -0.30921104213E-01 -0.77773348196E-01 -0.21323289172E-01  0.86369856765E-01  0.51100000000E-03 0.  1.
</event>
<event>
 8    1  0.1094829E+005  0.1043930E+01  0.7957747E-01            NaN
         13   -1    0    0    0    0  0.00000000000E+00  0.00000000000E+00  0.74505805969E-08  0.10566000000E+00  0.10566000000E+00 0. -1.
     999900   -1    0    0    0    0 -0.00000000000E+00 -0.00000000000E+00 -0.74505805969E-08  0.93827000000E+00  0.93827000000E+00 0.  1.
     999902    2    1    2    0    0 -0.23241693208E-01 -0.48484127977E-02  0.13913512460E-02  0.10201472485E+01  0.10198699865E+01 0.  0.
     999903    2    3    3    0    0  0.29309450543E-01 -0.10289259588E+00 -0.71260331279E-01  0.13017390537E+00  0.20525122314E-01 0.  0.
         14    1    1    2    0    0  0.23241693208E-01  0.48484127977E-02 -0.13913512460E-02  0.23782751484E-01  0.00000000000E+00 0.  1.
     999901    1    3    3    0    0 -0.52551143751E-01  0.98044183082E-01  0.72651682525E-01  0.88997334315E+00  0.88000000000E+00 0.  1.
        -11    1    4    4    0    0  0.21042641634E-01 -0.86604830260E-01 -0.50198990399E-01  0.10229070901E+00  0.51100000000E-03 0. -1.
         11    1    4    4    0    0  0.82668089092E-02 -0.16287765620E-01 -0.21061340880E-01  0.27883196357E-01  0.51100000000E-03 0.  1.
</event>
<event>
 8    1  0.1094829E+005  0.1043930E+01  0.7957747E-01            NaN
         13   -1    0    0    0    0  0.00000000000E+00  0.00000000000E+00  0.74505805969E-08  0.10566000000E+00  0.10566000000E+00 0.  1.
     999900   -1    0    0    0    0 -0.00000000000E+00 -0.00000000000E+00 -0.74505805969E-08  0.93827000000E+00  0.93827000000E+00 0.  1.
     999902    2    1    2    0    0 -0.14380813050E-01 -0.15482382341E-01  0.11556852272E-01  0.10198452998E+01  0.10195608676E+01 0.  0.
     999903    2    3    3    0    0  0.86549108360E-01  0.65261611224E-01 -0.63971398207E-01  0.12720261761E+00  0.18394022965E-01 0.  0.
         14    1    1    2    0    0  0.14380813050E-01  0.15482382341E-01 -0.11556852272E-01  0.24084700152E-01  0.00000000000E+00 0. -1.
     999901    1    3    3    0    0 -0.10092992141E+00 -0.80743993565E-01  0.75528250480E-01  0.89264268224E+00  0.88000000000E+00 0. -1.
        -11    1    4    4    0    0  0.56108897978E-01  0.31147743859E-01 -0.39168185049E-01  0.75185093076E-01  0.51100000000E-03 0.  1.
         11    1    4    4    0    0  0.30440210382E-01  0.34113867365E-01 -0.24803213158E-01  0.52017524535E-01  0.51100000000E-03 0. -1.
</event>
<event>
 8    1  0.1094829E+005  0.1043930E+01  0.7957747E-01            NaN
         13   -1    0    0    0    0  0.00000000000E+00  0.00000000000E+00  0.74505805969E-08  0.10566000000E+00  0.10566000000E+00 0. -1.
     999900   -1    0    0    0    0 -0.00000000000E+00 -0.00000000000E+00 -0.74505805969E-08  0.93827000000E+00  0.93827000000E+00 0.  1.
     999902    2    1    2    0    0  0.20493290260E-02 -0.21221097703E-01  0.54648599884E-02  0.10219209239E+01  0.10216838920E+01 0.  0.
     999903    2    3    3    0    0 -0.66838308980E-01  0.30325575758E-01  0.10761140785E+00  0.13184425108E+00  0.20388510259E-01 0.  0.
         14    1    1    2    0    0 -0.20493290260E-02  0.21221097703E-01 -0.54648599884E-02  0.22009076125E-01  0.00000000000E+00 0.  1.
     999901    1    3    3    0    0  0.68887638006E-01 -0.51546673461E-01 -0.10214654786E+00  0.89007667280E+00  0.88000000000E+00 0.  1.
        -11    1    4    4    0    0 -0.31341797712E-01  0.35651603244E-02  0.40360000415E-01  0.51227037845E-01  0.51100000000E-03 0. -1.
         11    1    4    4    0    0 -0.35496511268E-01  0.26760415434E-01  0.67251407437E-01  0.80617213234E-01  0.51100000000E-03 0.  1.
</event>
<event>
 8    1  0.1094829E+005  0.1043930E+01  0.7957747E-01            NaN
         13   -1    0    0    0    0  0.00000000000E+00  0.00000000000E+00  0.74505805969E-08  0.10566000000E+00  0.10566000000E+00 0.  1.
     999900   -1    0    0    0    0 -0.00000000000E+00 -0.00000000000E+00 -0.74505805969E-08  0.93827000000E+00  0.93827000000E+00 0.  1.
     999902    2    1    2    0    0  0.17115705481E-01 -0.20528157200E-01 -0.98048840334E-02  0.10154609227E+01  0.10150617701E+01 0.  0.
     999903    2    3    3    0    0  0.71114447979E-01  0.66368122067E-01 -0.79066795445E-01  0.12683049337E+00  0.19298278871E-01 0.  0.
         14    1    1    2    0    0 -0.17115705481E-01  0.20528157200E-01  0.98048840334E-02  0.28469077313E-01  0.00000000000E+00 0.  1.
     999901    1    3    3    0    0 -0.53998742498E-01 -0.86896279268E-01  0.69261911412E-01  0.88863042932E+00  0.88000000000E+00 0.  1.
        -11    1    4    4    0    0  0.13214436238E-01  0.45660002783E-02 -0.70755175959E-02  0.15677810876E-01  0.51100000000E-03 0. -1.
         11    1    4    4    0    0  0.57900011742E-01  0.61802121789E-01 -0.71991277849E-01  0.11115268249E+00  0.51100000000E-03 0.  1.
</event>
<event>
 8    1  0.1094829E+005  0.1043930E+01  0.7957747E-01            NaN
         13   -1    0    0    0    0  0.00000000000E+00  0.00000000000E+00  0.74505805969E-08  0.10566000000E+00  0.10566000000E+00 0.  1.
     999900   -1    0    0    0    0 -0.00000000000E+00 -0.00000000000E+00 -0.74505805969E-08  0.93827000000E+00  0.93827000000E+00 0.  1.
     999902    2    1    2    0    0 -0.19489253508E-01  0.51566294580E-02 -0.10795193228E-01  0.10210617245E+01  0.10208056069E+01 0.  0.
     999903    2    3    3    0    0  0.35757402998E-01 -0.10035553464E+00  0.70517927295E-01  0.12932362759E+00  0.20049872370E-01 0.  0.
         14    1    1    2    0    0  0.19489253508E-01 -0.51566294580E-02  0.10795193228E-01  0.22868275547E-01  0.00000000000E+00 0.  1.
     999901    1    3    3    0    0 -0.55246656506E-01  0.10551216409E+00 -0.81313120524E-01  0.89173809686E+00  0.88000000000E+00 0. -1.
        -11    1    4    4    0    0  0.31127591071E-01 -0.58604619984E-01  0.44790563529E-01  0.80061751864E-01  0.51100000000E-03 0. -1.
         11    1    4    4    0    0  0.46298119272E-02 -0.41750914652E-01  0.25727363766E-01  0.49261875727E-01  0.51100000000E-03 0.  1.
</event>
<event>
 8    1  0.1094829E+005  0.1043930E+01  0.7957747E-01            NaN
         13   -1    0    0    0    0  0.00000000000E+00  0.00000000000E+00  0.74505805969E-08  0.10566000000E+00  0.10566000000E+00 0. -1.
     999900   -1    0    0    0    0 -0.00000000000E+00 -0.00000000000E+00 -0.74505805969E-08  0.93827000000E+00  0.93827000000E+00 0. -1.
     999902    2    1    2    0    0 -0.14070836828E-01  0.57087752025E-02 -0.17932324673E-01  0.10204321952E+01  0.10201616137E+01 0.  0.
     999903    2    3    3    0    0 -0.86097390417E-01  0.82223227327E-01 -0.56618880966E-01  0.13333640810E+00  0.19987003158E-01 0.  0.
         14    1    1    2    0    0  0.14070836828E-01 -0.57087752025E-02  0.17932324673E-01  0.23497804824E-01  0.00000000000E+00 0. -1.
     999901    1    3    3    0    0  0.72026553589E-01 -0.76514452125E-01  0.38686556293E-01  0.88709578707E+00  0.88000000000E+00 0.  1.
        -11    1    4    4    0    0 -0.21173935986E-01  0.22144691605E-01 -0.24482510269E-01  0.39222153963E-01  0.51100000000E-03 0. -1.
         11    1    4    4    0    0 -0.64923454431E-01  0.60078535722E-01 -0.32136370697E-01  0.94114254140E-01  0.51100000000E-03 0.  1.
</event>
<event>
 8    1  0.1094829E+005  0.1043930E+01  0.7957747E-01            NaN
         13   -1    0    0    0    0  0.00000000000E+00  0.00000000000E+00  0.74505805969E-08  0.10566000000E+00  0.10566000000E+00 0. -1.
     999900   -1    0    0    0    0 -0.00000000000E+00 -0.00000000000E+00 -0.74505805969E-08  0.93827000000E+00  0.93827000000E+00 0.  1.
     999902    2    1    2    0    0 -0.35386324934E-02 -0.67848258607E-02 -0.19951351477E-01  0.10225615137E+01  0.10223382205E+01 0.  0.
     999903    2    3    3    0    0 -0.82031018819E-01 -0.69078087245E-01 -0.78536006736E-01  0.13493903370E+00  0.23232913662E-01 0.  0.
         14    1    1    2    0    0  0.35386324934E-02  0.67848258607E-02  0.19951351477E-01  0.21368486321E-01  0.00000000000E+00 0. -1.
     999901    1    3    3    0    0  0.78492386325E-01  0.62293261384E-01  0.58584655259E-01  0.88762247997E+00  0.88000000000E+00 0. -1.
        -11    1    4    4    0    0 -0.49198880941E-01 -0.36842483439E-01 -0.58137445657E-01  0.84605686454E-01  0.51100000000E-03 0. -1.
         11    1    4    4    0    0 -0.32832137877E-01 -0.32235603806E-01 -0.20398561078E-01  0.50333347250E-01  0.51100000000E-03 0.  1.
</event>
<event>
 8    1  0.1094829E+005  0.1043930E+01  0.7957747E-01            NaN
         13   -1    0    0    0    0  0.00000000000E+00  0.00000000000E+00  0.74505805969E-08  0.10566000000E+00  0.10566000000E+00 0.  1.
     999900   -1    0    0    0    0 -0.00000000000E+00 -0.00000000000E+00 -0.74505805969E-08  0.93827000000E+00  0.93827000000E+00 0. -1.
     999902    2    1    2    0    0 -0.49015278793E-03 -0.90369322454E-02  0.25320677412E-01  0.10170405393E+01  0.10166850129E+01 0.  0.
     999903    2    3    3    0    0 -0.10606267547E+00  0.40269807702E-01 -0.51124482049E-01  0.12607444869E+00  0.20251059416E-01 0.  0.
         14    1    1    2    0    0  0.49015278793E-03  0.90369322454E-02 -0.25320677412E-01  0.26889460738E-01  0.00000000000E+00 0. -1.
     999901    1    3    3    0    0  0.10557252268E+00 -0.49306739947E-01  0.76445159461E-01  0.89096609057E+00  0.88000000000E+00 0.  1.
        -11    1    4    4    0    0 -0.68051470487E-01  0.15620216591E-01 -0.33728174246E-01  0.77542534526E-01  0.51100000000E-03 0.  1.
         11    1    4    4    0    0 -0.38011204980E-01  0.24649591111E-01 -0.17396307803E-01  0.48531914161E-01  0.51100000000E-03 0. -1.
</event>
<event>
 8    1  0.1094829E+005  0.1043930E+01  0.7957747E-01            NaN
         13   -1    0    0    0    0  0.00000000000E+00  0.00000000000E+00  0.74505805969E-08  0.10566000000E+00  0.10566000000E+00 0. -1.
     999900   -1    0    0    0    0 -0.00000000000E+00 -0.00000000000E+00 -0.74505805969E-08  0.93827000000E+00  0.93827000000E+00 0. -1.
     999902    2    1    2    0    0 -0.25601539904E-02 -0.70299158594E-02 -0.23286452843E-01  0.10194711981E+01  0.10191777523E+01 0.  0.
     999903    2    3    3    0    0  0.81732710434E-01 -0.97825518035E-01  0.15000886030E-01  0.12996850068E+00  0.20413638884E-01 0.  0.
         14    1    1    2    0    0  0.25601539904E-02  0.70299158594E-02  0.23286452843E-01  0.24458801922E-01  0.00000000000E+00 0. -1.
     999901    1    3    3    0    0 -0.84292864425E-01  0.90795602175E-01 -0.38287338874E-01  0.88950269740E+00  0.88000000000E+00 0. -1.
        -11    1    4    4    0    0  0.41997260610E-01 -0.59458930174E-01  0.16767071748E-01  0.74702945673E-01  0.51100000000E-03 0. -1.
         11    1    4    4    0    0  0.39735449824E-01 -0.38366587861E-01 -0.17661857174E-02  0.55265555003E-01  0.51100000000E-03 0.  1.
</event>
<event>
 7    1  0.1094829E+005  0.1043930E+01  0.7957747E-01            NaN
         13   -1    0    0    0    0  0.00000000000E+00  0.00000000000E+00  0.74505805969E-08  0.10566000000E+00  0.10566000000E+00 0.  1.
     999900   -1    0    0    0    0 -0.00000000000E+00 -0.00000000000E+00 -0.74505805969E-08  0.93827000000E+00  0.93827000000E+00 0. -1.
     999903    2    1    2    0    0 -0.69478794782E-01 -0.52745829686E-02 -0.34766153261E-01  0.80365748881E-01  0.19870682696E-01 0.  0.
         14    1    1    2    0    0 -0.31897735439E-01 -0.23660498105E-01  0.65656356520E-01  0.76733577058E-01  0.00000000000E+00 0.  1.
     999901    1    1    2    0    0  0.10137653022E+00  0.28935081074E-01 -0.30890203259E-01  0.88683067406E+00  0.88000000000E+00 0.  1.
        -11    1    3    3    0    0 -0.51042737316E-01 -0.69638006070E-02 -0.15870287562E-01  0.53907167426E-01  0.51100000000E-03 0.  1.
         11    1    3    3    0    0 -0.18436057466E-01  0.16892176383E-02 -0.18895865698E-01  0.26458581455E-01  0.51100000000E-03 0. -1.
</event>
<event>
 8    1  0.1094829E+005  0.1043930E+01  0.7957747E-01            NaN
         13   -1    0    0    0    0  0.00000000000E+00  0.00000000000E+00  0.74505805969E-08  0.10566000000E+00  0.10566000000E+00 0. -1.
     999900   -1    0    0    0    0 -0.00000000000E+00 -0.00000000000E+00 -0.74505805969E-08  0.93827000000E+00  0.93827000000E+00 0. -1.
     999902    2    1    2    0    0  0.21745798807E-01 -0.47389987140E-02  0.91489035040E-02  0.10198667436E+01  0.10195828237E+01 0.  0.
     999903    2    3    3    0    0  0.97398368256E-01 -0.77820230430E-01  0.41687420349E-01  0.13300546199E+00  0.20252938074E-01 0.  0.
         14    1    1    2    0    0 -0.21745798807E-01  0.47389987140E-02 -0.91489035040E-02  0.24063256427E-01  0.00000000000E+00 0.  1.
     999901    1    3    3    0    0 -0.75652569449E-01  0.73081231716E-01 -0.32538516845E-01  0.88686128158E+00  0.88000000000E+00 0. -1.
        -11    1    4    4    0    0  0.39073334559E-02 -0.91477996438E-02  0.74171215599E-03  0.99880303855E-02  0.51100000000E-03 0.  1.
         11    1    4    4    0    0  0.93491034800E-01 -0.68672430786E-01  0.40945708193E-01  0.12301743160E+00  0.51100000000E-03 0. -1.
</event>
<event>
 8    1  0.1094829E+005  0.1043930E+01  0.7957747E-01            NaN
         13   -1    0    0    0    0  0.00000000000E+00  0.00000000000E+00  0.74505805969E-08  0.10566000000E+00  0.10566000000E+00 0. -1.
     999900   -1    0    0    0    0 -0.00000000000E+00 -0.00000000000E+00 -0.74505805969E-08  0.93827000000E+00  0.93827000000E+00 0. -1.
     999902    2    1    2    0    0  0.12011032388E-01  0.20214005211E-01 -0.95155865329E-02  0.10185643285E+01  0.10182484343E+01 0.  0.
     999903    2    3    3    0    0  0.10665849716E+00  0.54622704607E-01 -0.50742176742E-01  0.13186159759E+00  0.21284678640E-01 0.  0.
         14    1    1    2    0    0 -0.12011032388E-01 -0.20214005211E-01  0.95155865329E-02  0.25365671542E-01  0.00000000000E+00 0. -1.
     999901    1    3    3    0    0 -0.94647464771E-01 -0.34408699396E-01  0.41226590209E-01  0.88670273086E+00  0.88000000000E+00 0.  1.
        -11    1    4    4    0    0  0.19080731246E-01  0.19671683007E-01 -0.11713450361E-01  0.29807976408E-01  0.51100000000E-03 0. -1.
         11    1    4    4    0    0  0.87577765913E-01  0.34951021600E-01 -0.39028726381E-01  0.10205362119E+00  0.51100000000E-03 0.  1.
</event>
<event>
 8    1  0.1094829E+005  0.1043930E+01  0.7957747E-01            NaN
         13   -1    0    0    0    0  0.00000000000E+00  0.00000000000E+00  0.74505805969E-08  0.10566000000E+00  0.10566000000E+00 0.  1.
     999900   -1    0    0    0    0 -0.00000000000E+00 -0.00000000000E+00 -0.74505805969E-08  0.93827000000E+00  0.93827000000E+00 0.  1.
     999902    2    1    2    0    0 -0.10181817306E-01 -0.34435737646E-02  0.20572169101E-01  0.10207191890E+01  0.10204552519E+01 0.  0.
     999903    2    3    3    0    0 -0.11702900669E-01  0.41514873858E-01  0.12469909831E+00  0.13343907933E+00  0.19891710249E-01 0.  0.
         14    1    1    2    0    0  0.10181817306E-01  0.34435737646E-02 -0.20572169101E-01  0.23210810960E-01  0.00000000000E+00 0. -1.
     999901    1    3    3    0    0  0.15210833636E-02 -0.44958447623E-01 -0.10412692921E+00  0.88728010971E+00  0.88000000000E+00 0.  1.
        -11    1    4    4    0    0 -0.10816299972E-01  0.30224110599E-01  0.11154606474E+00  0.11607443683E+00  0.51100000000E-03 0. -1.
         11    1    4    4    0    0 -0.88660069753E-03  0.11290763259E-01  0.13153033571E-01  0.17364642493E-01  0.51100000000E-03 0.  1.
</event>
<event>
 8    1  0.1094829E+005  0.1043930E+01  0.7957747E-01            NaN
         13   -1    0    0    0    0  0.00000000000E+00  0.00000000000E+00  0.74505805969E-08  0.10566000000E+00  0.10566000000E+00 0. -1.
     999900   -1    0    0    0    0 -0.00000000000E+00 -0.00000000000E+00 -0.74505805969E-08  0.93827000000E+00  0.93827000000E+00 0. -1.
     999902    2    1    2    0    0  0.17322124740E-01  0.14657710832E-01  0.82449009852E-02  0.10197870324E+01  0.10195012058E+01 0.  0.
     999903    2    3    3    0    0  0.69345970618E-01 -0.77530222254E-01 -0.74828458070E-01  0.12955881529E+00  0.19141302968E-01 0.  0.
         14    1    1    2    0    0 -0.17322124740E-01 -0.14657710832E-01 -0.82449009852E-02  0.24142967601E-01  0.00000000000E+00 0. -1.
     999901    1    3    3    0    0 -0.52023845878E-01  0.92187933086E-01  0.83073359055E-01  0.89022821711E+00  0.88000000000E+00 0.  1.
        -11    1    4    4    0    0  0.49710145937E-01 -0.47359376854E-01 -0.57721025046E-01  0.89699426077E-01  0.51100000000E-03 0.  1.
         11    1    4    4    0    0  0.19635824681E-01 -0.30170845400E-01 -0.17107433024E-01  0.39859389217E-01  0.51100000000E-03 0. -1.
</event>
<event>
 8    1  0.1094829E+005  0.1043930E+01  0.7957747E-01            NaN
         13   -1    0    0    0    0  0.00000000000E+00  0.00000000000E+00  0.74505805969E-08  0.10566000000E+00  0.10566000000E+00 0.  1.
     999900   -1    0    0    0    0 -0.00000000000E+00 -0.00000000000E+00 -0.74505805969E-08  0.93827000000E+00  0.93827000000E+00 0. -1.
     999902    2    1    2    0    0  0.18280333633E-01 -0.27251655530E-02 -0.16835932042E-01  0.10189290854E+01  0.10186223222E+01 0.  0.
     999903    2    3    3    0    0 -0.12271951653E+00  0.20937195387E-01 -0.17841671013E-01  0.12739003598E+00  0.20284234119E-01 0.  0.
         14    1    1    2    0    0 -0.18280333633E-01  0.27251655530E-02  0.16835932042E-01  0.25000914638E-01  0.00000000000E+00 0.  1.
     999901    1    3    3    0    0  0.14099985016E+00 -0.23662360940E-01  0.10057389711E-02  0.89153904939E+00  0.88000000000E+00 0.  1.
        -11    1    4    4    0    0 -0.53291372154E-01 -0.92367139283E-03 -0.91730748236E-02  0.54085394864E-01  0.51100000000E-03 0. -1.
         11    1    4    4    0    0 -0.69428144374E-01  0.21860866780E-01 -0.86685961897E-02  0.73304641112E-01  0.51100000000E-03 0.  1.
</event>
<event>
 7    1  0.1094829E+005  0.1043930E+01  0.7957747E-01            NaN
         13   -1    0    0    0    0  0.00000000000E+00  0.00000000000E+00  0.74505805969E-08  0.10566000000E+00  0.10566000000E+00 0.  1.
     999900   -1    0    0    0    0 -0.00000000000E+00 -0.00000000000E+00 -0.74505805969E-08  0.93827000000E+00  0.93827000000E+00 0. -1.
     999903    2    1    2    0    0  0.46746949716E-01  0.23857329179E-01  0.97852583496E-01  0.11270789905E+00  0.19325965645E-01 0.  0.
         14    1    1    2    0    0 -0.42586097428E-01  0.13832396574E-01  0.16265309294E-02  0.44805764048E-01  0.00000000000E+00 0. -1.
     999901    1    1    2    0    0 -0.41608522884E-02 -0.37689725752E-01 -0.99479114426E-01  0.88641633690E+00  0.88000000000E+00 0. -1.
        -11    1    3    3    0    0  0.17882232836E-01  0.23156420753E-02  0.47400012129E-01  0.50716454137E-01  0.51100000000E-03 0. -1.
         11    1    3    3    0    0  0.28864716881E-01  0.21541687103E-01  0.50452571367E-01  0.61991444913E-01  0.51100000000E-03 0.  1.
</event>
<event>
 8    1  0.1094829E+005  0.1043930E+01  0.7957747E-01            NaN
         13   -1    0    0    0    0  0.00000000000E+00  0.00000000000E+00  0.74505805969E-08  0.10566000000E+00  0.10566000000E+00 0. -1.
     999900   -1    0    0    0    0 -0.00000000000E+00 -0.00000000000E+00 -0.74505805969E-08  0.93827000000E+00  0.93827000000E+00 0.  1.
     999902    2    1    2    0    0 -0.28176115578E-03  0.22491280189E-01 -0.64234183951E-02  0.10205377496E+01  0.10202696217E+01 0.  0.
     999903    2    3    3    0    0  0.10519778717E+00  0.11967386307E-01 -0.75620022534E-01  0.13147933901E+00  0.18937687729E-01 0.  0.
         14    1    1    2    0    0  0.28176115578E-03 -0.22491280189E-01  0.64234183951E-02  0.23392250378E-01  0.00000000000E+00 0. -1.
     999901    1    3    3    0    0 -0.10547954833E+00  0.10523893882E-01  0.69196604138E-01  0.88905841061E+00  0.88000000000E+00 0. -1.
        -11    1    4    4    0    0  0.58977358634E-01 -0.35388138174E-03 -0.34050070746E-01  0.68103762761E-01  0.51100000000E-03 0.  1.
         11    1    4    4    0    0  0.46220428541E-01  0.12321267689E-01 -0.41569951788E-01  0.63375576247E-01  0.51100000000E-03 0. -1.
</event>
<event>
 8    1  0.1094829E+005  0.1043930E+01  0.7957747E-01            NaN
         13   -1    0    0    0    0  0.00000000000E+00  0.00000000000E+00  0.74505805969E-08  0.10566000000E+00  0.10566000000E+00 0.  1.
     999900   -1    0    0    0    0 -0.00000000000E+00 -0.00000000000E+00 -0.74505805969E-08  0.93827000000E+00  0.93827000000E+00 0. -1.
     999902    2    1    2    0    0 -0.22756130419E-01 -0.35229752412E-02  0.87293134782E-02  0.10193037185E+01  0.10190061908E+01 0.  0.
     999903    2    3    3    0    0 -0.83423859901E-01  0.15844788289E-01  0.99555930168E-01  0.13233970686E+00  0.19794369486E-01 0.  0.
         14    1    1    2    0    0  0.22756130419E-01  0.35229752412E-02 -0.87293134782E-02  0.24626281489E-01  0.00000000000E+00 0. -1.
     999901    1    3    3    0    0  0.60667729483E-01 -0.19367763530E-01 -0.90826616690E-01  0.88696401165E+00  0.88000000000E+00 0. -1.
        -11    1    4    4    0    0 -0.65073021906E-01  0.87568102719E-02  0.63947940138E-01  0.91655769458E-01  0.51100000000E-03 0.  1.
         11    1    4    4    0    0 -0.18350837996E-01  0.70879780169E-02  0.35607990030E-01  0.40683937401E-01  0.51100000000E-03 0. -1.
</event>
<event>
 8    1  0.1094829E+005  0.1043930E+01  0.7957747E-01            NaN
         13   -1    0    0    0    0  0.00000000000E+00  0.00000000000E+00  0.74505805969E-08  0.10566000000E+00  0.10566000000E+00 0.  1.
     999900   -1    0    0    0    0 -0.00000000000E+00 -0.00000000000E+00 -0.74505805969E-08  0.93827000000E+00  0.93827000000E+00 0. -1.
     999902    2    1    2    0    0 -0.37970302779E-02  0.22264686503E-01  0.12734049455E-02  0.10213079916E+01  0.10210574217E+01 0.  0.
     999903    2    3    3    0    0  0.74472359733E-01 -0.10184915990E+00 -0.16718169453E-01  0.12897731240E+00  0.20886986088E-01 0.  0.
         14    1    1    2    0    0  0.37970302779E-02 -0.22264686503E-01 -0.12734049455E-02  0.22622008402E-01  0.00000000000E+00 0. -1.
     999901    1    3    3    0    0 -0.78269390011E-01  0.12411384641E+00  0.17991574399E-01  0.89233067919E+00  0.88000000000E+00 0. -1.
        -11    1    4    4    0    0  0.47416930999E-01 -0.59927694764E-01 -0.19935670519E-01  0.78977123429E-01  0.51100000000E-03 0.  1.
         11    1    4    4    0    0  0.27055428734E-01 -0.41921465139E-01  0.32175010658E-02  0.50000188974E-01  0.51100000000E-03 0. -1.
</event>
<event>
 8    1  0.1094829E+005  0.1043930E+01  0.7957747E-01            NaN
         13   -1    0    0    0    0  0.00000000000E+00  0.00000000000E+00  0.74505805969E-08  0.10566000000E+00  0.10566000000E+00 0. -1.
     999900   -1    0    0    0    0 -0.00000000000E+00 -0.00000000000E+00 -0.74505805969E-08  0.93827000000E+00  0.93827000000E+00 0.  1.
     999902    2    1    2    0    0  0.18877165424E-02  0.23643335887E-01  0.26912509596E-02  0.10200592305E+01  0.10197798880E+01 0.  0.
     999903    2    3    3    0    0 -0.92421619912E-01  0.31389540877E-01 -0.84593307379E-01  0.13069268695E+00  0.19937193007E-01 0.  0.
         14    1    1    2    0    0 -0.18877165424E-02 -0.23643335887E-01 -0.26912509596E-02  0.23870769517E-01  0.00000000000E+00 0. -1.
     999901    1    3    3    0    0  0.94309336454E-01 -0.77462049899E-02  0.87284558339E-01  0.88936654353E+00  0.88000000000E+00 0.  1.
        -11    1    4    4    0    0 -0.33650928436E-01  0.28970017006E-02 -0.35348899714E-01  0.48893592990E-01  0.51100000000E-03 0.  1.
         11    1    4    4    0    0 -0.58770691476E-01  0.28492539176E-01 -0.49244407665E-01  0.81799093959E-01  0.51100000000E-03 0. -1.
</event>
<event>
 8    1  0.1094829E+005  0.1043930E+01  0.7957747E-01            NaN
         13   -1    0    0    0    0  0.00000000000E+00  0.00000000000E+00  0.74505805969E-08  0.10566000000E+00  0.10566000000E+00 0.  1.
     999900   -1    0    0    0    0 -0.00000000000E+00 -0.00000000000E+00 -0.74505805969E-08  0.93827000000E+00  0.93827000000E+00 0. -1.
     999902    2    1    2    0    0  0.21662802245E-01 -0.26544797192E-02 -0.12563521600E-01  0.10187473604E+01  0.10184360652E+01 0.  0.
     999903    2    3    3    0    0 -0.83575064582E-01 -0.24463528745E-02 -0.95722029928E-01  0.12858423519E+00  0.19504421620E-01 0.  0.
         14    1    1    2    0    0 -0.21662802245E-01  0.26544797192E-02  0.12563521600E-01  0.25182639629E-01  0.00000000000E+00 0. -1.
     999901    1    3    3    0    0  0.10523786683E+00 -0.20812684474E-03  0.83158508328E-01  0.89016312518E+00  0.88000000000E+00 0. -1.
        -11    1    4    4    0    0 -0.11460834433E-01  0.20554321913E-02 -0.24480595235E-01  0.27113395056E-01  0.51100000000E-03 0.  1.
         11    1    4    4    0    0 -0.72114230148E-01 -0.45017850658E-02 -0.71241434693E-01  0.10147084013E+00  0.51100000000E-03 0. -1.
</event>
<event>
 8    1  0.1094829E+005  0.1043930E+01  0.7957747E-01            NaN
         13   -1    0    0    0    0  0.00000000000E+00  0.00000000000E+00  0.74505805969E-08  0.10566000000E+00  0.10566000000E+00 0.  1.
     999900   -1    0    0    0    0 -0.00000000000E+00 -0.00000000000E+00 -0.74505805969E-08  0.93827000000E+00  0.93827000000E+00 0. -1.
     999902    2    1    2    0    0 -0.12536706171E-01  0.10439861558E-01  0.15509280405E-01  0.10214200580E+01  0.10211719921E+01 0.  0.
     999903    2    3    3    0    0  0.32703804511E-01  0.36902727140E-01  0.12231123147E+00  0.13341462792E+00  0.20200878718E-01 0.  0.
         14    1    1    2    0    0  0.12536706171E-01 -0.10439861558E-01 -0.15509280405E-01  0.22509942018E-01  0.00000000000E+00 0. -1.
     999901    1    3    3    0    0 -0.45240510682E-01 -0.26462865581E-01 -0.10680195106E+00  0.88800543006E+00  0.88000000000E+00 0. -1.
        -11    1    4    4    0    0  0.25837764784E-01  0.15626934539E-01  0.80868591754E-01  0.86323701412E-01  0.51100000000E-03 0. -1.
         11    1    4    4    0    0  0.68660397274E-02  0.21275792600E-01  0.41442639714E-01  0.47090926512E-01  0.51100000000E-03 0.  1.
</event>
<event>
 8    1  0.1094829E+005  0.1043930E+01  0.7957747E-01            NaN
         13   -1    0    0    0    0  0.00000000000E+00  0.00000000000E+00  0.74505805969E-08  0.10566000000E+00  0.10566000000E+00 0.  1.
     999900   -1    0    0    0    0 -0.00000000000E+00 -0.00000000000E+00 -0.74505805969E-08  0.93827000000E+00  0.93827000000E+00 0.  1.
     999902    2    1    2    0    0  0.80033445364E-02  0.67318129463E-03 -0.22693580813E-01  0.10198570835E+01  0.10195729329E+01 0.  0.
     999903    2    3    3    0    0 -0.63352896130E-01  0.55740429045E-01  0.93531811578E-01  0.12765057342E+00  0.20636962952E-01 0.  0.
         14    1    1    2    0    0 -0.80033445364E-02 -0.67318129463E-03  0.22693580813E-01  0.24072916461E-01  0.00000000000E+00 0.  1.
     999901    1    3    3    0    0  0.71356240666E-01 -0.55067247750E-01 -0.11622539239E+00  0.89220651012E+00  0.88000000000E+00 0.  1.
        -11    1    4    4    0    0 -0.28167199168E-01  0.11789334051E-01  0.31338085268E-01  0.43757470397E-01  0.51100000000E-03 0.  1.
         11    1    4    4    0    0 -0.35185696962E-01  0.43951094993E-01  0.62193726311E-01  0.83893103025E-01  0.51100000000E-03 0. -1.
</event>
<event>
 8    1  0.1094829E+005  0.1043930E+01  0.7957747E-01            NaN
         13   -1    0    0    0    0  0.00000000000E+00  0.00000000000E+00  0.74505805969E-08  0.10566000000E+00  0.10566000000E+00 0.  1.
     999900   -1    0    0    0    0 -0.00000000000E+00 -0.00000000000E+00 -0.74505805969E-08  0.93827000000E+00  0.93827000000E+00 0. -1.
     999902    2    1    2    0    0 -0.45006889255E-02  0.21231664962E-01 -0.90783837893E-02  0.10204043364E+01  0.10201331054E+01 0.  0.
     999903    2    3    3    0    0  0.26479818875E-02 -0.11450181736E+00 -0.55132484925E-01  0.12877904401E+00  0.20658492082E-01 0.  0.
         14    1    1    2    0    0  0.45006889255E-02 -0.21231664962E-01  0.90783837893E-02  0.23525663648E-01  0.00000000000E+00 0. -1.
     999901    1    3    3    0    0 -0.71486708130E-02  0.13573348232E+00  0.46054101136E-01  0.89162529234E+00  0.88000000000E+00 0.  1.
        -11    1    4    4    0    0 -0.88382458440E-02 -0.44500300621E-01 -0.19354365653E-01  0.49327922476E-01  0.51100000000E-03 0.  1.
         11    1    4    4    0    0  0.11486227731E-01 -0.70001516736E-01 -0.35778119272E-01  0.79451121531E-01  0.51100000000E-03 0. -1.
</event>
<event>
 8    1  0.1094829E+005  0.1043930E+01  0.7957747E-01            NaN
         13   -1    0    0    0    0  0.00000000000E+00  0.00000000000E+00  0.74505805969E-08  0.10566000000E+00  0.10566000000E+00 0.  1.
     999900   -1    0    0    0    0 -0.00000000000E+00 -0.00000000000E+00 -0.74505805969E-08  0.93827000000E+00  0.93827000000E+00 0. -1.
     999902    2    1    2    0    0 -0.17370114914E-01 -0.93526229792E-02 -0.19504824067E-01  0.10161877829E+01  0.10158090271E+01 0.  0.
     999903    2    3    3    0    0 -0.43858558354E-01  0.27814245303E-01 -0.11694654717E+00  0.12963383464E+00  0.20766097538E-01 0.  0.
         14    1    1    2    0    0  0.17370114914E-01  0.93526229792E-02  0.19504824067E-01  0.27742217118E-01  0.00000000000E+00 0.  1.
     999901    1    3    3    0    0  0.26488443440E-01 -0.37166868283E-01  0.97441723103E-01  0.88655394824E+00  0.88000000000E+00 0.  1.
        -11    1    4    4    0    0 -0.21025278958E-01  0.24489966358E-01 -0.77110526366E-01  0.83594947245E-01  0.51100000000E-03 0.  1.
         11    1    4    4    0    0 -0.22833279396E-01  0.33242789455E-02 -0.39836020804E-01  0.46038887400E-01  0.51100000000E-03 0. -1.
</event>
<event>
 8    1  0.1094829E+005  0.1043930E+01  0.7957747E-01            NaN
         13   -1    0    0    0    0  0.00000000000E+00  0.00000000000E+00  0.74505805969E-08  0.10566000000E+00  0.10566000000E+00 0.  1.
     999900   -1    0    0    0    0 -0.00000000000E+00 -0.00000000000E+00 -0.74505805969E-08  0.93827000000E+00  0.93827000000E+00 0. -1.
     999902    2    1    2    0    0 -0.23353322663E-01  0.13159373841E-01 -0.23567873856E-02  0.10170208706E+01  0.10166648169E+01 0.  0.
     999903    2    3    3    0    0 -0.12600309307E+00  0.17962716207E-01  0.21866461879E-01  0.13071008239E+00  0.20187739980E-01 0.  0.
         14    1    1    2    0    0  0.23353322663E-01 -0.13159373841E-01  0.23567873856E-02  0.26909129419E-01  0.00000000000E+00 0. -1.
     999901    1    3    3    0    0  0.10264977041E+00 -0.48033423664E-02 -0.24223249265E-01  0.88631078819E+00  0.88000000000E+00 0. -1.
        -11    1    4    4    0    0 -0.94049777624E-01  0.48151238934E-02  0.13310141943E-01  0.95110289079E-01  0.51100000000E-03 0.  1.
         11    1    4    4    0    0 -0.31953315448E-01  0.13147592313E-01  0.85563199362E-02  0.35599793309E-01  0.51100000000E-03 0. -1.
</event>
<event>
 8    1  0.1094829E+005  0.1043930E+01  0.7957747E-01            NaN
         13   -1    0    0    0    0  0.00000000000E+00  0.00000000000E+00  0.74505805969E-08  0.10566000000E+00  0.10566000000E+00 0. -1.
     999900   -1    0    0    0    0 -0.00000000000E+00 -0.00000000000E+00 -0.74505805969E-08  0.93827000000E+00  0.93827000000E+00 0. -1.
     999902    2    1    2    0    0  0.10451618485E-01  0.19444488886E-01  0.67638908941E-02  0.10208415896E+01  0.10205804605E+01 0.  0.
     999903    2    3    3    0    0 -0.68382762455E-01  0.45971339794E-01 -0.99307419987E-01  0.13057777672E+00  0.19975630817E-01 0.  0.
         14    1    1    2    0    0 -0.10451618485E-01 -0.19444488886E-01 -0.67638908941E-02  0.23088410448E-01  0.00000000000E+00 0.  1.
     999901    1    3    3    0    0  0.78834380940E-01 -0.26526850908E-01  0.10607131088E+00  0.89026381283E+00  0.88000000000E+00 0.  1.
        -11    1    4    4    0    0 -0.66276003632E-01  0.45805521059E-01 -0.89025690704E-01  0.12006868511E+00  0.51100000000E-03 0.  1.
         11    1    4    4    0    0 -0.21067588227E-02  0.16581873515E-03 -0.10281729283E-01  0.10509091618E-01  0.51100000000E-03 0. -1.
</event>
<event>
 8    1  0.1094829E+005  0.1043930E+01  0.7957747E-01            NaN
         13   -1    0    0    0    0  0.00000000000E+00  0.00000000000E+00  0.74505805969E-08  0.10566000000E+00  0.10566000000E+00 0.  1.
     999900   -1    0    0    0    0 -0.00000000000E+00 -0.00000000000E+00 -0.74505805969E-08  0.93827000000E+00  0.93827000000E+00 0.  1.
     999902    2    1    2    0    0 -0.73837212764E-02  0.19943705528E-01 -0.10128429843E-01  0.10203746222E+01  0.10201026977E+01 0.  0.
     999903    2    3    3    0    0 -0.42345841860E-01  0.44781882419E-01  0.11337007917E+00  0.13071672921E+00  0.20868663840E-01 0.  0.
         14    1    1    2    0    0  0.73837212764E-02 -0.19943705528E-01  0.10128429843E-01  0.23555377755E-01  0.00000000000E+00 0. -1.
     999901    1    3    3    0    0  0.34962120583E-01 -0.24838176890E-01 -0.12349850901E+00  0.88965789303E+00  0.88000000000E+00 0.  1.
        -11    1    4    4    0    0 -0.26802475079E-01  0.15011996228E-01  0.44281940001E-01  0.53896976097E-01  0.51100000000E-03 0.  1.
         11    1    4    4    0    0 -0.15543366781E-01  0.29769886191E-01  0.69088139164E-01  0.76819753116E-01  0.51100000000E-03 0. -1.
</event>
<event>
 8    1  0.1094829E+005  0.1043930E+01  0.7957747E-01            NaN
         13   -1    0    0    0    0  0.00000000000E+00  0.00000000000E+00  0.74505805969E-08  0.10566000000E+00  0.10566000000E+00 0. -1.
     999900   -1    0    0    0    0 -0.00000000000E+00 -0.00000000000E+00 -0.74505805969E-08  0.93827000000E+00  0.93827000000E+00 0. -1.
     999902    2    1    2    0    0  0.32303303005E-02  0.10657169350E-01 -0.23771058635E-01  0.10176797901E+01  0.10173411825E+01 0.  0.
     999903    2    3    3    0    0 -0.20891976883E-01  0.12141991705E+00 -0.37676915880E-01  0.13029957571E+00  0.19471992310E-01 0.  0.
         14    1    1    2    0    0 -0.32303303005E-02 -0.10657169350E-01  0.23771058635E-01  0.26250209924E-01  0.00000000000E+00 0. -1.
     999901    1    3    3    0    0  0.24122307183E-01 -0.11076274770E+00  0.13905857245E-01  0.88738021437E+00  0.88000000000E+00 0.  1.
        -11    1    4    4    0    0 -0.18201782318E-01  0.92778400364E-01 -0.20351894683E-01  0.96713996877E-01  0.51100000000E-03 0.  1.
         11    1    4    4    0    0 -0.26901945646E-02  0.28641516690E-01 -0.17325021197E-01  0.33585578833E-01  0.51100000000E-03 0. -1.
</event>
<event>
 8    1  0.1094829E+005  0.1043930E+01  0.7957747E-01            NaN
         13   -1    0    0    0    0  0.00000000000E+00  0.00000000000E+00  0.74505805969E-08  0.10566000000E+00  0.10566000000E+00 0. -1.
     999900   -1    0    0    0    0 -0.00000000000E+00 -0.00000000000E+00 -0.74505805969E-08  0.93827000000E+00  0.93827000000E+00 0.  1.
     999902    2    1    2    0    0 -0.96864248756E-02 -0.14218746498E-01  0.16349231649E-01  0.10201961222E+01  0.10199200120E+01 0.  0.
     999903    2    3    3    0    0  0.94678975361E-01  0.68145391406E-02 -0.83343452870E-01  0.12819098366E+00  0.21823172016E-01 0.  0.
         14    1    1    2    0    0  0.96864248756E-02  0.14218746498E-01 -0.16349231649E-01  0.23733877777E-01  0.00000000000E+00 0. -1.
     999901    1    3    3    0    0 -0.10436540024E+00 -0.21033285639E-01  0.99692684519E-01  0.89200513856E+00  0.88000000000E+00 0. -1.
        -11    1    4    4    0    0  0.78840422165E-01 -0.97907322823E-03 -0.60875519490E-01  0.99613557038E-01  0.51100000000E-03 0. -1.
         11    1    4    4    0    0  0.15838553196E-01  0.77936123688E-02 -0.22467933380E-01  0.28577426624E-01  0.51100000000E-03 0.  1.
</event>
<event>
 8    1  0.1094829E+005  0.1043930E+01  0.7957747E-01            NaN
         13   -1    0    0    0    0  0.00000000000E+00  0.00000000000E+00  0.74505805969E-08  0.10566000000E+00  0.10566000000E+00 0.  1.
     999900   -1    0    0    0    0 -0.00000000000E+00 -0.00000000000E+00 -0.74505805969E-08  0.93827000000E+00  0.93827000000E+00 0. -1.
     999902    2    1    2    0    0 -0.62525137990E-02  0.20914752427E-01  0.69174629435E-02  0.10210308277E+01  0.10207740098E+01 0.  0.
     999903    2    3    3    0    0  0.70701874318E-01 -0.54528413514E-01  0.92717277565E-01  0.13031467914E+00  0.20330251549E-01 0.  0.
         14    1    1    2    0    0  0.62525137990E-02 -0.20914752427E-01 -0.69174629435E-02  0.22899172288E-01  0.00000000000E+00 0. -1.
     999901    1    3    3    0    0 -0.76954388117E-01  0.75443165941E-01 -0.85799814621E-01  0.89071614857E+00  0.88000000000E+00 0.  1.
        -11    1    4    4    0    0  0.21729911871E-01 -0.10598981381E-01  0.36464375631E-01  0.43754305930E-01  0.51100000000E-03 0. -1.
         11    1    4    4    0    0  0.48971962447E-01 -0.43929432133E-01  0.56252901934E-01  0.86560373211E-01  0.51100000000E-03 0.  1.
</event>
<event>
 8    1  0.1094829E+005  0.1043930E+01  0.7957747E-01            NaN
         13   -1    0    0    0    0  0.00000000000E+00  0.00000000000E+00  0.74505805969E-08  0.10566000000E+00  0.10566000000E+00 0. -1.
     999900   -1    0    0    0    0 -0.00000000000E+00 -0.00000000000E+00 -0.74505805969E-08  0.93827000000E+00  0.93827000000E+00 0. -1.
     999902    2    1    2    0    0  0.10257425423E-01  0.16326396094E-01  0.13418589459E-01  0.10204390543E+01  0.10201686327E+01 0.  0.
     999903    2    3    3    0    0 -0.11099624536E-01  0.12875844371E+00 -0.21911637611E-01  0.13232570916E+00  0.18111735186E-01 0.  0.
         14    1    1    2    0    0 -0.10257425423E-01 -0.16326396094E-01 -0.13418589459E-01  0.23490945677E-01  0.00000000000E+00 0. -1.
     999901    1    3    3    0    0  0.21357049958E-01 -0.11243204761E+00  0.35330227070E-01  0.88811334516E+00  0.88000000000E+00 0. -1.
        -11    1    4    4    0    0  0.37196904151E-03  0.67451538161E-01 -0.18077999200E-01  0.69834973597E-01  0.51100000000E-03 0.  1.
         11    1    4    4    0    0 -0.11471593577E-01  0.61306905545E-01 -0.38336384111E-02  0.62490735562E-01  0.51100000000E-03 0. -1.
</event>
<event>
 8    1  0.1094829E+005  0.1043930E+01  0.7957747E-01            NaN
         13   -1    0    0    0    0  0.00000000000E+00  0.00000000000E+00  0.74505805969E-08  0.10566000000E+00  0.10566000000E+00 0.  1.
     999900   -1    0    0    0    0 -0.00000000000E+00 -0.00000000000E+00 -0.74505805969E-08  0.93827000000E+00  0.93827000000E+00 0. -1.
     999902    2    1    2    0    0  0.17193607756E-01  0.15949606706E-01 -0.10311650632E-01  0.10183108618E+01  0.10179885417E+01 0.  0.
     999903    2    3    3    0    0 -0.12315373886E+00 -0.19195846179E-01 -0.10132755459E-02  0.12644818163E+00  0.21278909857E-01 0.  0.
         14    1    1    2    0    0 -0.17193607756E-01 -0.15949606706E-01  0.10311650632E-01  0.25619138169E-01  0.00000000000E+00 0.  1.
     999901    1    3    3    0    0  0.14034734661E+00  0.35145452885E-01 -0.92983750856E-02  0.89186268020E+00  0.88000000000E+00 0. -1.
        -11    1    4    4    0    0 -0.41763092173E-01 -0.11614752441E-01  0.84196261502E-02  0.44161177154E-01  0.51100000000E-03 0. -1.
         11    1    4    4    0    0 -0.81390646684E-01 -0.75810937375E-02 -0.94329016961E-02  0.82287004474E-01  0.51100000000E-03 0.  1.
</event>
<event>
 8    1  0.1094829E+005  0.1043930E+01  0.7957747E-01            NaN
         13   -1    0    0    0    0  0.00000000000E+00  0.00000000000E+00  0.74505805969E-08  0.10566000000E+00  0.10566000000E+00 0. -1.
     999900   -1    0    0    0    0 -0.00000000000E+00 -0.00000000000E+00 -0.74505805969E-08  0.93827000000E+00  0.93827000000E+00 0.  1.
     999902    2    1    2    0    0  0.10731902177E-01 -0.23203531569E-01 -0.26510921628E-02  0.10182277454E+01  0.10179033037E+01 0.  0.
     999903    2    3    3    0    0 -0.10558625829E+00  0.40568886668E-01  0.53142988973E-01  0.12653844118E+00  0.19837018758E-01 0.  0.
         14    1    1    2    0    0 -0.10731902177E-01  0.23203531569E-01  0.26510921628E-02  0.25702254595E-01  0.00000000000E+00 0.  1.
     999901    1    3    3    0    0  0.11631816047E+00 -0.63772418237E-01 -0.55794081136E-01  0.89168930423E+00  0.88000000000E+00 0.  1.
        -11    1    4    4    0    0 -0.31914362799E-01  0.21655232749E-01  0.14346925109E-01  0.41153019809E-01  0.51100000000E-03 0.  1.
         11    1    4    4    0    0 -0.73671895493E-01  0.18913653919E-01  0.38796063864E-01  0.85385421370E-01  0.51100000000E-03 0. -1.
</event>
<event>
 8    1  0.1094829E+005  0.1043930E+01  0.7957747E-01            NaN
         13   -1    0    0    0    0  0.00000000000E+00  0.00000000000E+00  0.74505805969E-08  0.10566000000E+00  0.10566000000E+00 0. -1.
     999900   -1    0    0    0    0 -0.00000000000E+00 -0.00000000000E+00 -0.74505805969E-08  0.93827000000E+00  0.93827000000E+00 0. -1.
     999902    2    1    2    0    0  0.11539526979E-01 -0.20082869377E-01  0.31243577063E-02  0.10205581379E+01  0.10202904826E+01 0.  0.
     999903    2    3    3    0    0 -0.10648878521E+00  0.48553334176E-01 -0.49151359305E-01  0.12849627825E+00  0.19953690578E-01 0.  0.
         14    1    1    2    0    0 -0.11539526979E-01  0.20082869377E-01 -0.31243577063E-02  0.23371862065E-01  0.00000000000E+00 0.  1.
     999901    1    3    3    0    0  0.11802831219E+00 -0.68636203553E-01  0.52275717011E-01  0.89206185969E+00  0.88000000000E+00 0.  1.
        -11    1    4    4    0    0 -0.63443817652E-01  0.24677565197E-01 -0.38219996977E-01  0.78071310430E-01  0.51100000000E-03 0.  1.
         11    1    4    4    0    0 -0.43044967556E-01  0.23875768979E-01 -0.10931362328E-01  0.50424967819E-01  0.51100000000E-03 0. -1.
</event>
<event>
 8    1  0.1094829E+005  0.1043930E+01  0.7957747E-01            NaN
         13   -1    0    0    0    0  0.00000000000E+00  0.00000000000E+00  0.74505805969E-08  0.10566000000E+00  0.10566000000E+00 0. -1.
     999900   -1    0    0    0    0 -0.00000000000E+00 -0.00000000000E+00 -0.74505805969E-08  0.93827000000E+00  0.93827000000E+00 0. -1.
     999902    2    1    2    0    0 -0.17844523585E-01  0.15587162919E-01 -0.47727250467E-03  0.10202315937E+01  0.10199563179E+01 0.  0.
     999903    2    3    3    0    0 -0.72485602452E-01  0.10971138064E+00 -0.65253752469E-02  0.13350638524E+00  0.22150051274E-01 0.  0.
         14    1    1    2    0    0  0.17844523585E-01 -0.15587162919E-01  0.47727250467E-03  0.23698406251E-01  0.00000000000E+00 0.  1.
     999901    1    3    3    0    0  0.54641078868E-01 -0.94124217725E-01  0.60481027423E-02  0.88672520851E+00  0.88000000000E+00 0. -1.
        -11    1    4    4    0    0 -0.20978553438E-01  0.23886495314E-01 -0.10059115846E-01  0.33348332722E-01  0.51100000000E-03 0.  1.
         11    1    4    4    0    0 -0.51507049015E-01  0.85824885330E-01  0.35337405994E-02  0.10015805252E+00  0.51100000000E-03 0. -1.
</event>
<event>
 8    1  0.1094829E+005  0.1043930E+01  0.7957747E-01            NaN
         13   -1    0    0    0    0  0.00000000000E+00  0.00000000000E+00  0.74505805969E-08  0.10566000000E+00  0.10566000000E+00 0.  1.
     999900   -1    0    0    0    0 -0.00000000000E+00 -0.00000000000E+00 -0.74505805969E-08  0.93827000000E+00  0.93827000000E+00 0. -1.
     999902    2    1    2    0    0 -0.71146535100E-02  0.74737333903E-02 -0.21436063028E-01  0.10201396704E+01  0.10198622296E+01 0.  0.
     999903    2    3    3    0    0  0.26004359140E-01 -0.71082259659E-01  0.10097476006E+00  0.12758584979E+00  0.18797142464E-01 0.  0.
         14    1    1    2    0    0  0.71146535100E-02 -0.74737333903E-02  0.21436063028E-01  0.23790329622E-01  0.00000000000E+00 0.  1.
     999901    1    3    3    0    0 -0.33119012650E-01  0.78555993050E-01 -0.12241082309E+00  0.89255382059E+00  0.88000000000E+00 0. -1.
        -11    1    4    4    0    0  0.22252559264E-01 -0.70767663528E-01  0.96318453667E-01  0.12157608413E+00  0.51100000000E-03 0. -1.
         11    1    4    4    0    0  0.37517998761E-02 -0.31459613115E-03  0.46563063897E-02  0.60097656552E-02  0.51100000000E-03 0.  1.
</event>
<event>
 8    1  0.1094829E+005  0.1043930E+01  0.7957747E-01            NaN
         13   -1    0    0    0    0  0.00000000000E+00  0.00000000000E+00  0.74505805969E-08  0.10566000000E+00  0.10566000000E+00 0.  1.
     999900   -1    0    0    0    0 -0.00000000000E+00 -0.00000000000E+00 -0.74505805969E-08  0.93827000000E+00  0.93827000000E+00 0.  1.
     999902    2    1    2    0    0 -0.12595258626E-01 -0.14474145790E-01 -0.12447106201E-01  0.10210592351E+01  0.10208030611E+01 0.  0.
     999903    2    3    3    0    0 -0.99065739071E-01 -0.80042557656E-01  0.33991522323E-01  0.13317810177E+00  0.18977658145E-01 0.  0.
         14    1    1    2    0    0  0.12595258626E-01  0.14474145790E-01  0.12447106201E-01  0.22870764941E-01  0.00000000000E+00 0.  1.
     999901    1    3    3    0    0  0.86470480445E-01  0.65568411866E-01 -0.46438628524E-01  0.88788113328E+00  0.88000000000E+00 0.  1.
        -11    1    4    4    0    0 -0.49486909035E-01 -0.46009494172E-01  0.94711562764E-02  0.68233361650E-01  0.51100000000E-03 0.  1.
         11    1    4    4    0    0 -0.49578830036E-01 -0.34033063484E-01  0.24520366047E-01  0.64944740125E-01  0.51100000000E-03 0. -1.
</event>
<event>
 8    1  0.1094829E+005  0.1043930E+01  0.7957747E-01            NaN
         13   -1    0    0    0    0  0.00000000000E+00  0.00000000000E+00  0.74505805969E-08  0.10566000000E+00  0.10566000000E+00 0.  1.
     999900   -1    0    0    0    0 -0.00000000000E+00 -0.00000000000E+00 -0.74505805969E-08  0.93827000000E+00  0.93827000000E+00 0.  1.
     999902    2    1    2    0    0  0.10287636231E-01  0.94911636163E-03 -0.20758954453E-01  0.10207422776E+01  0.10204788713E+01 0.  0.
     999903    2    3    3    0    0  0.51683631048E-01 -0.23273748550E-01 -0.11927655463E+00  0.13394687101E+00  0.22405416289E-01 0.  0.
         14    1    1    2    0    0 -0.10287636231E-01 -0.94911636163E-03  0.20758954453E-01  0.23187722421E-01  0.00000000000E+00 0.  1.
     999901    1    3    3    0    0 -0.41395994817E-01  0.24222864912E-01  0.98517600174E-01  0.88679540657E+00  0.88000000000E+00 0. -1.
        -11    1    4    4    0    0  0.88828201566E-02 -0.11074729953E-02 -0.41396591640E-01  0.42356462444E-01  0.51100000000E-03 0.  1.
         11    1    4    4    0    0  0.42800810892E-01 -0.22166275555E-01 -0.77879962988E-01  0.91590408564E-01  0.51100000000E-03 0. -1.
</event>
<event>
 8    1  0.1094829E+005  0.1043930E+01  0.7957747E-01            NaN
         13   -1    0    0    0    0  0.00000000000E+00  0.00000000000E+00  0.74505805969E-08  0.10566000000E+00  0.10566000000E+00 0.  1.
     999900   -1    0    0    0    0 -0.00000000000E+00 -0.00000000000E+00 -0.74505805969E-08  0.93827000000E+00  0.93827000000E+00 0.  1.
     999902    2    1    2    0    0 -0.10634743198E-01 -0.98754587349E-02 -0.17902579671E-01  0.10208838548E+01  0.10206236918E+01 0.  0.
     999903    2    3    3    0    0  0.26080838762E-01  0.12521861374E+00 -0.46751465164E-02  0.12971978051E+00  0.21105759465E-01 0.  0.
         14    1    1    2    0    0  0.10634743198E-01  0.98754587349E-02  0.17902579671E-01  0.23046145165E-01  0.00000000000E+00 0.  1.
     999901    1    3    3    0    0 -0.36715581960E-01 -0.13509407248E+00 -0.13227433154E-01  0.89116407432E+00  0.88000000000E+00 0.  1.
        -11    1    4    4    0    0  0.29086593904E-02  0.64457562543E-01 -0.69193534902E-04  0.64525216600E-01  0.51100000000E-03 0. -1.
         11    1    4    4    0    0  0.23172179372E-01  0.60761051200E-01 -0.46059529815E-02  0.65194563912E-01  0.51100000000E-03 0.  1.
</event>
<event>
 8    1  0.1094829E+005  0.1043930E+01  0.7957747E-01            NaN
         13   -1    0    0    0    0  0.00000000000E+00  0.00000000000E+00  0.74505805969E-08  0.10566000000E+00  0.10566000000E+00 0. -1.
     999900   -1    0    0    0    0 -0.00000000000E+00 -0.00000000000E+00 -0.74505805969E-08  0.93827000000E+00  0.93827000000E+00 0.  1.
     999902    2    1    2    0    0  0.13888369466E-01  0.31605995351E-03  0.19562430435E-01  0.10199367638E+01  0.10196545134E+01 0.  0.
     999903    2    3    3    0    0  0.10152310238E+00 -0.99979966951E-02 -0.78146646554E-01  0.13014280453E+00  0.20575493843E-01 0.  0.
         14    1    1    2    0    0 -0.13888369466E-01 -0.31605995351E-03 -0.19562430435E-01  0.23993236231E-01  0.00000000000E+00 0.  1.
     999901    1    3    3    0    0 -0.87634732918E-01  0.10314056649E-01  0.97709076989E-01  0.88979395924E+00  0.88000000000E+00 0. -1.
        -11    1    4    4    0    0  0.41377030803E-01 -0.11304765210E-01 -0.23737513090E-01  0.49026391294E-01  0.51100000000E-03 0.  1.
         11    1    4    4    0    0  0.60146071580E-01  0.13067685151E-02 -0.54409133464E-01  0.81116413233E-01  0.51100000000E-03 0. -1.
</event>
<event>
 8    1  0.1094829E+005  0.1043930E+01  0.7957747E-01            NaN
         13   -1    0    0    0    0  0.00000000000E+00  0.00000000000E+00  0.74505805969E-08  0.10566000000E+00  0.10566000000E+00 0. -1.
     999900   -1    0    0    0    0 -0.00000000000E+00 -0.00000000000E+00 -0.74505805969E-08  0.93827000000E+00  0.93827000000E+00 0. -1.
     999902    2    1    2    0    0 -0.41568894590E-02 -0.10182033830E-01  0.21313185237E-01  0.10199465597E+01  0.10196645425E+01 0.  0.
     999903    2    3    3    0    0 -0.72502172141E-01 -0.71295242383E-01 -0.77973179468E-01  0.12962993955E+00  0.19609384496E-01 0.  0.
         14    1    1    2    0    0  0.41568894590E-02  0.10182033830E-01 -0.21313185237E-01  0.23983440283E-01  0.00000000000E+00 0.  1.
     999901    1    3    3    0    0  0.68345282682E-01  0.61113208552E-01  0.99286364705E-01  0.89031662016E+00  0.88000000000E+00 0.  1.
        -11    1    4    4    0    0 -0.59771281409E-01 -0.59497521879E-01 -0.54432739536E-01  0.10037801276E+00  0.51100000000E-03 0. -1.
         11    1    4    4    0    0 -0.12730890732E-01 -0.11797720504E-01 -0.23540439933E-01  0.29251926794E-01  0.51100000000E-03 0.  1.
</event>
<event>
 8    1  0.1094829E+005  0.1043930E+01  0.7957747E-01            NaN
         13   -1    0    0    0    0  0.00000000000E+00  0.00000000000E+00  0.74505805969E-08  0.10566000000E+00  0.10566000000E+00 0. -1.
     999900   -1    0    0    0    0 -0.00000000000E+00 -0.00000000000E+00 -0.74505805969E-08  0.93827000000E+00  0.93827000000E+00 0.  1.
     999902    2    1    2    0    0 -0.11611803786E-01  0.92919810041E-02  0.19431640298E-01  0.10194603547E+01  0.10191666454E+01 0.  0.
     999903    2    3    3    0    0  0.20822265949E-01 -0.52793198821E-01  0.11680066515E+00  0.13132339145E+00  0.19563976077E-01 0.  0.
         14    1    1    2    0    0  0.11611803786E-01 -0.92919810041E-02 -0.19431640298E-01  0.24469645335E-01  0.00000000000E+00 0.  1.
     999901    1    3    3    0    0 -0.32434069735E-01  0.62085179825E-01 -0.97369024855E-01  0.88813696322E+00  0.88000000000E+00 0.  1.
        -11    1    4    4    0    0  0.10842606493E-02 -0.27419317992E-01  0.46014684690E-01  0.53578045396E-01  0.51100000000E-03 0.  1.
         11    1    4    4    0    0  0.19738005300E-01 -0.25373880829E-01  0.70785980462E-01  0.77745346051E-01  0.51100000000E-03 0. -1.
</event>
<event>
 8    1  0.1094829E+005  0.1043930E+01  0.7957747E-01            NaN
         13   -1    0    0    0    0  0.00000000000E+00  0.00000000000E+00  0.74505805969E-08  0.10566000000E+00  0.10566000000E+00 0.  1.
     999900   -1    0    0    0    0 -0.00000000000E+00 -0.00000000000E+00 -0.74505805969E-08  0.93827000000E+00  0.93827000000E+00 0.  1.
     999902    2    1    2    0    0 -0.65090501313E-02 -0.22855703368E-01  0.14766896096E-01  0.10159512200E+01  0.10155658862E+01 0.  0.
     999903    2    3    3    0    0 -0.10206873346E-01 -0.89935737082E-01  0.91219650177E-01  0.13008529988E+00  0.20212461473E-01 0.  0.
         14    1    1    2    0    0  0.65090501313E-02  0.22855703368E-01 -0.14766896096E-01  0.27978780001E-01  0.00000000000E+00 0. -1.
     999901    1    3    3    0    0  0.36978232151E-02  0.67080033714E-01 -0.76452754081E-01  0.88586592012E+00  0.88000000000E+00 0.  1.
        -11    1    4    4    0    0 -0.53653349450E-03 -0.29139409752E-01  0.42701436950E-01  0.51701710876E-01  0.51100000000E-03 0. -1.
         11    1    4    4    0    0 -0.96703398519E-02 -0.60796327330E-01  0.48518213227E-01  0.78383589005E-01  0.51100000000E-03 0.  1.
</event>
<event>
 8    1  0.1094829E+005  0.1043930E+01  0.7957747E-01            NaN
         13   -1    0    0    0    0  0.00000000000E+00  0.00000000000E+00  0.74505805969E-08  0.10566000000E+00  0.10566000000E+00 0. -1.
     999900   -1    0    0    0    0 -0.00000000000E+00 -0.00000000000E+00 -0.74505805969E-08  0.93827000000E+00  0.93827000000E+00 0. -1.
     999902    2    1    2    0    0  0.17997119106E-01  0.88171795134E-02 -0.13239655917E-01  0.10199106861E+01  0.10196278146E+01 0.  0.
     999903    2    3    3    0    0 -0.29004419486E-01 -0.12145067133E+00 -0.25624875341E-01  0.12899416295E+00  0.19782262805E-01 0.  0.
         14    1    1    2    0    0 -0.17997119106E-01 -0.88171795134E-02  0.13239655917E-01  0.24019313884E-01  0.00000000000E+00 0.  1.
     999901    1    3    3    0    0  0.47001538592E-01  0.13026785084E+00  0.12385219425E-01  0.89091652317E+00  0.88000000000E+00 0.  1.
        -11    1    4    4    0    0 -0.11612124694E-01 -0.22463170007E-01 -0.75106921138E-04  0.25292334980E-01  0.51100000000E-03 0.  1.
         11    1    4    4    0    0 -0.17392294793E-01 -0.98987501324E-01 -0.25549768420E-01  0.10370182797E+00  0.51100000000E-03 0. -1.
</event>
<event>
 8    1  0.1094829E+005  0.1043930E+01  0.7957747E-01            NaN
         13   -1    0    0    0    0  0.00000000000E+00  0.00000000000E+00  0.74505805969E-08  0.10566000000E+00  0.10566000000E+00 0. -1.
     999900   -1    0    0    0    0 -0.00000000000E+00 -0.00000000000E+00 -0.74505805969E-08  0.93827000000E+00  0.93827000000E+00 0.  1.
     999902    2    1    2    0    0 -0.15944642734E-01  0.11720543243E-01  0.11475166301E-01  0.10210546375E+01  0.10207983594E+01 0.  0.
     999903    2    3    3    0    0 -0.22906212926E-01  0.12071763219E+00  0.49061671823E-01  0.13350656884E+00  0.17874981648E-01 0.  0.
         14    1    1    2    0    0  0.15944642734E-01 -0.11720543243E-01 -0.11475166301E-01  0.22875362455E-01  0.00000000000E+00 0.  1.
     999901    1    3    3    0    0  0.69615701929E-02 -0.10899708895E+00 -0.37586505523E-01  0.88754806870E+00  0.88000000000E+00 0. -1.
        -11    1    4    4    0    0  0.27225507217E-02  0.20201433411E-01  0.67952229217E-02  0.21492937673E-01  0.51100000000E-03 0. -1.
         11    1    4    4    0    0 -0.25628763648E-01  0.10051619878E+00  0.42266448902E-01  0.11201363117E+00  0.51100000000E-03 0.  1.
</event>
<event>
 8    1  0.1094829E+005  0.1043930E+01  0.7957747E-01            NaN
         13   -1    0    0    0    0  0.00000000000E+00  0.00000000000E+00  0.74505805969E-08  0.10566000000E+00  0.10566000000E+00 0.  1.
     999900   -1    0    0    0    0 -0.00000000000E+00 -0.00000000000E+00 -0.74505805969E-08  0.93827000000E+00  0.93827000000E+00 0.  1.
     999902    2    1    2    0    0  0.23067847913E-01  0.79962079750E-03  0.61478976791E-02  0.10200435677E+01  0.10197638542E+01 0.  0.
     999903    2    3    3    0    0 -0.11192450579E+00  0.28860300998E-01  0.50863342409E-01  0.12818606323E+00  0.22013069672E-01 0.  0.
         14    1    1    2    0    0 -0.23067847913E-01 -0.79962079750E-03 -0.61478976791E-02  0.23886432271E-01  0.00000000000E+00 0.  1.
     999901    1    3    3    0    0  0.13499235370E+00 -0.28060680201E-01 -0.44715444730E-01  0.89185750450E+00  0.88000000000E+00 0.  1.
        -11    1    4    4    0    0 -0.78188665439E-01  0.16409323290E-01  0.24404618185E-01  0.83537894418E-01  0.51100000000E-03 0. -1.
         11    1    4    4    0    0 -0.33735840348E-01  0.12450977708E-01  0.26458724223E-01  0.44648168814E-01  0.51100000000E-03 0.  1.
</event>
<event>
 8    1  0.1094829E+005  0.1043930E+01  0.7957747E-01            NaN
         13   -1    0    0    0    0  0.00000000000E+00  0.00000000000E+00  0.74505805969E-08  0.10566000000E+00  0.10566000000E+00 0. -1.
     999900   -1    0    0    0    0 -0.00000000000E+00 -0.00000000000E+00 -0.74505805969E-08  0.93827000000E+00  0.93827000000E+00 0.  1.
     999902    2    1    2    0    0 -0.29614380940E-03  0.10309571863E-01  0.21248168390E-01  0.10203109477E+01  0.10200375338E+01 0.  0.
     999903    2    3    3    0    0  0.27358283063E-01 -0.12351405350E+00 -0.15605306025E-01  0.12900196162E+00  0.19843977942E-01 0.  0.
         14    1    1    2    0    0  0.29614380940E-03 -0.10309571863E-01 -0.21248168390E-01  0.23619052333E-01  0.00000000000E+00 0.  1.
     999901    1    3    3    0    0 -0.27654426872E-01  0.13382362537E+00  0.36853474416E-01  0.89130898605E+00  0.88000000000E+00 0. -1.
        -11    1    4    4    0    0  0.89354046287E-02 -0.82247564190E-01 -0.73470430867E-02  0.83058674648E-01  0.51100000000E-03 0.  1.
         11    1    4    4    0    0  0.18422878434E-01 -0.41266489313E-01 -0.82582629386E-02  0.45943286972E-01  0.51100000000E-03 0. -1.
</event>
<event>
 8    1  0.1094829E+005  0.1043930E+01  0.7957747E-01            NaN
         13   -1    0    0    0    0  0.00000000000E+00  0.00000000000E+00  0.74505805969E-08  0.10566000000E+00  0.10566000000E+00 0.  1.
     999900   -1    0    0    0    0 -0.00000000000E+00 -0.00000000000E+00 -0.74505805969E-08  0.93827000000E+00  0.93827000000E+00 0. -1.
     999902    2    1    2    0    0 -0.21293092173E-01  0.10198080882E-01  0.39261784334E-02  0.10199965192E+01  0.10197156896E+01 0.  0.
     999903    2    3    3    0    0  0.80021570448E-01 -0.14564956157E-01 -0.96784146338E-01  0.12813305518E+00  0.20864303561E-01 0.  0.
         14    1    1    2    0    0  0.21293092173E-01 -0.10198080882E-01 -0.39261784334E-02  0.23933480838E-01  0.00000000000E+00 0.  1.
     999901    1    3    3    0    0 -0.10131466262E+00  0.24763037039E-01  0.10071032477E+00  0.89186346398E+00  0.88000000000E+00 0.  1.
        -11    1    4    4    0    0  0.20530239074E-01 -0.12640241534E-01 -0.33211856679E-01  0.41043330366E-01  0.51100000000E-03 0.  1.
         11    1    4    4    0    0  0.59491331374E-01 -0.19247146229E-02 -0.63572289660E-01  0.87089724817E-01  0.51100000000E-03 0. -1.
</event>
<event>
 8    1  0.1094829E+005  0.1043930E+01  0.7957747E-01            NaN
         13   -1    0    0    0    0  0.00000000000E+00  0.00000000000E+00  0.74505805969E-08  0.10566000000E+00  0.10566000000E+00 0. -1.
     999900   -1    0    0    0    0 -0.00000000000E+00 -0.00000000000E+00 -0.74505805969E-08  0.93827000000E+00  0.93827000000E+00 0. -1.
     999902    2    1    2    0    0  0.18673140541E-01  0.39794220328E-02 -0.14505894964E-01  0.10199520317E+01  0.10196701447E+01 0.  0.
     999903    2    3    3    0    0  0.11392501244E+00  0.28842052849E-02  0.62379176099E-01  0.13147837827E+00  0.20203347336E-01 0.  0.
         14    1    1    2    0    0 -0.18673140541E-01 -0.39794220328E-02  0.14505894964E-01  0.23977968348E-01  0.00000000000E+00 0. -1.
     999901    1    3    3    0    0 -0.95251871894E-01  0.10952167479E-02 -0.76885071063E-01  0.88847365338E+00  0.88000000000E+00 0. -1.
        -11    1    4    4    0    0  0.53069745341E-01 -0.78751286594E-02  0.24408091128E-01  0.58944308932E-01  0.51100000000E-03 0. -1.
         11    1    4    4    0    0  0.60855267094E-01  0.10759333944E-01  0.37971084971E-01  0.72534069339E-01  0.51100000000E-03 0.  1.
</event>
<event>
 8    1  0.1094829E+005  0.1043930E+01  0.7957747E-01            NaN
         13   -1    0    0    0    0  0.00000000000E+00  0.00000000000E+00  0.74505805969E-08  0.10566000000E+00  0.10566000000E+00 0. -1.
     999900   -1    0    0    0    0 -0.00000000000E+00 -0.00000000000E+00 -0.74505805969E-08  0.93827000000E+00  0.93827000000E+00 0. -1.
     999902    2    1    2    0    0 -0.18215661061E-01 -0.36090165920E-03  0.14393037964E-01  0.10207114708E+01  0.10204473560E+01 0.  0.
     999903    2    3    3    0    0 -0.25709904090E-01 -0.12360194900E+00  0.32278893672E-01  0.13191204274E+00  0.20504123412E-01 0.  0.
         14    1    1    2    0    0  0.18215661061E-01  0.36090165920E-03 -0.14393037964E-01  0.23218529233E-01  0.00000000000E+00 0.  1.
     999901    1    3    3    0    0  0.74942430290E-02  0.12324104735E+00 -0.17885855708E-01  0.88879942803E+00  0.88000000000E+00 0. -1.
        -11    1    4    4    0    0 -0.16713235169E-01 -0.46183563915E-01  0.19893429425E-01  0.52993051063E-01  0.51100000000E-03 0. -1.
         11    1    4    4    0    0 -0.89966689216E-02 -0.77418385089E-01  0.12385464247E-01  0.78918991676E-01  0.51100000000E-03 0.  1.
</event>
<event>
 8    1  0.1094829E+005  0.1043930E+01  0.7957747E-01            NaN
         13   -1    0    0    0    0  0.00000000000E+00  0.00000000000E+00  0.74505805969E-08  0.10566000000E+00  0.10566000000E+00 0. -1.
     999900   -1    0    0    0    0 -0.00000000000E+00 -0.00000000000E+00 -0.74505805969E-08  0.93827000000E+00  0.93827000000E+00 0.  1.
     999902    2    1    2    0    0 -0.21652803912E-01  0.27308837404E-02 -0.10519769129E-01  0.10197025943E+01  0.10194147408E+01 0.  0.
     999903    2    3    3    0    0  0.16164648932E-01 -0.36157879191E-01  0.12076907390E+00  0.12831084210E+00  0.17601559244E-01 0.  0.
         14    1    1    2    0    0  0.21652803912E-01 -0.27308837404E-02  0.10519769129E-01  0.24227405676E-01  0.00000000000E+00 0.  1.
     999901    1    3    3    0    0 -0.37817452844E-01  0.38888762932E-01 -0.13128884303E+00  0.89139175222E+00  0.88000000000E+00 0.  1.
        -11    1    4    4    0    0  0.16496339713E-01 -0.15828768519E-01  0.58836053638E-01  0.63123858132E-01  0.51100000000E-03 0.  1.
         11    1    4    4    0    0 -0.33169078070E-03 -0.20329110672E-01  0.61933020263E-01  0.65186983972E-01  0.51100000000E-03 0. -1.
</event>
<event>
 8    1  0.1094829E+005  0.1043930E+01  0.7957747E-01            NaN
         13   -1    0    0    0    0  0.00000000000E+00  0.00000000000E+00  0.74505805969E-08  0.10566000000E+00  0.10566000000E+00 0. -1.
     999900   -1    0    0    0    0 -0.00000000000E+00 -0.00000000000E+00 -0.74505805969E-08  0.93827000000E+00  0.93827000000E+00 0.  1.
     999902    2    1    2    0    0  0.58141144820E-02 -0.22486569072E-01  0.47059620795E-02  0.10202319875E+01  0.10199567209E+01 0.  0.
     999903    2    3    3    0    0  0.14026273152E-01  0.80258204918E-01  0.98428885452E-01  0.12927300167E+00  0.19625179566E-01 0.  0.
         14    1    1    2    0    0 -0.58141144820E-02  0.22486569072E-01 -0.47059620795E-02  0.23698012468E-01  0.00000000000E+00 0.  1.
     999901    1    3    3    0    0 -0.82121586705E-02 -0.10274477399E+00 -0.93722923373E-01  0.89095898587E+00  0.88000000000E+00 0.  1.
        -11    1    4    4    0    0  0.11405816182E-01  0.78208740268E-01  0.97968246494E-01  0.12587588387E+00  0.51100000000E-03 0. -1.
         11    1    4    4    0    0  0.26204569706E-02  0.20494646493E-02  0.46063895772E-03  0.33971177979E-02  0.51100000000E-03 0.  1.
</event>
<event>
 8    1  0.1094829E+005  0.1043930E+01  0.7957747E-01            NaN
         13   -1    0    0    0    0  0.00000000000E+00  0.00000000000E+00  0.74505805969E-08  0.10566000000E+00  0.10566000000E+00 0.  1.
     999900   -1    0    0    0    0 -0.00000000000E+00 -0.00000000000E+00 -0.74505805969E-08  0.93827000000E+00  0.93827000000E+00 0. -1.
     999902    2    1    2    0    0  0.85447626355E-02  0.16670607051E-01  0.14857136874E-01  0.10200206582E+01  0.10197404016E+01 0.  0.
     999903    2    3    3    0    0 -0.33616003048E-01 -0.12046294263E+00 -0.16985938094E-01  0.12783395017E+00  0.20288925896E-01 0.  0.
         14    1    1    2    0    0 -0.85447626355E-02 -0.16670607051E-01 -0.14857136874E-01  0.23909341773E-01  0.00000000000E+00 0. -1.
     999901    1    3    3    0    0  0.42160765684E-01  0.13713354968E+00  0.31843074969E-01  0.89218670806E+00  0.88000000000E+00 0.  1.
        -11    1    4    4    0    0 -0.19488297397E-02 -0.30891228158E-01  0.17168269908E-02  0.31004427593E-01  0.51100000000E-03 0. -1.
         11    1    4    4    0    0 -0.31667173309E-01 -0.89571714475E-01 -0.18702765085E-01  0.96829522575E-01  0.51100000000E-03 0.  1.
</event>
<event>
 8    1  0.1094829E+005  0.1043930E+01  0.7957747E-01            NaN
         13   -1    0    0    0    0  0.00000000000E+00  0.00000000000E+00  0.74505805969E-08  0.10566000000E+00  0.10566000000E+00 0. -1.
     999900   -1    0    0    0    0 -0.00000000000E+00 -0.00000000000E+00 -0.74505805969E-08  0.93827000000E+00  0.93827000000E+00 0. -1.
     999902    2    1    2    0    0  0.16944671070E-01  0.10449919172E-01  0.85306484953E-02  0.10222714070E+01  0.10220419438E+01 0.  0.
     999903    2    3    3    0    0  0.98893806754E-01  0.89306631992E-01 -0.74857321564E-02  0.13480841256E+00  0.19016108397E-01 0.  0.
         14    1    1    2    0    0 -0.16944671070E-01 -0.10449919172E-01 -0.85306484953E-02  0.21658593032E-01  0.00000000000E+00 0.  1.
     999901    1    3    3    0    0 -0.81949135684E-01 -0.78856712820E-01  0.16016380652E-01  0.88746299441E+00  0.88000000000E+00 0.  1.
        -11    1    4    4    0    0  0.65555040365E-01  0.63164381973E-01 -0.13442025748E-01  0.92022560519E-01  0.51100000000E-03 0.  1.
         11    1    4    4    0    0  0.33338766389E-01  0.26142250019E-01  0.59562935912E-02  0.42785852040E-01  0.51100000000E-03 0. -1.
</event>
<event>
 8    1  0.1094829E+005  0.1043930E+01  0.7957747E-01            NaN
         13   -1    0    0    0    0  0.00000000000E+00  0.00000000000E+00  0.74505805969E-08  0.10566000000E+00  0.10566000000E+00 0.  1.
     999900   -1    0    0    0    0 -0.00000000000E+00 -0.00000000000E+00 -0.74505805969E-08  0.93827000000E+00  0.93827000000E+00 0.  1.
     999902    2    1    2    0    0 -0.13797381638E-01  0.10309403168E-02  0.18103562907E-01  0.10211447072E+01  0.10208904660E+01 0.  0.
     999903    2    3    3    0    0  0.45399751804E-01 -0.29200702786E-01  0.11985210611E+00  0.13279172618E+00  0.18849315493E-01 0.  0.
         14    1    1    2    0    0  0.13797381638E-01 -0.10309403168E-02 -0.18103562907E-01  0.22785292799E-01  0.00000000000E+00 0. -1.
     999901    1    3    3    0    0 -0.59197133442E-01  0.30231643103E-01 -0.10174854320E+00  0.88835298103E+00  0.88000000000E+00 0.  1.
        -11    1    4    4    0    0  0.12991687525E-01  0.46136776437E-04  0.20563874814E-01  0.24329408988E-01  0.51100000000E-03 0.  1.
         11    1    4    4    0    0  0.32408064279E-01 -0.29246839562E-01  0.99288231297E-01  0.10846231719E+00  0.51100000000E-03 0. -1.
</event>
<event>
 8    1  0.1094829E+005  0.1043930E+01  0.7957747E-01            NaN
         13   -1    0    0    0    0  0.00000000000E+00  0.00000000000E+00  0.74505805969E-08  0.10566000000E+00  0.10566000000E+00 0.  1.
     999900   -1    0    0    0    0 -0.00000000000E+00 -0.00000000000E+00 -0.74505805969E-08  0.93827000000E+00  0.93827000000E+00 0.  1.
     999902    2    1    2    0    0  0.23404873682E-01 -0.42008172789E-02 -0.98045292302E-02  0.10182091180E+01  0.10178841998E+01 0.  0.
     999903    2    3    3    0    0  0.45253632287E-02  0.65597300637E-01  0.10735637944E+00  0.12750440166E+00  0.20211270900E-01 0.  0.
         14    1    1    2    0    0 -0.23404873682E-01  0.42008172789E-02  0.98045292302E-02  0.25720882009E-01  0.00000000000E+00 0.  1.
     999901    1    3    3    0    0  0.18879510454E-01 -0.69798117916E-01 -0.11716090867E+00  0.89070471633E+00  0.88000000000E+00 0.  1.
        -11    1    4    4    0    0 -0.80504991696E-02  0.27653433559E-01  0.45829719856E-01  0.54130834720E-01  0.51100000000E-03 0. -1.
         11    1    4    4    0    0  0.12575862398E-01  0.37943867078E-01  0.61526659587E-01  0.73373566936E-01  0.51100000000E-03 0.  1.
</event>
<event>
 7    1  0.1094829E+005  0.1043930E+01  0.7957747E-01            NaN
         13   -1    0    0    0    0  0.00000000000E+00  0.00000000000E+00  0.74505805969E-08  0.10566000000E+00  0.10566000000E+00 0.  1.
     999900   -1    0    0    0    0 -0.00000000000E+00 -0.00000000000E+00 -0.74505805969E-08  0.93827000000E+00  0.93827000000E+00 0. -1.
     999903    2    1    2    0    0  0.67864978735E-01 -0.32818871530E-01 -0.51232558019E-01  0.93394348871E-01  0.20371444051E-01 0.  0.
         14    1    1    2    0    0 -0.32031826920E-01 -0.55421152888E-01  0.28237018928E-02  0.64074296060E-01  0.00000000000E+00 0.  1.
     999901    1    1    2    0    0 -0.35833151815E-01  0.88240024418E-01  0.48408856126E-01  0.88646135507E+00  0.88000000000E+00 0.  1.
        -11    1    3    3    0    0  0.10506733099E-01 -0.13823609927E-01 -0.81728893942E-02  0.19197418417E-01  0.51100000000E-03 0.  1.
         11    1    3    3    0    0  0.57358245636E-01 -0.18995261604E-01 -0.43059668625E-01  0.74196930454E-01  0.51100000000E-03 0. -1.
</event>
<event>
 8    1  0.1094829E+005  0.1043930E+01  0.7957747E-01            NaN
         13   -1    0    0    0    0  0.00000000000E+00  0.00000000000E+00  0.74505805969E-08  0.10566000000E+00  0.10566000000E+00 0. -1.
     999900   -1    0    0    0    0 -0.00000000000E+00 -0.00000000000E+00 -0.74505805969E-08  0.93827000000E+00  0.93827000000E+00 0.  1.
     999902    2    1    2    0    0  0.13322180191E-02  0.22471637438E-02  0.25974064828E-01  0.10178248933E+01  0.10174900672E+01 0.  0.
     999903    2    3    3    0    0 -0.38469486898E-01 -0.11693917698E+00  0.32363030697E-01  0.12887586308E+00  0.20172996633E-01 0.  0.
         14    1    1    2    0    0 -0.13322180191E-02 -0.22471637438E-02 -0.25974064828E-01  0.26105106654E-01  0.00000000000E+00 0.  1.
     999901    1    3    3    0    0  0.39801704917E-01  0.11918634072E+00 -0.63889658694E-02  0.88894903027E+00  0.88000000000E+00 0. -1.
        -11    1    4    4    0    0 -0.17731966951E-01 -0.82069743353E-01  0.25288159553E-01  0.87690464480E-01  0.51100000000E-03 0. -1.
         11    1    4    4    0    0 -0.20737519947E-01 -0.34869433626E-01  0.70748711441E-02  0.41185398598E-01  0.51100000000E-03 0.  1.
</event>
<event>
 8    1  0.1154156E+005  0.1043930E+01  0.7957747E-01            NaN
         13   -1    0    0    0    0  0.00000000000E+00  0.00000000000E+00  0.74505805969E-08  0.10566000000E+00  0.10566000000E+00 0. -1.
     999900   -1    0    0    0    0 -0.00000000000E+00 -0.00000000000E+00 -0.74505805969E-08  0.93827000000E+00  0.93827000000E+00 0.  1.
     999902    2    1    2    0    0 -0.89074933108E-02 -0.15677493031E-01  0.14177016931E-01  0.10209928024E+01  0.10207351211E+01 0.  0.
     999903    2    3    3    0    0  0.10509942357E+00  0.64948039434E-01 -0.34076297042E-01  0.12867759134E+00  0.11514852592E-01 0.  0.
         14    1    1    2    0    0  0.89074933108E-02  0.15677493031E-01 -0.14177016931E-01  0.22937197603E-01  0.00000000000E+00 0.  1.
     999901    1    3    3    0    0 -0.11400691688E+00 -0.80625532464E-01  0.48253313973E-01  0.89231521106E+00  0.88000000000E+00 0.  1.
        -11    1    4    4    0    0  0.51101893403E-01  0.36873087666E-01 -0.13653055822E-01  0.64480191979E-01  0.51100000000E-03 0.  1.
         11    1    4    4    0    0  0.53997530170E-01  0.28074951768E-01 -0.20423241220E-01  0.64197399356E-01  0.51100000000E-03 0. -1.
</event>
<event>
 8    1  0.1094829E+005  0.1043930E+01  0.7957747E-01            NaN
         13   -1    0    0    0    0  0.00000000000E+00  0.00000000000E+00  0.74505805969E-08  0.10566000000E+00  0.10566000000E+00 0.  1.
     999900   -1    0    0    0    0 -0.00000000000E+00 -0.00000000000E+00 -0.74505805969E-08  0.93827000000E+00  0.93827000000E+00 0. -1.
     999902    2    1    2    0    0 -0.13934849826E-01  0.18242862124E-01  0.56841222244E-02  0.10202806596E+01  0.10200065357E+01 0.  0.
     999903    2    3    3    0    0 -0.77813748500E-01  0.10317560847E+00 -0.25900571882E-01  0.13332424687E+00  0.20107947190E-01 0.  0.
         14    1    1    2    0    0  0.13934849826E-01 -0.18242862124E-01 -0.56841222244E-02  0.23649340448E-01  0.00000000000E+00 0.  1.
     999901    1    3    3    0    0  0.63878898674E-01 -0.84932746347E-01  0.31584694106E-01  0.88695641268E+00  0.88000000000E+00 0.  1.
        -11    1    4    4    0    0 -0.21369687621E-01  0.39273892673E-01 -0.19263776836E-02  0.44755717475E-01  0.51100000000E-03 0.  1.
         11    1    4    4    0    0 -0.56444060880E-01  0.63901715799E-01 -0.23974194198E-01  0.88568529394E-01  0.51100000000E-03 0. -1.
</event>
<event>
 8    1  0.1094829E+005  0.1043930E+01  0.7957747E-01            NaN
         13   -1    0    0    0    0  0.00000000000E+00  0.00000000000E+00  0.74505805969E-08  0.10566000000E+00  0.10566000000E+00 0.  1.
     999900   -1    0    0    0    0 -0.00000000000E+00 -0.00000000000E+00 -0.74505805969E-08  0.93827000000E+00  0.93827000000E+00 0. -1.
     999902    2    1    2    0    0 -0.18956511991E-01 -0.55793688270E-02 -0.13035867225E-01  0.10202569660E+01  0.10199822862E+01 0.  0.
     999903    2    3    3    0    0  0.28417380826E-01 -0.50828720400E-01  0.11320111187E+00  0.12883811698E+00  0.19840925099E-01 0.  0.
         14    1    1    2    0    0  0.18956511991E-01  0.55793688270E-02  0.13035867225E-01  0.23673033977E-01  0.00000000000E+00 0.  1.
     999901    1    3    3    0    0 -0.47373892816E-01  0.45249351573E-01 -0.12623697909E+00  0.89141884904E+00  0.88000000000E+00 0.  1.
        -11    1    4    4    0    0  0.16968688984E-01 -0.21483446759E-01  0.34359157167E-01  0.43935039464E-01  0.51100000000E-03 0.  1.
         11    1    4    4    0    0  0.11448691842E-01 -0.29345273641E-01  0.78841954699E-01  0.84903077517E-01  0.51100000000E-03 0. -1.
</event>
<event>
 8    1  0.1094829E+005  0.1043930E+01  0.7957747E-01            NaN
         13   -1    0    0    0    0  0.00000000000E+00  0.00000000000E+00  0.74505805969E-08  0.10566000000E+00  0.10566000000E+00 0.  1.
     999900   -1    0    0    0    0 -0.00000000000E+00 -0.00000000000E+00 -0.74505805969E-08  0.93827000000E+00  0.93827000000E+00 0. -1.
     999902    2    1    2    0    0  0.13204720869E-01 -0.80090074218E-02  0.17646349982E-01  0.10204799996E+01  0.10202105307E+01 0.  0.
     999903    2    3    3    0    0 -0.19692307827E-01  0.12448398529E+00 -0.20036698402E-01  0.12915703915E+00  0.19900298897E-01 0.  0.
         14    1    1    2    0    0 -0.13204720869E-01  0.80090074218E-02 -0.17646349982E-01  0.23450000444E-01  0.00000000000E+00 0. -1.
     999901    1    3    3    0    0  0.32897028696E-01 -0.13249299272E+00  0.37683048384E-01  0.89132296041E+00  0.88000000000E+00 0.  1.
        -11    1    4    4    0    0  0.60372497387E-03  0.58318047659E-01 -0.72029464675E-02  0.58766510237E-01  0.51100000000E-03 0. -1.
         11    1    4    4    0    0 -0.20296032801E-01  0.66165937635E-01 -0.12833751934E-01  0.70390528911E-01  0.51100000000E-03 0.  1.
</event>
<event>
 8    1  0.1472849E+005  0.1043930E+01  0.7957747E-01            NaN
         13   -1    0    0    0    0  0.00000000000E+00  0.00000000000E+00  0.74505805969E-08  0.10566000000E+00  0.10566000000E+00 0.  1.
     999900   -1    0    0    0    0 -0.00000000000E+00 -0.00000000000E+00 -0.74505805969E-08  0.93827000000E+00  0.93827000000E+00 0.  1.
     999902    2    1    2    0    0  0.18217477321E-01  0.82586294414E-02  0.12962886611E-01  0.10200947767E+01  0.10198162754E+01 0.  0.
     999903    2    3    3    0    0 -0.77185966100E-01 -0.75121410203E-01 -0.66812974251E-01  0.12744801790E+00  0.13346314287E-01 0.  0.
         14    1    1    2    0    0 -0.18217477321E-01 -0.82586294414E-02 -0.12962886611E-01  0.23835223294E-01  0.00000000000E+00 0. -1.
     999901    1    3    3    0    0  0.95403443421E-01  0.83380039645E-01  0.79775860862E-01  0.89264675880E+00  0.88000000000E+00 0. -1.
        -11    1    4    4    0    0 -0.41735341258E-01 -0.32524241717E-01 -0.28813834190E-01  0.60250835437E-01  0.51100000000E-03 0.  1.
         11    1    4    4    0    0 -0.35450624842E-01 -0.42597168487E-01 -0.37999140061E-01  0.67197182465E-01  0.51100000000E-03 0. -1.
</event>
<event>
 8    1  0.1094829E+005  0.1043930E+01  0.7957747E-01            NaN
         13   -1    0    0    0    0  0.00000000000E+00  0.00000000000E+00  0.74505805969E-08  0.10566000000E+00  0.10566000000E+00 0. -1.
     999900   -1    0    0    0    0 -0.00000000000E+00 -0.00000000000E+00 -0.74505805969E-08  0.93827000000E+00  0.93827000000E+00 0.  1.
     999902    2    1    2    0    0 -0.16753520686E-02 -0.57533227759E-02 -0.22865527231E-01  0.10202923211E+01  0.10200184707E+01 0.  0.
     999903    2    3    3    0    0  0.28781058665E-02  0.12036454012E+00 -0.48398402362E-01  0.13092266960E+00  0.17390631172E-01 0.  0.
         14    1    1    2    0    0  0.16753520686E-02  0.57533227759E-02  0.22865527231E-01  0.23637678885E-01  0.00000000000E+00 0. -1.
     999901    1    3    3    0    0 -0.45534579351E-02 -0.12611786290E+00  0.25532875131E-01  0.88936965151E+00  0.88000000000E+00 0. -1.
        -11    1    4    4    0    0 -0.22139529292E-02  0.54344799923E-01 -0.13372533837E-01  0.56012004504E-01  0.51100000000E-03 0. -1.
         11    1    4    4    0    0  0.50920587957E-02  0.66019740198E-01 -0.35025868525E-01  0.74910665098E-01  0.51100000000E-03 0.  1.
</event>
<event>
 8    1  0.1094829E+005  0.1043930E+01  0.7957747E-01            NaN
         13   -1    0    0    0    0  0.00000000000E+00  0.00000000000E+00  0.74505805969E-08  0.10566000000E+00  0.10566000000E+00 0. -1.
     999900   -1    0    0    0    0 -0.00000000000E+00 -0.00000000000E+00 -0.74505805969E-08  0.93827000000E+00  0.93827000000E+00 0. -1.
     999902    2    1    2    0    0  0.18017136185E-01 -0.13002136641E-01  0.69819058639E-02  0.10206400931E+01  0.10203743332E+01 0.  0.
     999903    2    3    3    0    0  0.10876824176E+00  0.22907432778E-02 -0.73122613959E-01  0.13222219063E+00  0.17320886347E-01 0.  0.
         14    1    1    2    0    0 -0.18017136185E-01  0.13002136641E-01 -0.69819058639E-02  0.23289906892E-01  0.00000000000E+00 0.  1.
     999901    1    3    3    0    0 -0.90751105575E-01 -0.15292879919E-01  0.80104519822E-01  0.88841790247E+00  0.88000000000E+00 0.  1.
        -11    1    4    4    0    0  0.29168936219E-01 -0.33244473413E-02 -0.27882032773E-01  0.40491328243E-01  0.51100000000E-03 0. -1.
         11    1    4    4    0    0  0.79599305540E-01  0.56151906191E-02 -0.45240581185E-01  0.91730862392E-01  0.51100000000E-03 0.  1.
</event>
<event>
 8    1  0.1094829E+005  0.1043930E+01  0.7957747E-01            NaN
         13   -1    0    0    0    0  0.00000000000E+00  0.00000000000E+00  0.74505805969E-08  0.10566000000E+00  0.10566000000E+00 0. -1.
     999900   -1    0    0    0    0 -0.00000000000E+00 -0.00000000000E+00 -0.74505805969E-08  0.93827000000E+00  0.93827000000E+00 0. -1.
     999902    2    1    2    0    0  0.21547158365E-01 -0.23549658191E-02  0.83866229602E-02  0.10206886286E+01  0.10204239880E+01 0.  0.
     999903    2    3    3    0    0 -0.49313413636E-01  0.76213949509E-01 -0.89373882053E-01  0.12897600035E+00  0.20167771564E-01 0.  0.
         14    1    1    2    0    0 -0.21547158365E-01  0.23549658191E-02 -0.83866229602E-02  0.23241371351E-01  0.00000000000E+00 0. -1.
     999901    1    3    3    0    0  0.70860572001E-01 -0.78568915328E-01  0.97760505013E-01  0.89171262829E+00  0.88000000000E+00 0.  1.
        -11    1    4    4    0    0 -0.29508363652E-01  0.40566633437E-01 -0.62465193841E-01  0.80115896278E-01  0.51100000000E-03 0.  1.
         11    1    4    4    0    0 -0.19805049984E-01  0.35647316072E-01 -0.26908688212E-01  0.48860104076E-01  0.51100000000E-03 0. -1.
</event>
<event>
 8    1  0.1094829E+005  0.1043930E+01  0.7957747E-01            NaN
         13   -1    0    0    0    0  0.00000000000E+00  0.00000000000E+00  0.74505805969E-08  0.10566000000E+00  0.10566000000E+00 0.  1.
     999900   -1    0    0    0    0 -0.00000000000E+00 -0.00000000000E+00 -0.74505805969E-08  0.93827000000E+00  0.93827000000E+00 0. -1.
     999902    2    1    2    0    0 -0.15069583877E-02 -0.90350453320E-02 -0.20855677795E-01  0.10211514517E+01  0.10208973626E+01 0.  0.
     999903    2    3    3    0    0 -0.88468113015E-01  0.88560725770E-01  0.28894311160E-01  0.13010586454E+00  0.20568072342E-01 0.  0.
         14    1    1    2    0    0  0.15069583877E-02  0.90350453320E-02  0.20855677795E-01  0.22778548330E-01  0.00000000000E+00 0.  1.
     999901    1    3    3    0    0  0.86961154627E-01 -0.97595771102E-01 -0.49749988955E-01  0.89104558713E+00  0.88000000000E+00 0.  1.
        -11    1    4    4    0    0 -0.29985371064E-01  0.28614110697E-01 -0.18483560513E-03  0.41450996297E-01  0.51100000000E-03 0. -1.
         11    1    4    4    0    0 -0.58482741951E-01  0.59946615072E-01  0.29079146766E-01  0.88654868238E-01  0.51100000000E-03 0.  1.
</event>
<event>
 8    1  0.1094829E+005  0.1043930E+01  0.7957747E-01            NaN
         13   -1    0    0    0    0  0.00000000000E+00  0.00000000000E+00  0.74505805969E-08  0.10566000000E+00  0.10566000000E+00 0. -1.
     999900   -1    0    0    0    0 -0.00000000000E+00 -0.00000000000E+00 -0.74505805969E-08  0.93827000000E+00  0.93827000000E+00 0. -1.
     999902    2    1    2    0    0  0.13637730862E-02 -0.15779009297E-01 -0.17482690452E-01  0.10203401404E+01  0.10200674098E+01 0.  0.
     999903    2    3    3    0    0  0.54708619654E-01 -0.92496820969E-01  0.72110721277E-01  0.13086935688E+00  0.19445757696E-01 0.  0.
         14    1    1    2    0    0 -0.13637730862E-02  0.15779009297E-01  0.17482690452E-01  0.23589859619E-01  0.00000000000E+00 0. -1.
     999901    1    3    3    0    0 -0.53344846568E-01  0.76717811672E-01 -0.89593411728E-01  0.88947078350E+00  0.88000000000E+00 0. -1.
        -11    1    4    4    0    0  0.27611592006E-01 -0.31070711575E-01  0.33738824722E-01  0.53538383852E-01  0.51100000000E-03 0.  1.
         11    1    4    4    0    0  0.27097027648E-01 -0.61426109394E-01  0.38371896555E-01  0.77330973024E-01  0.51100000000E-03 0. -1.
</event>
<event>
 8    1  0.1094829E+005  0.1043930E+01  0.7957747E-01            NaN
         13   -1    0    0    0    0  0.00000000000E+00  0.00000000000E+00  0.74505805969E-08  0.10566000000E+00  0.10566000000E+00 0.  1.
     999900   -1    0    0    0    0 -0.00000000000E+00 -0.00000000000E+00 -0.74505805969E-08  0.93827000000E+00  0.93827000000E+00 0.  1.
     999902    2    1    2    0    0  0.57707622880E-02 -0.47015447311E-02 -0.22684750643E-01  0.10200552407E+01  0.10197758038E+01 0.  0.
     999903    2    3    3    0    0  0.39288189564E-01 -0.88480229889E-01  0.83066418960E-01  0.12914245265E+00  0.20135297331E-01 0.  0.
         14    1    1    2    0    0 -0.57707622880E-02  0.47015447311E-02  0.22684750643E-01  0.23874759307E-01  0.00000000000E+00 0.  1.
     999901    1    3    3    0    0 -0.33517427275E-01  0.83778685158E-01 -0.10575116960E+00  0.89091278804E+00  0.88000000000E+00 0.  1.
        -11    1    4    4    0    0  0.16348496759E-01 -0.46513494665E-01  0.54224891946E-01  0.73289689314E-01  0.51100000000E-03 0. -1.
         11    1    4    4    0    0  0.22939692805E-01 -0.41966735224E-01  0.28841527014E-01  0.55852763341E-01  0.51100000000E-03 0.  1.
</event>
<event>
 8    1  0.1094829E+005  0.1043930E+01  0.7957747E-01            NaN
         13   -1    0    0    0    0  0.00000000000E+00  0.00000000000E+00  0.74505805969E-08  0.10566000000E+00  0.10566000000E+00 0. -1.
     999900   -1    0    0    0    0 -0.00000000000E+00 -0.00000000000E+00 -0.74505805969E-08  0.93827000000E+00  0.93827000000E+00 0. -1.
     999902    2    1    2    0    0  0.10512585659E-01  0.19373494986E-01 -0.82712838427E-02  0.10203872537E+01  0.10201156242E+01 0.  0.
     999903    2    3    3    0    0 -0.47862275267E-01 -0.11022971033E+00 -0.41003231279E-01  0.12838052977E+00  0.18944894198E-01 0.  0.
         14    1    1    2    0    0 -0.10512585659E-01 -0.19373494986E-01  0.82712838427E-02  0.23542746264E-01  0.00000000000E+00 0.  1.
     999901    1    3    3    0    0  0.58374860927E-01  0.12960320531E+00  0.32731947437E-01  0.89200672397E+00  0.88000000000E+00 0.  1.
        -11    1    4    4    0    0 -0.29629309677E-01 -0.81013514782E-01 -0.36412431058E-01  0.93633390550E-01  0.51100000000E-03 0. -1.
         11    1    4    4    0    0 -0.18232965590E-01 -0.29216195546E-01 -0.45908002216E-02  0.34747139221E-01  0.51100000000E-03 0.  1.
</event>
<event>
 8    1  0.1094829E+005  0.1043930E+01  0.7957747E-01            NaN
         13   -1    0    0    0    0  0.00000000000E+00  0.00000000000E+00  0.74505805969E-08  0.10566000000E+00  0.10566000000E+00 0. -1.
     999900   -1    0    0    0    0 -0.00000000000E+00 -0.00000000000E+00 -0.74505805969E-08  0.93827000000E+00  0.93827000000E+00 0. -1.
     999902    2    1    2    0    0  0.74397747082E-02  0.12001537109E-01 -0.17346359811E-01  0.10215629855E+01  0.10213180944E+01 0.  0.
     999903    2    3    3    0    0 -0.62669868129E-01 -0.39734010181E-02 -0.11580519122E+00  0.13315727738E+00  0.19409222503E-01 0.  0.
         14    1    1    2    0    0 -0.74397747082E-02 -0.12001537109E-01  0.17346359811E-01  0.22367014539E-01  0.00000000000E+00 0.  1.
     999901    1    3    3    0    0  0.70109642837E-01  0.15974938127E-01  0.98458831413E-01  0.88840570808E+00  0.88000000000E+00 0.  1.
        -11    1    4    4    0    0 -0.56035681292E-01  0.27379619528E-02 -0.95512446451E-01  0.11077175886E+00  0.51100000000E-03 0. -1.
         11    1    4    4    0    0 -0.66341868375E-02 -0.67113629710E-02 -0.20292744773E-01  0.22385518518E-01  0.51100000000E-03 0.  1.
</event>
<event>
 8    1  0.1094829E+005  0.1043930E+01  0.7957747E-01            NaN
         13   -1    0    0    0    0  0.00000000000E+00  0.00000000000E+00  0.74505805969E-08  0.10566000000E+00  0.10566000000E+00 0.  1.
     999900   -1    0    0    0    0 -0.00000000000E+00 -0.00000000000E+00 -0.74505805969E-08  0.93827000000E+00  0.93827000000E+00 0. -1.
     999902    2    1    2    0    0 -0.71985084516E-02 -0.45225556121E-02 -0.23689066831E-01  0.10187616882E+01  0.10184507516E+01 0.  0.
     999903    2    3    3    0    0 -0.11859409570E+00  0.10035953741E-01  0.45235853492E-01  0.12894621758E+00  0.20385403725E-01 0.  0.
         14    1    1    2    0    0  0.71985084516E-02  0.45225556121E-02  0.23689066831E-01  0.25168311833E-01  0.00000000000E+00 0.  1.
     999901    1    3    3    0    0  0.11139558725E+00 -0.14558509353E-01 -0.68924920323E-01  0.88981547059E+00  0.88000000000E+00 0. -1.
        -11    1    4    4    0    0 -0.45605297217E-01  0.68189933570E-02  0.75200902177E-02  0.46724240845E-01  0.51100000000E-03 0. -1.
         11    1    4    4    0    0 -0.72988798482E-01  0.32169603843E-02  0.37715763274E-01  0.82221976736E-01  0.51100000000E-03 0.  1.
</event>
<event>
 8    1  0.1094829E+005  0.1043930E+01  0.7957747E-01            NaN
         13   -1    0    0    0    0  0.00000000000E+00  0.00000000000E+00  0.74505805969E-08  0.10566000000E+00  0.10566000000E+00 0.  1.
     999900   -1    0    0    0    0 -0.00000000000E+00 -0.00000000000E+00 -0.74505805969E-08  0.93827000000E+00  0.93827000000E+00 0.  1.
     999902    2    1    2    0    0 -0.76603444254E-03  0.16411419819E-01 -0.15843580082E-01  0.10211058781E+01  0.10208507598E+01 0.  0.
     999903    2    3    3    0    0 -0.82034258394E-01 -0.93676205053E-01 -0.32962381750E-01  0.13036637483E+00  0.20100301788E-01 0.  0.
         14    1    1    2    0    0  0.76603444254E-03 -0.16411419819E-01  0.15843580082E-01  0.22824121868E-01  0.00000000000E+00 0.  1.
     999901    1    3    3    0    0  0.81268223951E-01  0.11008762487E+00  0.17118801668E-01  0.89073950330E+00  0.88000000000E+00 0. -1.
        -11    1    4    4    0    0 -0.66636413585E-01 -0.62531788445E-01 -0.24044227552E-01  0.94493503381E-01  0.51100000000E-03 0. -1.
         11    1    4    4    0    0 -0.15397844809E-01 -0.31144416608E-01 -0.89181541980E-02  0.35872871448E-01  0.51100000000E-03 0.  1.
</event>
<event>
 8    1  0.1094829E+005  0.1043930E+01  0.7957747E-01            NaN
         13   -1    0    0    0    0  0.00000000000E+00  0.00000000000E+00  0.74505805969E-08  0.10566000000E+00  0.10566000000E+00 0. -1.
     999900   -1    0    0    0    0 -0.00000000000E+00 -0.00000000000E+00 -0.74505805969E-08  0.93827000000E+00  0.93827000000E+00 0. -1.
     999902    2    1    2    0    0  0.69412428088E-02 -0.22298246293E-01 -0.90688986615E-03  0.10205587551E+01  0.10202911141E+01 0.  0.
     999903    2    3    3    0    0  0.25254013490E-01  0.10841375221E+00  0.60969857755E-01  0.12856676184E+00  0.20512967362E-01 0.  0.
         14    1    1    2    0    0 -0.69412428088E-02  0.22298246293E-01  0.90688986615E-03  0.23371244912E-01  0.00000000000E+00 0. -1.
     999901    1    3    3    0    0 -0.18312770681E-01 -0.13071199850E+00 -0.61876747621E-01  0.89199199325E+00  0.88000000000E+00 0.  1.
        -11    1    4    4    0    0  0.17001335110E-01  0.35444813886E-01  0.26729718624E-01  0.47540711035E-01  0.51100000000E-03 0.  1.
         11    1    4    4    0    0  0.82526783792E-02  0.72968938323E-01  0.34240139131E-01  0.81026050805E-01  0.51100000000E-03 0. -1.
</event>
<event>
 8    1  0.1094829E+005  0.1043930E+01  0.7957747E-01            NaN
         13   -1    0    0    0    0  0.00000000000E+00  0.00000000000E+00  0.74505805969E-08  0.10566000000E+00  0.10566000000E+00 0.  1.
     999900   -1    0    0    0    0 -0.00000000000E+00 -0.00000000000E+00 -0.74505805969E-08  0.93827000000E+00  0.93827000000E+00 0.  1.
     999902    2    1    2    0    0 -0.14926255318E-01  0.17089712402E-01 -0.43806958927E-02  0.10208206542E+01  0.10205590459E+01 0.  0.
     999903    2    3    3    0    0  0.73068060038E-01  0.24245897926E-01  0.10287214125E+00  0.12992370077E+00  0.19253197452E-01 0.  0.
         14    1    1    2    0    0  0.14926255318E-01 -0.17089712402E-01  0.43806958927E-02  0.23109345821E-01  0.00000000000E+00 0.  1.
     999901    1    3    3    0    0 -0.87994315356E-01 -0.71561855244E-02 -0.10725283714E+00  0.89089695341E+00  0.88000000000E+00 0.  1.
        -11    1    4    4    0    0  0.50514942982E-01  0.18863701868E-01  0.56663451876E-01  0.78221522691E-01  0.51100000000E-03 0. -1.
         11    1    4    4    0    0  0.22553117057E-01  0.53821960575E-02  0.46208689370E-01  0.51702178074E-01  0.51100000000E-03 0.  1.
</event>
<event>
 8    1  0.1094829E+005  0.1043930E+01  0.7957747E-01            NaN
         13   -1    0    0    0    0  0.00000000000E+00  0.00000000000E+00  0.74505805969E-08  0.10566000000E+00  0.10566000000E+00 0.  1.
     999900   -1    0    0    0    0 -0.00000000000E+00 -0.00000000000E+00 -0.74505805969E-08  0.93827000000E+00  0.93827000000E+00 0.  1.
     999902    2    1    2    0    0  0.39159868946E-02  0.10084684274E-01  0.21465504420E-01  0.10198924525E+01  0.10196091462E+01 0.  0.
     999903    2    3    3    0    0  0.84020607850E-01  0.21167450897E-01 -0.93160271762E-01  0.12878154661E+00  0.19958130963E-01 0.  0.
         14    1    1    2    0    0 -0.39159868946E-02 -0.10084684274E-01 -0.21465504420E-01  0.24037547510E-01  0.00000000000E+00 0. -1.
     999901    1    3    3    0    0 -0.80104620955E-01 -0.11082766623E-01  0.11462577618E+00  0.89111090588E+00  0.88000000000E+00 0. -1.
        -11    1    4    4    0    0  0.60444462331E-01  0.20620022646E-01 -0.56974880206E-01  0.85586894183E-01  0.51100000000E-03 0. -1.
         11    1    4    4    0    0  0.23576145519E-01  0.54742825116E-03 -0.36185391556E-01  0.43194652427E-01  0.51100000000E-03 0.  1.
</event>
<event>
 8    1  0.1094829E+005  0.1043930E+01  0.7957747E-01            NaN
         13   -1    0    0    0    0  0.00000000000E+00  0.00000000000E+00  0.74505805969E-08  0.10566000000E+00  0.10566000000E+00 0. -1.
     999900   -1    0    0    0    0 -0.00000000000E+00 -0.00000000000E+00 -0.74505805969E-08  0.93827000000E+00  0.93827000000E+00 0. -1.
     999902    2    1    2    0    0  0.14019022109E-02  0.19667135397E-01 -0.13375064930E-01  0.10201045114E+01  0.10198262402E+01 0.  0.
     999903    2    3    3    0    0  0.65991374423E-01  0.50196511734E-01 -0.10186835059E+00  0.13278556969E+00  0.19501163454E-01 0.  0.
         14    1    1    2    0    0 -0.14019022109E-02 -0.19667135397E-01  0.13375064930E-01  0.23825488588E-01  0.00000000000E+00 0. -1.
     999901    1    3    3    0    0 -0.64589472212E-01 -0.30529376337E-01  0.88493285661E-01  0.88731894173E+00  0.88000000000E+00 0. -1.
        -11    1    4    4    0    0  0.49614321561E-01  0.27984160065E-01 -0.75807350305E-01  0.94824625493E-01  0.51100000000E-03 0.  1.
         11    1    4    4    0    0  0.16377052862E-01  0.22212351669E-01 -0.26061000286E-01  0.37960944193E-01  0.51100000000E-03 0. -1.
</event>
<event>
 7    1  0.1094829E+005  0.1043930E+01  0.7957747E-01            NaN
         13   -1    0    0    0    0  0.00000000000E+00  0.00000000000E+00  0.74505805969E-08  0.10566000000E+00  0.10566000000E+00 0. -1.
     999900   -1    0    0    0    0 -0.00000000000E+00 -0.00000000000E+00 -0.74505805969E-08  0.93827000000E+00  0.93827000000E+00 0. -1.
     999902    2    1    2    0    0  0.23200088211E-01 -0.56084726195E-03 -0.64509333986E-02  0.10198432156E+01  0.10195587335E+01 0.  0.
         14    1    1    2    0    0 -0.23200088211E-01  0.56084726195E-03  0.64509333986E-02  0.24086784434E-01  0.00000000000E+00 0. -1.
     999901    1    3    3    0    0  0.30511062081E-01  0.10441927154E-01 -0.12578879826E+00  0.88952952763E+00  0.88000000000E+00 0. -1.
        -11    1    3    3    0    0 -0.11188059025E-01  0.17973403766E-01  0.33497531981E-01  0.39630312609E-01  0.51100000000E-03 0. -1.
         11    1    3    3    0    0  0.38770851555E-02 -0.28976178181E-01  0.85840332880E-01  0.90683375330E-01  0.51100000000E-03 0.  1.
</event>
<event>
 8    1  0.1094829E+005  0.1043930E+01  0.7957747E-01            NaN
         13   -1    0    0    0    0  0.00000000000E+00  0.00000000000E+00  0.74505805969E-08  0.10566000000E+00  0.10566000000E+00 0. -1.
     999900   -1    0    0    0    0 -0.00000000000E+00 -0.00000000000E+00 -0.74505805969E-08  0.93827000000E+00  0.93827000000E+00 0.  1.
     999902    2    1    2    0    0 -0.56930190063E-02 -0.59525865335E-03 -0.17400007451E-01  0.10256126569E+01  0.10254490709E+01 0.  0.
     999903    2    3    3    0    0  0.11253396342E+00 -0.61012851817E-01 -0.39227362416E-01  0.13538552952E+00  0.20099617675E-01 0.  0.
         14    1    1    2    0    0  0.56930190063E-02  0.59525865335E-03  0.17400007451E-01  0.18317343082E-01  0.00000000000E+00 0.  1.
     999901    1    3    3    0    0 -0.11822698243E+00  0.60417593163E-01  0.21827354964E-01  0.89022712740E+00  0.88000000000E+00 0.  1.
        -11    1    4    4    0    0  0.84363809694E-01 -0.36844018778E-01 -0.32702389852E-01  0.97695657676E-01  0.51100000000E-03 0.  1.
         11    1    4    4    0    0  0.28170153726E-01 -0.24168833039E-01 -0.65249725635E-02  0.37689871840E-01  0.51100000000E-03 0. -1.
</event>
<event>
 8    1  0.1094829E+005  0.1043930E+01  0.7957747E-01            NaN
         13   -1    0    0    0    0  0.00000000000E+00  0.00000000000E+00  0.74505805969E-08  0.10566000000E+00  0.10566000000E+00 0.  1.
     999900   -1    0    0    0    0 -0.00000000000E+00 -0.00000000000E+00 -0.74505805969E-08  0.93827000000E+00  0.93827000000E+00 0. -1.
     999902    2    1    2    0    0  0.12698245378E-01  0.52467061421E-02 -0.18822671677E-01  0.10206262164E+01  0.10203601361E+01 0.  0.
     999903    2    3    3    0    0 -0.74976434511E-01  0.64801851161E-01  0.80872134843E-01  0.12867738421E+00  0.14029303910E-01 0.  0.
         14    1    1    2    0    0 -0.12698245378E-01 -0.52467061421E-02  0.18822671677E-01  0.23303783600E-01  0.00000000000E+00 0.  1.
     999901    1    3    3    0    0  0.87674679889E-01 -0.59555145019E-01 -0.99694806519E-01  0.89194883219E+00  0.88000000000E+00 0. -1.
        -11    1    4    4    0    0 -0.26905263535E-01  0.19590536805E-01  0.35041163394E-01  0.48330389935E-01  0.51100000000E-03 0.  1.
         11    1    4    4    0    0 -0.48071170976E-01  0.45211314356E-01  0.45830971448E-01  0.80346994279E-01  0.51100000000E-03 0. -1.
</event>
<event>
 8    1  0.1094829E+005  0.1043930E+01  0.7957747E-01            NaN
         13   -1    0    0    0    0  0.00000000000E+00  0.00000000000E+00  0.74505805969E-08  0.10566000000E+00  0.10566000000E+00 0. -1.
     999900   -1    0    0    0    0 -0.00000000000E+00 -0.00000000000E+00 -0.74505805969E-08  0.93827000000E+00  0.93827000000E+00 0. -1.
     999902    2    1    2    0    0 -0.63860873116E-02  0.17896114411E-01 -0.13916602536E-01  0.10203774025E+01  0.10201055429E+01 0.  0.
     999903    2    3    3    0    0 -0.10114890252E+00 -0.54359416632E-02  0.79187213621E-01  0.13010064972E+00  0.19872451120E-01 0.  0.
         14    1    1    2    0    0  0.63860873116E-02 -0.17896114411E-01  0.13916602536E-01  0.23552597486E-01  0.00000000000E+00 0. -1.
     999901    1    3    3    0    0  0.94762815207E-01  0.23332056075E-01 -0.93103816157E-01  0.89027675280E+00  0.88000000000E+00 0. -1.
        -11    1    4    4    0    0 -0.55456582855E-01  0.50809167325E-02  0.35715431918E-01  0.66159666677E-01  0.51100000000E-03 0. -1.
         11    1    4    4    0    0 -0.45692319664E-01 -0.10516858396E-01  0.43471781703E-01  0.63940983041E-01  0.51100000000E-03 0.  1.
</event>
<event>
 8    1  0.1094829E+005  0.1043930E+01  0.7957747E-01            NaN
         13   -1    0    0    0    0  0.00000000000E+00  0.00000000000E+00  0.74505805969E-08  0.10566000000E+00  0.10566000000E+00 0. -1.
     999900   -1    0    0    0    0 -0.00000000000E+00 -0.00000000000E+00 -0.74505805969E-08  0.93827000000E+00  0.93827000000E+00 0. -1.
     999902    2    1    2    0    0 -0.14486481631E-01  0.86109978117E-02 -0.16540043637E-01  0.10203168580E+01  0.10200435825E+01 0.  0.
     999903    2    3    3    0    0 -0.58324210206E-01  0.11402858520E+00  0.26816862902E-01  0.13188316009E+00  0.16425347512E-01 0.  0.
         14    1    1    2    0    0  0.14486481631E-01 -0.86109978117E-02  0.16540043637E-01  0.23613142037E-01  0.00000000000E+00 0. -1.
     999901    1    3    3    0    0  0.43837728575E-01 -0.10541758738E+00 -0.43356906539E-01  0.88843369788E+00  0.88000000000E+00 0.  1.
        -11    1    4    4    0    0 -0.16978598168E-01  0.26952559142E-01  0.11663090202E-03  0.31858875747E-01  0.51100000000E-03 0.  1.
         11    1    4    4    0    0 -0.41345612037E-01  0.87076026054E-01  0.26700232000E-01  0.10002428434E+00  0.51100000000E-03 0. -1.
</event>
<event>
 8    1  0.1094829E+005  0.1043930E+01  0.7957747E-01            NaN
         13   -1    0    0    0    0  0.00000000000E+00  0.00000000000E+00  0.74505805969E-08  0.10566000000E+00  0.10566000000E+00 0.  1.
     999900   -1    0    0    0    0 -0.00000000000E+00 -0.00000000000E+00 -0.74505805969E-08  0.93827000000E+00  0.93827000000E+00 0. -1.
     999902    2    1    2    0    0 -0.42850420106E-02  0.19054596986E-01 -0.13175561543E-01  0.10203708261E+01  0.10200988129E+01 0.  0.
     999903    2    3    3    0    0 -0.83951081223E-01  0.98889795888E-01  0.19107618211E-01  0.13258563788E+00  0.19669126286E-01 0.  0.
         14    1    1    2    0    0  0.42850420106E-02 -0.19054596986E-01  0.13175561543E-01  0.23559173867E-01  0.00000000000E+00 0.  1.
     999901    1    3    3    0    0  0.79666039213E-01 -0.79835198902E-01 -0.32283179754E-01  0.88778518825E+00  0.88000000000E+00 0. -1.
        -11    1    4    4    0    0 -0.34606676450E-01  0.30933361308E-01  0.13833644217E-01  0.48436822048E-01  0.51100000000E-03 0. -1.
         11    1    4    4    0    0 -0.49344404773E-01  0.67956434579E-01  0.52739739942E-02  0.84148815831E-01  0.51100000000E-03 0.  1.
</event>
<event>
 8    1  0.1094829E+005  0.1043930E+01  0.7957747E-01            NaN
         13   -1    0    0    0    0  0.00000000000E+00  0.00000000000E+00  0.74505805969E-08  0.10566000000E+00  0.10566000000E+00 0. -1.
     999900   -1    0    0    0    0 -0.00000000000E+00 -0.00000000000E+00 -0.74505805969E-08  0.93827000000E+00  0.93827000000E+00 0. -1.
     999902    2    1    2    0    0  0.23621279175E-01  0.31210015822E-02 -0.88727456893E-03  0.10200869143E+01  0.10198082270E+01 0.  0.
     999903    2    3    3    0    0 -0.27432551443E-01  0.11127102065E+00 -0.58908625429E-01  0.13010410691E+00  0.17974080521E-01 0.  0.
         14    1    1    2    0    0 -0.23621279175E-01 -0.31210015822E-02  0.88727456893E-03  0.23843085726E-01  0.00000000000E+00 0. -1.
     999901    1    3    3    0    0  0.51053830618E-01 -0.10815001907E+00  0.58021350860E-01  0.88998280736E+00  0.88000000000E+00 0. -1.
        -11    1    4    4    0    0 -0.98296828380E-02  0.49212694598E-01 -0.16193339316E-01  0.52735162212E-01  0.51100000000E-03 0. -1.
         11    1    4    4    0    0 -0.17602868605E-01  0.62058326051E-01 -0.42715286113E-01  0.77368944700E-01  0.51100000000E-03 0.  1.
</event>
<event>
 8    1  0.1094829E+005  0.1043930E+01  0.7957747E-01            NaN
         13   -1    0    0    0    0  0.00000000000E+00  0.00000000000E+00  0.74505805969E-08  0.10566000000E+00  0.10566000000E+00 0. -1.
     999900   -1    0    0    0    0 -0.00000000000E+00 -0.00000000000E+00 -0.74505805969E-08  0.93827000000E+00  0.93827000000E+00 0.  1.
     999902    2    1    2    0    0 -0.18422271953E-01  0.80813436877E-02 -0.11914756850E-01  0.10205494600E+01  0.10202816036E+01 0.  0.
     999903    2    3    3    0    0  0.33787073439E-01  0.87132341125E-01  0.88079752215E-01  0.12983414197E+00  0.19111527114E-01 0.  0.
         14    1    1    2    0    0  0.18422271953E-01 -0.80813436877E-02  0.11914756850E-01  0.23380539996E-01  0.00000000000E+00 0. -1.
     999901    1    3    3    0    0 -0.52209345392E-01 -0.79050997437E-01 -0.99994509065E-01  0.89071531804E+00  0.88000000000E+00 0. -1.
        -11    1    4    4    0    0  0.22115486038E-01  0.76116336877E-01  0.71410139650E-01  0.10668861527E+00  0.51100000000E-03 0. -1.
         11    1    4    4    0    0  0.11671587401E-01  0.11016004248E-01  0.16669612565E-01  0.23145526697E-01  0.51100000000E-03 0.  1.
</event>
<event>
 8    1  0.1094829E+005  0.1043930E+01  0.7957747E-01            NaN
         13   -1    0    0    0    0  0.00000000000E+00  0.00000000000E+00  0.74505805969E-08  0.10566000000E+00  0.10566000000E+00 0.  1.
     999900   -1    0    0    0    0 -0.00000000000E+00 -0.00000000000E+00 -0.74505805969E-08  0.93827000000E+00  0.93827000000E+00 0. -1.
     999902    2    1    2    0    0 -0.13362984328E-01 -0.18578627154E-01 -0.55620171760E-02  0.10203785505E+01  0.10201067178E+01 0.  0.
     999903    2    3    3    0    0 -0.68489522357E-01  0.88491937197E-01  0.61255779618E-01  0.12966666731E+00  0.23227923975E-01 0.  0.
         14    1    1    2    0    0  0.13362984328E-01  0.18578627154E-01  0.55620171760E-02  0.23551449471E-01  0.00000000000E+00 0. -1.
     999901    1    3    3    0    0  0.55126538029E-01 -0.10707056435E+00 -0.66817796794E-01  0.89071188322E+00  0.88000000000E+00 0. -1.
        -11    1    4    4    0    0 -0.22492513222E-01  0.42111047686E-01  0.16640474327E-01  0.50561052155E-01  0.51100000000E-03 0. -1.
         11    1    4    4    0    0 -0.45997009135E-01  0.46380889512E-01  0.44615305291E-01  0.79105615152E-01  0.51100000000E-03 0.  1.
</event>
<event>
 8    1  0.1094829E+005  0.1043930E+01  0.7957747E-01            NaN
         13   -1    0    0    0    0  0.00000000000E+00  0.00000000000E+00  0.74505805969E-08  0.10566000000E+00  0.10566000000E+00 0. -1.
     999900   -1    0    0    0    0 -0.00000000000E+00 -0.00000000000E+00 -0.74505805969E-08  0.93827000000E+00  0.93827000000E+00 0.  1.
     999902    2    1    2    0    0 -0.68635483331E-02  0.20209336832E-01 -0.11554365899E-01  0.10196600811E+01  0.10193712043E+01 0.  0.
     999903    2    3    3    0    0 -0.68369315247E-01  0.59943804322E-01 -0.94653100054E-01  0.13271747481E+00  0.19674751008E-01 0.  0.
         14    1    1    2    0    0  0.68635483331E-02 -0.20209336832E-01  0.11554365899E-01  0.24269918876E-01  0.00000000000E+00 0. -1.
     999901    1    3    3    0    0  0.61505766913E-01 -0.39734467490E-01  0.83098734155E-01  0.88694260631E+00  0.88000000000E+00 0. -1.
        -11    1    4    4    0    0 -0.38579324190E-01  0.21336939727E-01 -0.49008216091E-01  0.65921890274E-01  0.51100000000E-03 0. -1.
         11    1    4    4    0    0 -0.29789991056E-01  0.38606864595E-01 -0.45644883963E-01  0.66795584539E-01  0.51100000000E-03 0.  1.
</event>
<event>
 8    1  0.1094829E+005  0.1043930E+01  0.7957747E-01            NaN
         13   -1    0    0    0    0  0.00000000000E+00  0.00000000000E+00  0.74505805969E-08  0.10566000000E+00  0.10566000000E+00 0.  1.
     999900   -1    0    0    0    0 -0.00000000000E+00 -0.00000000000E+00 -0.74505805969E-08  0.93827000000E+00  0.93827000000E+00 0.  1.
     999902    2    1    2    0    0 -0.15706085931E-01 -0.92324914049E-02  0.14876378152E-01  0.10204092292E+01  0.10201381124E+01 0.  0.
     999903    2    3    3    0    0  0.72571160249E-01 -0.89318111784E-01 -0.56210485288E-01  0.12953330015E+00  0.19363852875E-01 0.  0.
         14    1    1    2    0    0  0.15706085931E-01  0.92324914049E-02 -0.14876378152E-01  0.23520770815E-01  0.00000000000E+00 0. -1.
     999901    1    3    3    0    0 -0.88277246180E-01  0.80085620379E-01  0.71086863441E-01  0.89087592904E+00  0.88000000000E+00 0. -1.
        -11    1    4    4    0    0  0.17663242506E-01 -0.29660085579E-01 -0.25115015062E-01  0.42693511391E-01  0.51100000000E-03 0. -1.
         11    1    4    4    0    0  0.54907917743E-01 -0.59658026205E-01 -0.31095470227E-01  0.86839788756E-01  0.51100000000E-03 0.  1.
</event>
<event>
 8    1  0.1094829E+005  0.1043930E+01  0.7957747E-01            NaN
         13   -1    0    0    0    0  0.00000000000E+00  0.00000000000E+00  0.74505805969E-08  0.10566000000E+00  0.10566000000E+00 0.  1.
     999900   -1    0    0    0    0 -0.00000000000E+00 -0.00000000000E+00 -0.74505805969E-08  0.93827000000E+00  0.93827000000E+00 0.  1.
     999902    2    1    2    0    0 -0.30981467711E-02  0.22749358431E-01 -0.69706426125E-02  0.10199357990E+01  0.10196535257E+01 0.  0.
     999903    2    3    3    0    0 -0.66403673915E-02  0.11257574554E+00 -0.68053454999E-01  0.13324958782E+00  0.20168960171E-01 0.  0.
         14    1    1    2    0    0  0.30981467711E-02 -0.22749358431E-01  0.69706426125E-02  0.23994200984E-01  0.00000000000E+00 0.  1.
     999901    1    3    3    0    0  0.35422206204E-02 -0.89826387113E-01  0.61082812386E-01  0.88668621119E+00  0.88000000000E+00 0. -1.
        -11    1    4    4    0    0 -0.68144248707E-02  0.98164077919E-01 -0.66454233784E-01  0.11873941590E+00  0.51100000000E-03 0. -1.
         11    1    4    4    0    0  0.17405747917E-03  0.14411667624E-01 -0.15992212152E-02  0.14510171922E-01  0.51100000000E-03 0.  1.
</event>
<event>
 8    1  0.1094829E+005  0.1043930E+01  0.7957747E-01            NaN
         13   -1    0    0    0    0  0.00000000000E+00  0.00000000000E+00  0.74505805969E-08  0.10566000000E+00  0.10566000000E+00 0. -1.
     999900   -1    0    0    0    0 -0.00000000000E+00 -0.00000000000E+00 -0.74505805969E-08  0.93827000000E+00  0.93827000000E+00 0. -1.
     999902    2    1    2    0    0  0.51437556632E-02 -0.20080338516E-01  0.12240202218E-01  0.10198571778E+01  0.10195730295E+01 0.  0.
     999903    2    3    3    0    0  0.77852305689E-01  0.73446721032E-01 -0.67969436192E-01  0.12830379736E+00  0.19662599778E-01 0.  0.
         14    1    1    2    0    0 -0.51437556632E-02  0.20080338516E-01 -0.12240202218E-01  0.24072822177E-01  0.00000000000E+00 0. -1.
     999901    1    3    3    0    0 -0.72708550026E-01 -0.93527059548E-01  0.80209638410E-01  0.89155338046E+00  0.88000000000E+00 0.  1.
        -11    1    4    4    0    0  0.38789938904E-01  0.33292044872E-01 -0.43689034955E-01  0.67245910718E-01  0.51100000000E-03 0.  1.
         11    1    4    4    0    0  0.39062366785E-01  0.40154676160E-01 -0.24280401237E-01  0.61057886645E-01  0.51100000000E-03 0. -1.
</event>
<event>
 7    1  0.1094829E+005  0.1043930E+01  0.7957747E-01            NaN
         13   -1    0    0    0    0  0.00000000000E+00  0.00000000000E+00  0.74505805969E-08  0.10566000000E+00  0.10566000000E+00 0.  1.
     999900   -1    0    0    0    0 -0.00000000000E+00 -0.00000000000E+00 -0.74505805969E-08  0.93827000000E+00  0.93827000000E+00 0. -1.
     999902    2    1    2    0    0  0.23863427485E-02  0.18623389938E-01 -0.13040687691E-01  0.10210698858E+01  0.10208139531E+01 0.  0.
         14    1    1    2    0    0 -0.23863427485E-02 -0.18623389938E-01  0.13040687691E-01  0.22860114172E-01  0.00000000000E+00 0.  1.
     999901    1    3    3    0    0 -0.52659155237E-01  0.52660465092E-02  0.10051993742E+00  0.88730207691E+00  0.88000000000E+00 0.  1.
        -11    1    3    3    0    0  0.53326125892E-02 -0.57352742436E-02 -0.51040400176E-01  0.51640233334E-01  0.51100000000E-03 0. -1.
         11    1    3    3    0    0  0.49712885396E-01  0.19092617672E-01 -0.62520224934E-01  0.82127575581E-01  0.51100000000E-03 0.  1.
</event>
<event>
 8    1  0.1094829E+005  0.1043930E+01  0.7957747E-01            NaN
         13   -1    0    0    0    0  0.00000000000E+00  0.00000000000E+00  0.74505805969E-08  0.10566000000E+00  0.10566000000E+00 0.  1.
     999900   -1    0    0    0    0 -0.00000000000E+00 -0.00000000000E+00 -0.74505805969E-08  0.93827000000E+00  0.93827000000E+00 0. -1.
     999902    2    1    2    0    0  0.55529430709E-02  0.27812416498E-02  0.15156176802E-01  0.10275507394E+01  0.10274201876E+01 0.  0.
     999903    2    3    3    0    0 -0.36603293090E-01  0.58831065886E-01 -0.11441952154E+00  0.13530156310E+00  0.20341845750E-01 0.  0.
         14    1    1    2    0    0 -0.55529430709E-02 -0.27812416498E-02 -0.15156176802E-01  0.16379260579E-01  0.00000000000E+00 0. -1.
     999901    1    3    3    0    0  0.42156236161E-01 -0.56049824236E-01  0.12957569835E+00  0.89224917632E+00  0.88000000000E+00 0.  1.
        -11    1    4    4    0    0 -0.30641225082E-01  0.44579405317E-01 -0.10206047138E+00  0.11551107736E+00  0.51100000000E-03 0. -1.
         11    1    4    4    0    0 -0.59620680078E-02  0.14251660569E-01 -0.12359050159E-01  0.19790485738E-01  0.51100000000E-03 0.  1.
</event>
<event>
 8    1  0.1094829E+005  0.1043930E+01  0.7957747E-01            NaN
         13   -1    0    0    0    0  0.00000000000E+00  0.00000000000E+00  0.74505805969E-08  0.10566000000E+00  0.10566000000E+00 0.  1.
     999900   -1    0    0    0    0 -0.00000000000E+00 -0.00000000000E+00 -0.74505805969E-08  0.93827000000E+00  0.93827000000E+00 0.  1.
     999902    2    1    2    0    0  0.19882252938E-01 -0.41641026632E-02  0.11100565795E-01  0.10207812140E+01  0.10205187017E+01 0.  0.
     999903    2    3    3    0    0  0.86144330237E-01 -0.95829255793E-01 -0.24887169711E-01  0.13281258825E+00  0.20389224699E-01 0.  0.
         14    1    1    2    0    0 -0.19882252938E-01  0.41641026632E-02 -0.11100565795E-01  0.23148786012E-01  0.00000000000E+00 0. -1.
     999901    1    3    3    0    0 -0.66262077299E-01  0.91665153130E-01  0.35987735506E-01  0.88796862574E+00  0.88000000000E+00 0. -1.
        -11    1    4    4    0    0  0.58430109130E-01 -0.62170063898E-01 -0.67471159799E-02  0.85586092288E-01  0.51100000000E-03 0. -1.
         11    1    4    4    0    0  0.27714221106E-01 -0.33659191895E-01 -0.18140053731E-01  0.47226495962E-01  0.51100000000E-03 0.  1.
</event>
<event>
 8    1  0.1094829E+005  0.1043930E+01  0.7957747E-01            NaN
         13   -1    0    0    0    0  0.00000000000E+00  0.00000000000E+00  0.74505805969E-08  0.10566000000E+00  0.10566000000E+00 0. -1.
     999900   -1    0    0    0    0 -0.00000000000E+00 -0.00000000000E+00 -0.74505805969E-08  0.93827000000E+00  0.93827000000E+00 0. -1.
     999902    2    1    2    0    0 -0.23505920857E-02  0.81203871890E-02  0.22213999026E-01  0.10201617917E+01  0.10198848727E+01 0.  0.
     999903    2    3    3    0    0  0.12198869197E-01  0.12892540420E+00 -0.66468355487E-02  0.13132069979E+00  0.20745445628E-01 0.  0.
         14    1    1    2    0    0  0.23505920857E-02 -0.81203871890E-02 -0.22213999026E-01  0.23768208262E-01  0.00000000000E+00 0.  1.
     999901    1    3    3    0    0 -0.14549461283E-01 -0.12080501701E+00  0.28860834575E-01  0.88884109195E+00  0.88000000000E+00 0. -1.
        -11    1    4    4    0    0  0.82064406910E-02  0.97599146843E-01  0.38999767840E-02  0.98022497791E-01  0.51100000000E-03 0. -1.
         11    1    4    4    0    0  0.39924285062E-02  0.31326257354E-01 -0.10546812333E-01  0.33298202002E-01  0.51100000000E-03 0.  1.
</event>
<event>
 8    1  0.1094829E+005  0.1043930E+01  0.7957747E-01            NaN
         13   -1    0    0    0    0  0.00000000000E+00  0.00000000000E+00  0.74505805969E-08  0.10566000000E+00  0.10566000000E+00 0. -1.
     999900   -1    0    0    0    0 -0.00000000000E+00 -0.00000000000E+00 -0.74505805969E-08  0.93827000000E+00  0.93827000000E+00 0. -1.
     999902    2    1    2    0    0  0.23335519798E-01 -0.65471901076E-02 -0.33957040807E-02  0.10194566882E+01  0.10191628899E+01 0.  0.
     999903    2    3    3    0    0 -0.67079786658E-01  0.97901150167E-01  0.39772636177E-01  0.12763389809E+00  0.24984322490E-01 0.  0.
         14    1    1    2    0    0 -0.23335519798E-01  0.65471901076E-02  0.33957040807E-02  0.24473311765E-01  0.00000000000E+00 0. -1.
     999901    1    3    3    0    0  0.90415306456E-01 -0.10444834027E+00 -0.43168340257E-01  0.89182279015E+00  0.88000000000E+00 0. -1.
        -11    1    4    4    0    0 -0.89008359787E-02  0.27080619644E-01  0.16993944078E-01  0.33190964098E-01  0.51100000000E-03 0. -1.
         11    1    4    4    0    0 -0.58178950679E-01  0.70820530523E-01  0.22778692099E-01  0.94442933989E-01  0.51100000000E-03 0.  1.
</event>
<event>
 8    1  0.1094829E+005  0.1043930E+01  0.7957747E-01            NaN
         13   -1    0    0    0    0  0.00000000000E+00  0.00000000000E+00  0.74505805969E-08  0.10566000000E+00  0.10566000000E+00 0. -1.
     999900   -1    0    0    0    0 -0.00000000000E+00 -0.00000000000E+00 -0.74505805969E-08  0.93827000000E+00  0.93827000000E+00 0. -1.
     999902    2    1    2    0    0 -0.75779580129E-02  0.19392703066E-01  0.10854728005E-01  0.10204496359E+01  0.10201794606E+01 0.  0.
     999903    2    3    3    0    0 -0.12805636284E+00  0.24978087594E-01  0.51252315191E-02  0.13220469798E+00  0.20723832797E-01 0.  0.
         14    1    1    2    0    0  0.75779580129E-02 -0.19392703066E-01 -0.10854728005E-01  0.23480364135E-01  0.00000000000E+00 0.  1.
     999901    1    3    3    0    0  0.12047840483E+00 -0.55853845280E-02  0.57294964858E-02  0.88824493789E+00  0.88000000000E+00 0.  1.
        -11    1    4    4    0    0 -0.28457406221E-01 -0.23818659987E-02 -0.22630959056E-02  0.28651003098E-01  0.51100000000E-03 0. -1.
         11    1    4    4    0    0 -0.99598956620E-01  0.27359953593E-01  0.73883274247E-02  0.10355369488E+00  0.51100000000E-03 0.  1.
</event>
<event>
 8    1  0.1094829E+005  0.1043930E+01  0.7957747E-01            NaN
         13   -1    0    0    0    0  0.00000000000E+00  0.00000000000E+00  0.74505805969E-08  0.10566000000E+00  0.10566000000E+00 0.  1.
     999900   -1    0    0    0    0 -0.00000000000E+00 -0.00000000000E+00 -0.74505805969E-08  0.93827000000E+00  0.93827000000E+00 0.  1.
     999902    2    1    2    0    0 -0.19929322013E-01  0.10166528747E-01 -0.71518655496E-02  0.10204420166E+01  0.10201716639E+01 0.  0.
     999903    2    3    3    0    0  0.48256071950E-01  0.11260236510E+00 -0.42625924378E-01  0.13117222776E+00  0.19525439862E-01 0.  0.
         14    1    1    2    0    0  0.19929322013E-01 -0.10166528747E-01  0.71518655496E-02  0.23487983385E-01  0.00000000000E+00 0. -1.
     999901    1    3    3    0    0 -0.68185393963E-01 -0.10243583635E+00  0.35474058829E-01  0.88926978885E+00  0.88000000000E+00 0. -1.
        -11    1    4    4    0    0  0.23882294729E-01  0.78843588187E-01 -0.26971698130E-01  0.86685690980E-01  0.51100000000E-03 0. -1.
         11    1    4    4    0    0  0.24373777221E-01  0.33758776908E-01 -0.15654226248E-01  0.44486536781E-01  0.51100000000E-03 0.  1.
</event>
<event>
 8    1  0.1094829E+005  0.1043930E+01  0.7957747E-01            NaN
         13   -1    0    0    0    0  0.00000000000E+00  0.00000000000E+00  0.74505805969E-08  0.10566000000E+00  0.10566000000E+00 0.  1.
     999900   -1    0    0    0    0 -0.00000000000E+00 -0.00000000000E+00 -0.74505805969E-08  0.93827000000E+00  0.93827000000E+00 0.  1.
     999902    2    1    2    0    0  0.21828319812E-02  0.22194859035E-01  0.36553930115E-04  0.10216280301E+01  0.10213845770E+01 0.  0.
     999903    2    3    3    0    0  0.11972928366E+00  0.53828664625E-01  0.99814785671E-02  0.13319301987E+00  0.20202082247E-01 0.  0.
         14    1    1    2    0    0 -0.21828319812E-02 -0.22194859035E-01 -0.36553930115E-04  0.22301969850E-01  0.00000000000E+00 0.  1.
     999901    1    3    3    0    0 -0.11754645168E+00 -0.31633805590E-01 -0.99449246370E-02  0.88843501028E+00  0.88000000000E+00 0.  1.
        -11    1    4    4    0    0  0.40082945066E-01  0.14306827012E-01  0.12113690031E-01  0.44253026919E-01  0.51100000000E-03 0. -1.
         11    1    4    4    0    0  0.79646338596E-01  0.39521837612E-01 -0.21322114640E-02  0.88939992954E-01  0.51100000000E-03 0.  1.
</event>
<event>
 8    1  0.1094829E+005  0.1043930E+01  0.7957747E-01            NaN
         13   -1    0    0    0    0  0.00000000000E+00  0.00000000000E+00  0.74505805969E-08  0.10566000000E+00  0.10566000000E+00 0. -1.
     999900   -1    0    0    0    0 -0.00000000000E+00 -0.00000000000E+00 -0.74505805969E-08  0.93827000000E+00  0.93827000000E+00 0. -1.
     999902    2    1    2    0    0 -0.22117926526E-01 -0.70229635359E-02  0.37084938066E-02  0.10204294124E+01  0.10201587661E+01 0.  0.
     999903    2    3    3    0    0 -0.11049316949E-02  0.12726890009E+00 -0.17119367007E-01  0.12975009281E+00  0.18531596018E-01 0.  0.
         14    1    1    2    0    0  0.22117926526E-01  0.70229635359E-02 -0.37084938066E-02  0.23500587587E-01  0.00000000000E+00 0.  1.
     999901    1    3    3    0    0 -0.21012994831E-01 -0.13429186363E+00  0.20827860814E-01  0.89067931961E+00  0.88000000000E+00 0. -1.
        -11    1    4    4    0    0 -0.79605167975E-02  0.30468527051E-01 -0.22793271894E-02  0.31577799508E-01  0.51100000000E-03 0.  1.
         11    1    4    4    0    0  0.68555851026E-02  0.96800373044E-01 -0.14840039818E-01  0.98172293298E-01  0.51100000000E-03 0. -1.
</event>
<event>
 8    1  0.1094829E+005  0.1043930E+01  0.7957747E-01            NaN
         13   -1    0    0    0    0  0.00000000000E+00  0.00000000000E+00  0.74505805969E-08  0.10566000000E+00  0.10566000000E+00 0. -1.
     999900   -1    0    0    0    0 -0.00000000000E+00 -0.00000000000E+00 -0.74505805969E-08  0.93827000000E+00  0.93827000000E+00 0.  1.
     999902    2    1    2    0    0  0.12435806063E-01  0.28670917579E-03  0.21785123003E-01  0.10188436878E+01  0.10185347992E+01 0.  0.
     999903    2    3    3    0    0  0.35578594376E-01 -0.58718615898E-01  0.11108649325E+00  0.13205625457E+00  0.19619713503E-01 0.  0.
         14    1    1    2    0    0 -0.12435806063E-01 -0.28670917579E-03 -0.21785123003E-01  0.25086312181E-01  0.00000000000E+00 0.  1.
     999901    1    3    3    0    0 -0.23142788313E-01  0.59005325074E-01 -0.89301370247E-01  0.88678743325E+00  0.88000000000E+00 0.  1.
        -11    1    4    4    0    0  0.28156043214E-01 -0.27813607247E-01  0.63693493935E-01  0.74989878038E-01  0.51100000000E-03 0.  1.
         11    1    4    4    0    0  0.74225511621E-02 -0.30905008651E-01  0.47392999315E-01  0.57066376533E-01  0.51100000000E-03 0. -1.
</event>
<event>
 8    1  0.1094829E+005  0.1043930E+01  0.7957747E-01            NaN
         13   -1    0    0    0    0  0.00000000000E+00  0.00000000000E+00  0.74505805969E-08  0.10566000000E+00  0.10566000000E+00 0.  1.
     999900   -1    0    0    0    0 -0.00000000000E+00 -0.00000000000E+00 -0.74505805969E-08  0.93827000000E+00  0.93827000000E+00 0. -1.
     999902    2    1    2    0    0  0.27701204438E-02 -0.19030111155E-01 -0.16336268488E-01  0.10186972363E+01  0.10183846851E+01 0.  0.
     999903    2    3    3    0    0 -0.44365837692E-01  0.83027572378E-01  0.81580134708E-01  0.12615861450E+00  0.19969284030E-01 0.  0.
         14    1    1    2    0    0 -0.27701204438E-02  0.19030111155E-01  0.16336268488E-01  0.25232763740E-01  0.00000000000E+00 0.  1.
     999901    1    3    3    0    0  0.47135958136E-01 -0.10205768353E+00 -0.97916403196E-01  0.89253862176E+00  0.88000000000E+00 0. -1.
        -11    1    4    4    0    0 -0.30731539004E-01  0.41912200265E-01  0.35671863351E-01  0.63038107336E-01  0.51100000000E-03 0.  1.
         11    1    4    4    0    0 -0.13634298688E-01  0.41115372113E-01  0.45908271357E-01  0.63120507165E-01  0.51100000000E-03 0. -1.
</event>
<event>
 8    1  0.1094829E+005  0.1043930E+01  0.7957747E-01            NaN
         13   -1    0    0    0    0  0.00000000000E+00  0.00000000000E+00  0.74505805969E-08  0.10566000000E+00  0.10566000000E+00 0.  1.
     999900   -1    0    0    0    0 -0.00000000000E+00 -0.00000000000E+00 -0.74505805969E-08  0.93827000000E+00  0.93827000000E+00 0.  1.
     999902    2    1    2    0    0 -0.36558088343E-02  0.23394113390E-01  0.32027536841E-03  0.10202497961E+01  0.10199749479E+01 0.  0.
     999903    2    3    3    0    0  0.29137601264E-01 -0.17192054181E-01 -0.12393689896E+00  0.12999000813E+00  0.19811127023E-01 0.  0.
         14    1    1    2    0    0  0.36558088343E-02 -0.23394113390E-01 -0.32027536841E-03  0.23680203881E-01  0.00000000000E+00 0. -1.
     999901    1    3    3    0    0 -0.32793410098E-01  0.40586167571E-01  0.12425717433E+00  0.89025978799E+00  0.88000000000E+00 0. -1.
        -11    1    4    4    0    0  0.15800314864E-01 -0.19720299391E-01 -0.88509898247E-01  0.92047831950E-01  0.51100000000E-03 0.  1.
         11    1    4    4    0    0  0.13337286401E-01  0.25282452102E-02 -0.35427000715E-01  0.37942176177E-01  0.51100000000E-03 0. -1.
</event>
<event>
 8    1  0.1094829E+005  0.1043930E+01  0.7957747E-01            NaN
         13   -1    0    0    0    0  0.00000000000E+00  0.00000000000E+00  0.74505805969E-08  0.10566000000E+00  0.10566000000E+00 0. -1.
     999900   -1    0    0    0    0 -0.00000000000E+00 -0.00000000000E+00 -0.74505805969E-08  0.93827000000E+00  0.93827000000E+00 0.  1.
     999902    2    1    2    0    0 -0.42786801260E-02  0.20731257535E-01 -0.15030657857E-01  0.10179682432E+01  0.10176371314E+01 0.  0.
     999903    2    3    3    0    0 -0.10249925811E+00  0.78726314442E-01  0.34422872055E-02  0.13041432465E+00  0.17091408199E-01 0.  0.
         14    1    1    2    0    0  0.42786801260E-02 -0.20731257535E-01  0.15030657857E-01  0.25961756840E-01  0.00000000000E+00 0. -1.
     999901    1    3    3    0    0  0.98220577981E-01 -0.57995056906E-01 -0.18472945063E-01  0.88755391851E+00  0.88000000000E+00 0. -1.
        -11    1    4    4    0    0 -0.63432890961E-01  0.53640438957E-01  0.93980960048E-02  0.83603909458E-01  0.51100000000E-03 0.  1.
         11    1    4    4    0    0 -0.39066367147E-01  0.25085875484E-01 -0.59558087992E-02  0.46810415191E-01  0.51100000000E-03 0. -1.
</event>
<event>
 8    1  0.1094829E+005  0.1043930E+01  0.7957747E-01            NaN
         13   -1    0    0    0    0  0.00000000000E+00  0.00000000000E+00  0.74505805969E-08  0.10566000000E+00  0.10566000000E+00 0.  1.
     999900   -1    0    0    0    0 -0.00000000000E+00 -0.00000000000E+00 -0.74505805969E-08  0.93827000000E+00  0.93827000000E+00 0. -1.
     999902    2    1    2    0    0  0.14820051183E-01  0.17190422897E-01  0.56698909757E-02  0.10205357225E+01  0.10202675476E+01 0.  0.
     999903    2    3    3    0    0  0.52186511050E-01 -0.25132022781E-01  0.11670025327E+00  0.13176399529E+00  0.19691389900E-01 0.  0.
         14    1    1    2    0    0 -0.14820051183E-01 -0.17190422897E-01 -0.56698909757E-02  0.23394277508E-01  0.00000000000E+00 0. -1.
     999901    1    3    3    0    0 -0.37366459866E-01  0.42322445678E-01 -0.11103036229E+00  0.88877172721E+00  0.88000000000E+00 0. -1.
        -11    1    4    4    0    0  0.42637271871E-01 -0.27742374474E-01  0.91611148606E-01  0.10478759451E+00  0.51100000000E-03 0. -1.
         11    1    4    4    0    0  0.95492391784E-02  0.26103516933E-02  0.25089104662E-01  0.26976400772E-01  0.51100000000E-03 0.  1.
</event>
<event>
 8    1  0.1094829E+005  0.1043930E+01  0.7957747E-01            NaN
         13   -1    0    0    0    0  0.00000000000E+00  0.00000000000E+00  0.74505805969E-08  0.10566000000E+00  0.10566000000E+00 0.  1.
     999900   -1    0    0    0    0 -0.00000000000E+00 -0.00000000000E+00 -0.74505805969E-08  0.93827000000E+00  0.93827000000E+00 0. -1.
     999902    2    1    2    0    0 -0.11576286247E-01  0.15970054610E-01  0.11133271337E-01  0.10212804354E+01  0.10210292478E+01 0.  0.
     999903    2    3    3    0    0  0.12240191009E+00  0.18682122796E-01 -0.33797056798E-01  0.13000256242E+00  0.20668233641E-01 0.  0.
         14    1    1    2    0    0  0.11576286247E-01 -0.15970054610E-01 -0.11133271337E-01  0.22649564636E-01  0.00000000000E+00 0. -1.
     999901    1    3    3    0    0 -0.13397819634E+00 -0.27120681854E-02  0.44930328135E-01  0.89127787294E+00  0.88000000000E+00 0.  1.
        -11    1    4    4    0    0  0.10497197803E+00  0.23161062488E-01 -0.27927534110E-01  0.11106646330E+00  0.51100000000E-03 0. -1.
         11    1    4    4    0    0  0.17429932060E-01 -0.44789396921E-02 -0.58695226875E-02  0.18936099122E-01  0.51100000000E-03 0.  1.
</event>
<event>
 8    1  0.1812166E+005  0.1043930E+01  0.7957747E-01            NaN
         13   -1    0    0    0    0  0.00000000000E+00  0.00000000000E+00  0.74505805969E-08  0.10566000000E+00  0.10566000000E+00 0.  1.
     999900   -1    0    0    0    0 -0.00000000000E+00 -0.00000000000E+00 -0.74505805969E-08  0.93827000000E+00  0.93827000000E+00 0. -1.
     999902    2    1    2    0    0  0.62952086342E-02 -0.20909661603E-01 -0.86649653235E-02  0.10204369111E+01  0.10201664396E+01 0.  0.
     999903    2    3    3    0    0 -0.57280233234E-01 -0.65841922473E-02 -0.11646263669E+00  0.13146706135E+00  0.19891349128E-01 0.  0.
         14    1    1    2    0    0 -0.62952086342E-02  0.20909661603E-01  0.86649653235E-02  0.23493088860E-01  0.00000000000E+00 0. -1.
     999901    1    3    3    0    0  0.63575441868E-01 -0.14325469356E-01  0.10779767136E+00  0.88896984979E+00  0.88000000000E+00 0.  1.
        -11    1    4    4    0    0 -0.39810052960E-01 -0.40395914845E-02 -0.58535128571E-01  0.70906847439E-01  0.51100000000E-03 0.  1.
         11    1    4    4    0    0 -0.17470180274E-01 -0.25446007628E-02 -0.57927508114E-01  0.60560213913E-01  0.51100000000E-03 0. -1.
</event>
<event>
 8    1  0.1094829E+005  0.1043930E+01  0.7957747E-01            NaN
         13   -1    0    0    0    0  0.00000000000E+00  0.00000000000E+00  0.74505805969E-08  0.10566000000E+00  0.10566000000E+00 0.  1.
     999900   -1    0    0    0    0 -0.00000000000E+00 -0.00000000000E+00 -0.74505805969E-08  0.93827000000E+00  0.93827000000E+00 0. -1.
     999902    2    1    2    0    0 -0.66695265172E-02 -0.16188839913E-01  0.16090868898E-01  0.10201502358E+01  0.10198730443E+01 0.  0.
     999903    2    3    3    0    0 -0.35578451281E-01  0.11424352470E+00 -0.41392275184E-01  0.12821265982E+00  0.20192982966E-01 0.  0.
         14    1    1    2    0    0  0.66695265172E-02  0.16188839913E-01 -0.16090868898E-01  0.23779764162E-01  0.00000000000E+00 0. -1.
     999901    1    3    3    0    0  0.28908924764E-01 -0.13043236461E+00  0.57483144082E-01  0.89193757602E+00  0.88000000000E+00 0.  1.
        -11    1    4    4    0    0 -0.10678324433E-01  0.67096683317E-01 -0.25549243218E-01  0.72587991258E-01  0.51100000000E-03 0. -1.
         11    1    4    4    0    0 -0.24900126848E-01  0.47146841381E-01 -0.15843031966E-01  0.55624668557E-01  0.51100000000E-03 0.  1.
</event>
<event>
 8    1  0.1094829E+005  0.1043930E+01  0.7957747E-01            NaN
         13   -1    0    0    0    0  0.00000000000E+00  0.00000000000E+00  0.74505805969E-08  0.10566000000E+00  0.10566000000E+00 0.  1.
     999900   -1    0    0    0    0 -0.00000000000E+00 -0.00000000000E+00 -0.74505805969E-08  0.93827000000E+00  0.93827000000E+00 0. -1.
     999902    2    1    2    0    0  0.65230347508E-02 -0.21838655355E-01  0.39815913160E-03  0.10211344877E+01  0.10208800158E+01 0.  0.
     999903    2    3    3    0    0  0.87646468189E-01 -0.65104541704E-01  0.73702938637E-01  0.13331325622E+00  0.20488933218E-01 0.  0.
         14    1    1    2    0    0 -0.65230347508E-02  0.21838655355E-01 -0.39815913160E-03  0.22795512294E-01  0.00000000000E+00 0.  1.
     999901    1    3    3    0    0 -0.81123433439E-01  0.43265886349E-01 -0.73304779505E-01  0.88782123148E+00  0.88000000000E+00 0. -1.
        -11    1    4    4    0    0  0.65825982986E-01 -0.56246745155E-01  0.50433849390E-01  0.10020274778E+00  0.51100000000E-03 0.  1.
         11    1    4    4    0    0  0.21820485203E-01 -0.88577965494E-02  0.23269089246E-01  0.33110508446E-01  0.51100000000E-03 0. -1.
</event>
<event>
 7    1  0.1094829E+005  0.1043930E+01  0.7957747E-01            NaN
         13   -1    0    0    0    0  0.00000000000E+00  0.00000000000E+00  0.74505805969E-08  0.10566000000E+00  0.10566000000E+00 0. -1.
     999900   -1    0    0    0    0 -0.00000000000E+00 -0.00000000000E+00 -0.74505805969E-08  0.93827000000E+00  0.93827000000E+00 0.  1.
     999902    2    1    2    0    0 -0.77849803613E-02  0.22816913451E-01 -0.35665441584E-02  0.10195591630E+01  0.10192678496E+01 0.  0.
         14    1    1    2    0    0  0.77849803613E-02 -0.22816913451E-01  0.35665441584E-02  0.24370836996E-01  0.00000000000E+00 0.  1.
     999901    1    3    3    0    0  0.22628489431E-01 -0.10091595382E+00  0.33744693448E-01  0.88669881166E+00  0.88000000000E+00 0. -1.
        -11    1    3    3    0    0 -0.26365050546E-01  0.11136372453E+00 -0.32411142596E-01  0.11894426559E+00  0.51100000000E-03 0.  1.
         11    1    3    3    0    0 -0.40484192468E-02  0.12369142742E-01 -0.49000950105E-02  0.13916085753E-01  0.51100000000E-03 0. -1.
</event>
<event>
 8    1  0.1094829E+005  0.1043930E+01  0.7957747E-01            NaN
         13   -1    0    0    0    0  0.00000000000E+00  0.00000000000E+00  0.74505805969E-08  0.10566000000E+00  0.10566000000E+00 0.  1.
     999900   -1    0    0    0    0 -0.00000000000E+00 -0.00000000000E+00 -0.74505805969E-08  0.93827000000E+00  0.93827000000E+00 0. -1.
     999902    2    1    2    0    0 -0.93003297243E-02  0.21710633021E-01  0.12432135137E-02  0.10202785032E+01  0.10200043289E+01 0.  0.
     999903    2    3    3    0    0  0.48009030115E-01 -0.11628589350E+00  0.81943197761E-02  0.12765555824E+00  0.20037930904E-01 0.  0.
         14    1    1    2    0    0  0.93003297243E-02 -0.21710633021E-01 -0.12432135137E-02  0.23651496760E-01  0.00000000000E+00 0.  1.
     999901    1    3    3    0    0 -0.57309359840E-01  0.13799652652E+00 -0.69511062624E-02  0.89262294500E+00  0.88000000000E+00 0.  1.
        -11    1    4    4    0    0  0.78022757981E-02 -0.35780045079E-01 -0.40074182450E-02  0.36843013659E-01  0.51100000000E-03 0.  1.
         11    1    4    4    0    0  0.40206754317E-01 -0.80505848418E-01  0.12201738021E-01  0.90812544584E-01  0.51100000000E-03 0. -1.
</event>
<event>
 8    1  0.1094829E+005  0.1043930E+01  0.7957747E-01            NaN
         13   -1    0    0    0    0  0.00000000000E+00  0.00000000000E+00  0.74505805969E-08  0.10566000000E+00  0.10566000000E+00 0.  1.
     999900   -1    0    0    0    0 -0.00000000000E+00 -0.00000000000E+00 -0.74505805969E-08  0.93827000000E+00  0.93827000000E+00 0.  1.
     999902    2    1    2    0    0  0.19180954327E-01  0.14667021457E-01 -0.17117098741E-02  0.10197233795E+01  0.10194360255E+01 0.  0.
     999903    2    3    3    0    0  0.87289627951E-02 -0.41491421101E-01  0.12044079834E+00  0.12945137043E+00  0.21305834555E-01 0.  0.
         14    1    1    2    0    0 -0.19180954327E-01 -0.14667021457E-01  0.17117098741E-02  0.24206620541E-01  0.00000000000E+00 0. -1.
     999901    1    3    3    0    0  0.10451991532E-01  0.56158442558E-01 -0.12215250821E+00  0.89027200903E+00  0.88000000000E+00 0.  1.
        -11    1    4    4    0    0 -0.68706043014E-03 -0.31858604431E-01  0.64964967937E-01  0.72361252811E-01  0.51100000000E-03 0.  1.
         11    1    4    4    0    0  0.94160232252E-02 -0.96328166703E-02  0.55475830399E-01  0.57090117620E-01  0.51100000000E-03 0. -1.
</event>
<event>
 8    1  0.1094829E+005  0.1043930E+01  0.7957747E-01            NaN
         13   -1    0    0    0    0  0.00000000000E+00  0.00000000000E+00  0.74505805969E-08  0.10566000000E+00  0.10566000000E+00 0. -1.
     999900   -1    0    0    0    0 -0.00000000000E+00 -0.00000000000E+00 -0.74505805969E-08  0.93827000000E+00  0.93827000000E+00 0. -1.
     999902    2    1    2    0    0 -0.17698310358E-01 -0.80653923991E-02  0.13802130602E-01  0.10200809004E+01  0.10198020709E+01 0.  0.
     999903    2    3    3    0    0 -0.33022619883E-01  0.17259207602E-01  0.12558087870E+00  0.13251644730E+00  0.20041907024E-01 0.  0.
         14    1    1    2    0    0  0.17698310358E-01  0.80653923991E-02 -0.13802130602E-01  0.23849099632E-01  0.00000000000E+00 0. -1.
     999901    1    3    3    0    0  0.15324309524E-01 -0.25324600001E-01 -0.11177874810E+00  0.88756445307E+00  0.88000000000E+00 0. -1.
        -11    1    4    4    0    0 -0.20038721022E-02  0.83427967616E-04  0.37619580174E-01  0.37676470073E-01  0.51100000000E-03 0.  1.
         11    1    4    4    0    0 -0.31018747780E-01  0.17175779634E-01  0.87961298530E-01  0.94839977225E-01  0.51100000000E-03 0. -1.
</event>
<event>
 8    1  0.1094829E+005  0.1043930E+01  0.7957747E-01            NaN
         13   -1    0    0    0    0  0.00000000000E+00  0.00000000000E+00  0.74505805969E-08  0.10566000000E+00  0.10566000000E+00 0. -1.
     999900   -1    0    0    0    0 -0.00000000000E+00 -0.00000000000E+00 -0.74505805969E-08  0.93827000000E+00  0.93827000000E+00 0. -1.
     999902    2    1    2    0    0 -0.15153489375E-01 -0.18943678638E-01 -0.27348768568E-02  0.10195174878E+01  0.10192251651E+01 0.  0.
     999903    2    3    3    0    0 -0.73178852694E-01 -0.24332139048E-01 -0.10483161368E+00  0.13170009556E+00  0.20200259209E-01 0.  0.
         14    1    1    2    0    0  0.15153489375E-01  0.18943678638E-01  0.27348768568E-02  0.24412512202E-01  0.00000000000E+00 0. -1.
     999901    1    3    3    0    0  0.58025363319E-01  0.53884604107E-02  0.10209673682E+00  0.88781739224E+00  0.88000000000E+00 0.  1.
        -11    1    4    4    0    0 -0.45014446318E-01 -0.23085622134E-01 -0.76601965312E-01  0.91800700091E-01  0.51100000000E-03 0.  1.
         11    1    4    4    0    0 -0.28164406376E-01 -0.12465169143E-02 -0.28229648364E-01  0.39899395468E-01  0.51100000000E-03 0. -1.
</event>
<event>
 8    1  0.1094829E+005  0.1043930E+01  0.7957747E-01            NaN
         13   -1    0    0    0    0  0.00000000000E+00  0.00000000000E+00  0.74505805969E-08  0.10566000000E+00  0.10566000000E+00 0.  1.
     999900   -1    0    0    0    0 -0.00000000000E+00 -0.00000000000E+00 -0.74505805969E-08  0.93827000000E+00  0.93827000000E+00 0.  1.
     999902    2    1    2    0    0 -0.47704832725E-02 -0.18022131025E-01 -0.18727561097E-02  0.10251933532E+01  0.10250221215E+01 0.  0.
     999903    2    3    3    0    0  0.87129368742E-01 -0.84602452397E-01 -0.58020097083E-01  0.13613146229E+00  0.20404448307E-01 0.  0.
         14    1    1    2    0    0  0.47704832725E-02  0.18022131025E-01  0.18727561097E-02  0.18736646786E-01  0.00000000000E+00 0. -1.
     999901    1    3    3    0    0 -0.91899852014E-01  0.66580321372E-01  0.56147340973E-01  0.88906189092E+00  0.88000000000E+00 0.  1.
        -11    1    4    4    0    0  0.36993183387E-01 -0.23854052338E-01 -0.25843254206E-01  0.51045532018E-01  0.51100000000E-03 0.  1.
         11    1    4    4    0    0  0.50136185355E-01 -0.60748400060E-01 -0.32176842877E-01  0.85085930272E-01  0.51100000000E-03 0. -1.
</event>
<event>
 8    1  0.1094829E+005  0.1043930E+01  0.7957747E-01            NaN
         13   -1    0    0    0    0  0.00000000000E+00  0.00000000000E+00  0.74505805969E-08  0.10566000000E+00  0.10566000000E+00 0. -1.
     999900   -1    0    0    0    0 -0.00000000000E+00 -0.00000000000E+00 -0.74505805969E-08  0.93827000000E+00  0.93827000000E+00 0.  1.
     999902    2    1    2    0    0 -0.66961560784E-03  0.10522982281E-01 -0.21197069083E-01  0.10202551763E+01  0.10199804544E+01 0.  0.
     999903    2    3    3    0    0 -0.55971927310E-01 -0.54398637765E-01 -0.10473779998E+00  0.13219424584E+00  0.20328390282E-01 0.  0.
         14    1    1    2    0    0  0.66961560784E-03 -0.10522982281E-01  0.21197069083E-01  0.23674823735E-01  0.00000000000E+00 0. -1.
     999901    1    3    3    0    0  0.55302311702E-01  0.64921620045E-01  0.83540730896E-01  0.88806093043E+00  0.88000000000E+00 0. -1.
        -11    1    4    4    0    0 -0.44707920581E-01 -0.37345219496E-01 -0.63545135298E-01  0.86207360027E-01  0.51100000000E-03 0.  1.
         11    1    4    4    0    0 -0.11264006729E-01 -0.17053418268E-01 -0.41192664681E-01  0.45986885813E-01  0.51100000000E-03 0. -1.
</event>
<event>
 8    1  0.1094829E+005  0.1043930E+01  0.7957747E-01            NaN
         13   -1    0    0    0    0  0.00000000000E+00  0.00000000000E+00  0.74505805969E-08  0.10566000000E+00  0.10566000000E+00 0. -1.
     999900   -1    0    0    0    0 -0.00000000000E+00 -0.00000000000E+00 -0.74505805969E-08  0.93827000000E+00  0.93827000000E+00 0.  1.
     999902    2    1    2    0    0 -0.80842906587E-02  0.15731130042E-01  0.15848564475E-01  0.10201812905E+01  0.10199048310E+01 0.  0.
     999903    2    3    3    0    0  0.11135956564E+00 -0.54591209208E-01  0.30379943266E-01  0.12921371129E+00  0.19801243620E-01 0.  0.
         14    1    1    2    0    0  0.80842906587E-02 -0.15731130042E-01 -0.15848564475E-01  0.23748709518E-01  0.00000000000E+00 0.  1.
     999901    1    3    3    0    0 -0.11944385630E+00  0.70322339251E-01 -0.14531378791E-01  0.89096757919E+00  0.88000000000E+00 0. -1.
        -11    1    4    4    0    0  0.48490612999E-01 -0.16715460470E-01  0.49365520571E-02  0.51530348679E-01  0.51100000000E-03 0. -1.
         11    1    4    4    0    0  0.62868952644E-01 -0.37875748738E-01  0.25443391209E-01  0.77683362609E-01  0.51100000000E-03 0.  1.
</event>
<event>
 8    1  0.1094829E+005  0.1043930E+01  0.7957747E-01            NaN
         13   -1    0    0    0    0  0.00000000000E+00  0.00000000000E+00  0.74505805969E-08  0.10566000000E+00  0.10566000000E+00 0. -1.
     999900   -1    0    0    0    0 -0.00000000000E+00 -0.00000000000E+00 -0.74505805969E-08  0.93827000000E+00  0.93827000000E+00 0. -1.
     999902    2    1    2    0    0  0.18785094427E-01 -0.18174201241E-02 -0.16414258083E-01  0.10189177898E+01  0.10186107460E+01 0.  0.
     999903    2    3    3    0    0  0.77718858251E-01  0.43806932393E-01 -0.95536606186E-01  0.13223006802E+00  0.19956941495E-01 0.  0.
         14    1    1    2    0    0 -0.18785094427E-01  0.18174201241E-02  0.16414258083E-01  0.25012210157E-01  0.00000000000E+00 0. -1.
     999901    1    3    3    0    0 -0.58933763824E-01 -0.45624352517E-01  0.79122348103E-01  0.88668772182E+00  0.88000000000E+00 0.  1.
        -11    1    4    4    0    0  0.57445466817E-01  0.22632330941E-01 -0.70087299829E-01  0.93406074642E-01  0.51100000000E-03 0.  1.
         11    1    4    4    0    0  0.20273391433E-01  0.21174601452E-01 -0.25449306357E-01  0.38823993379E-01  0.51100000000E-03 0. -1.
</event>
<event>
 8    1  0.1094829E+005  0.1043930E+01  0.7957747E-01            NaN
         13   -1    0    0    0    0  0.00000000000E+00  0.00000000000E+00  0.74505805969E-08  0.10566000000E+00  0.10566000000E+00 0.  1.
     999900   -1    0    0    0    0 -0.00000000000E+00 -0.00000000000E+00 -0.74505805969E-08  0.93827000000E+00  0.93827000000E+00 0.  1.
     999902    2    1    2    0    0  0.18219733568E-01  0.83020872688E-02 -0.71740790085E-02  0.10226614609E+01  0.10224402735E+01 0.  0.
     999903    2    3    3    0    0  0.10924037192E-01 -0.34252129182E-01 -0.12705619101E+00  0.13348442046E+00  0.19551774627E-01 0.  0.
         14    1    1    2    0    0 -0.18219733568E-01 -0.83020872688E-02  0.71740790085E-02  0.21268539065E-01  0.00000000000E+00 0.  1.
     999901    1    3    3    0    0  0.72956963765E-02  0.42554216450E-01  0.11988211200E+00  0.88917704047E+00  0.88000000000E+00 0. -1.
        -11    1    4    4    0    0  0.10863904050E-01 -0.26882692824E-01 -0.67417590274E-01  0.73390027824E-01  0.51100000000E-03 0. -1.
         11    1    4    4    0    0  0.60133141664E-04 -0.73694363580E-02 -0.59638600735E-01  0.60094392641E-01  0.51100000000E-03 0.  1.
</event>
<event>
 7    1  0.1094829E+005  0.1043930E+01  0.7957747E-01            NaN
         13   -1    0    0    0    0  0.00000000000E+00  0.00000000000E+00  0.74505805969E-08  0.10566000000E+00  0.10566000000E+00 0.  1.
     999900   -1    0    0    0    0 -0.00000000000E+00 -0.00000000000E+00 -0.74505805969E-08  0.93827000000E+00  0.93827000000E+00 0. -1.
     999903    2    1    2    0    0 -0.53678967173E-01  0.33460465667E-01 -0.12712749907E+00  0.14405296583E+00  0.24265647817E-01 0.  0.
         14    1    1    2    0    0 -0.36805288963E-02 -0.11154226080E-02 -0.63054746162E-02  0.73857613478E-02  0.00000000000E+00 0. -1.
     999901    1    1    2    0    0  0.57359496069E-01 -0.32345043059E-01  0.13343297369E+00  0.89249127282E+00  0.88000000000E+00 0.  1.
        -11    1    3    3    0    0 -0.42614311970E-01  0.22345287803E-01 -0.70978921756E-01  0.85752900396E-01  0.51100000000E-03 0. -1.
         11    1    3    3    0    0 -0.11064655203E-01  0.11115177864E-01 -0.56148577317E-01  0.58300065432E-01  0.51100000000E-03 0.  1.
</event>
<event>
 8    1  0.1094829E+005  0.1043930E+01  0.7957747E-01            NaN
         13   -1    0    0    0    0  0.00000000000E+00  0.00000000000E+00  0.74505805969E-08  0.10566000000E+00  0.10566000000E+00 0.  1.
     999900   -1    0    0    0    0 -0.00000000000E+00 -0.00000000000E+00 -0.74505805969E-08  0.93827000000E+00  0.93827000000E+00 0. -1.
     999902    2    1    2    0    0  0.23216236986E-02  0.18109417507E-02 -0.22849226063E-01  0.10208918452E+01  0.10206318646E+01 0.  0.
     999903    2    3    3    0    0 -0.62314095543E-01  0.38354429733E-01  0.10402629479E+00  0.12869758352E+00  0.19684745712E-01 0.  0.
         14    1    1    2    0    0 -0.23216236986E-02 -0.18109417507E-02  0.22849226063E-01  0.23038154838E-01  0.00000000000E+00 0.  1.
     999901    1    3    3    0    0  0.64635719241E-01 -0.36543487982E-01 -0.12687552085E+00  0.89219426164E+00  0.88000000000E+00 0. -1.
        -11    1    4    4    0    0 -0.42331666899E-01  0.32321780566E-01  0.85769289683E-01  0.10096187248E+00  0.51100000000E-03 0.  1.
         11    1    4    4    0    0 -0.19982428644E-01  0.60326491668E-02  0.18257005102E-01  0.27735711038E-01  0.51100000000E-03 0. -1.
</event>
<event>
 8    1  0.1094829E+005  0.1043930E+01  0.7957747E-01            NaN
         13   -1    0    0    0    0  0.00000000000E+00  0.00000000000E+00  0.74505805969E-08  0.10566000000E+00  0.10566000000E+00 0.  1.
     999900   -1    0    0    0    0 -0.00000000000E+00 -0.00000000000E+00 -0.74505805969E-08  0.93827000000E+00  0.93827000000E+00 0. -1.
     999902    2    1    2    0    0 -0.12776664180E-01 -0.28526327475E-02 -0.19669336643E-01  0.10203024004E+01  0.10200287862E+01 0.  0.
     999903    2    3    3    0    0 -0.13644309926E-01  0.37622875528E-01 -0.12335789889E+00  0.13329037252E+00  0.30781556689E-01 0.  0.
         14    1    1    2    0    0  0.12776664180E-01  0.28526327475E-02  0.19669336643E-01  0.23627599648E-01  0.00000000000E+00 0.  1.
     999901    1    3    3    0    0  0.86764574548E-03 -0.40475508276E-01  0.10368856224E+00  0.88701202783E+00  0.88000000000E+00 0.  1.
        -11    1    4    4    0    0  0.86015387149E-02  0.20657921608E-01 -0.50200132011E-01  0.54964084349E-01  0.51100000000E-03 0.  1.
         11    1    4    4    0    0 -0.22245848641E-01  0.16964953921E-01 -0.73157766875E-01  0.78326288170E-01  0.51100000000E-03 0. -1.
</event>
<event>
 8    1  0.1094829E+005  0.1043930E+01  0.7957747E-01            NaN
         13   -1    0    0    0    0  0.00000000000E+00  0.00000000000E+00  0.74505805969E-08  0.10566000000E+00  0.10566000000E+00 0.  1.
     999900   -1    0    0    0    0 -0.00000000000E+00 -0.00000000000E+00 -0.74505805969E-08  0.93827000000E+00  0.93827000000E+00 0. -1.
     999902    2    1    2    0    0  0.13483657242E-01 -0.83325785125E-02  0.17613960873E-01  0.10202341671E+01  0.10199589518E+01 0.  0.
     999903    2    3    3    0    0  0.21086612271E-01  0.84925883959E-01 -0.91774336699E-01  0.12853873405E+00  0.21038685590E-01 0.  0.
         14    1    1    2    0    0 -0.13483657242E-01  0.83325785125E-02 -0.17613960873E-01  0.23695832860E-01  0.00000000000E+00 0. -1.
     999901    1    3    3    0    0 -0.76029550285E-02 -0.93258462471E-01  0.10938829757E+00  0.89169543309E+00  0.88000000000E+00 0.  1.
        -11    1    4    4    0    0  0.23995619133E-01  0.68892721898E-01 -0.80930800123E-01  0.10895894822E+00  0.51100000000E-03 0. -1.
         11    1    4    4    0    0 -0.29090068624E-02  0.16033162060E-01 -0.10843536576E-01  0.19579785828E-01  0.51100000000E-03 0.  1.
</event>
<event>
 8    1  0.1094829E+005  0.1043930E+01  0.7957747E-01            NaN
         13   -1    0    0    0    0  0.00000000000E+00  0.00000000000E+00  0.74505805969E-08  0.10566000000E+00  0.10566000000E+00 0. -1.
     999900   -1    0    0    0    0 -0.00000000000E+00 -0.00000000000E+00 -0.74505805969E-08  0.93827000000E+00  0.93827000000E+00 0. -1.
     999902    2    1    2    0    0  0.44130144899E-02  0.31524689757E-02  0.25262378568E-01  0.10180920332E+01  0.10177641119E+01 0.  0.
     999903    2    3    3    0    0 -0.46210162009E-01  0.48515786664E-02 -0.11521342632E+00  0.12551203973E+00  0.17894737331E-01 0.  0.
         14    1    1    2    0    0 -0.44130144899E-02 -0.31524689757E-02 -0.25262378568E-01  0.25837966802E-01  0.00000000000E+00 0.  1.
     999901    1    3    3    0    0  0.50623176499E-01 -0.16991096907E-02  0.14047580489E+00  0.89257999346E+00  0.88000000000E+00 0.  1.
        -11    1    4    4    0    0 -0.17861001828E-01 -0.87481614127E-03 -0.66436590028E-01  0.68803069010E-01  0.51100000000E-03 0. -1.
         11    1    4    4    0    0 -0.28349160181E-01  0.57263948076E-02 -0.48776836296E-01  0.56708970724E-01  0.51100000000E-03 0.  1.
</event>
<event>
 8    1  0.1094829E+005  0.1043930E+01  0.7957747E-01            NaN
         13   -1    0    0    0    0  0.00000000000E+00  0.00000000000E+00  0.74505805969E-08  0.10566000000E+00  0.10566000000E+00 0.  1.
     999900   -1    0    0    0    0 -0.00000000000E+00 -0.00000000000E+00 -0.74505805969E-08  0.93827000000E+00  0.93827000000E+00 0.  1.
     999902    2    1    2    0    0  0.22350154136E-01  0.67579687789E-04  0.28967461290E-02  0.10213928064E+01  0.10211441328E+01 0.  0.
     999903    2    3    3    0    0  0.45967907468E-01 -0.12264491185E+00  0.43686025183E-02  0.13256305881E+00  0.19976409953E-01 0.  0.
         14    1    1    2    0    0 -0.22350154136E-01 -0.67579687789E-04 -0.28967461290E-02  0.22537193593E-01  0.00000000000E+00 0.  1.
     999901    1    3    3    0    0 -0.23617753332E-01  0.12271249153E+00 -0.14718563893E-02  0.88882974760E+00  0.88000000000E+00 0. -1.
        -11    1    4    4    0    0  0.27250769428E-01 -0.96111680554E-01  0.92007383914E-03  0.99905791775E-01  0.51100000000E-03 0.  1.
         11    1    4    4    0    0  0.18717138040E-01 -0.26533231293E-01  0.34485286791E-02  0.32657267036E-01  0.51100000000E-03 0. -1.
</event>
<event>
 8    1  0.1094829E+005  0.1043930E+01  0.7957747E-01            NaN
         13   -1    0    0    0    0  0.00000000000E+00  0.00000000000E+00  0.74505805969E-08  0.10566000000E+00  0.10566000000E+00 0.  1.
     999900   -1    0    0    0    0 -0.00000000000E+00 -0.00000000000E+00 -0.74505805969E-08  0.93827000000E+00  0.93827000000E+00 0.  1.
     999902    2    1    2    0    0 -0.10770346316E-01 -0.87795711821E-02 -0.19072747912E-01  0.10203323106E+01  0.10200593969E+01 0.  0.
     999903    2    3    3    0    0 -0.24069734015E-01  0.37132397117E-01  0.11876387303E+00  0.12832125880E+00  0.20082851192E-01 0.  0.
         14    1    1    2    0    0  0.10770346316E-01  0.87795711821E-02  0.19072747912E-01  0.23597689354E-01  0.00000000000E+00 0.  1.
     999901    1    3    3    0    0  0.13299387699E-01 -0.45911968299E-01 -0.13783662094E+00  0.89201105185E+00  0.88000000000E+00 0.  1.
        -11    1    4    4    0    0 -0.15960703433E-01  0.89483363570E-02  0.58520502220E-01  0.61316613399E-01  0.51100000000E-03 0. -1.
         11    1    4    4    0    0 -0.81090305827E-02  0.28184060760E-01  0.60243370807E-01  0.67004645400E-01  0.51100000000E-03 0.  1.
</event>
<event>
 8    1  0.1094829E+005  0.1043930E+01  0.7957747E-01            NaN
         13   -1    0    0    0    0  0.00000000000E+00  0.00000000000E+00  0.74505805969E-08  0.10566000000E+00  0.10566000000E+00 0. -1.
     999900   -1    0    0    0    0 -0.00000000000E+00 -0.00000000000E+00 -0.74505805969E-08  0.93827000000E+00  0.93827000000E+00 0.  1.
     999902    2    1    2    0    0 -0.15988692285E-01  0.18974527985E-01 -0.24791825596E-02  0.10189937345E+01  0.10186885753E+01 0.  0.
     999903    2    3    3    0    0 -0.24837281994E-01 -0.98571498297E-01  0.74665616304E-01  0.12778854718E+00  0.20536009308E-01 0.  0.
         14    1    1    2    0    0  0.15988692285E-01 -0.18974527985E-01  0.24791825596E-02  0.24936265547E-01  0.00000000000E+00 0.  1.
     999901    1    3    3    0    0  0.88485897084E-02  0.11754602628E+00 -0.77144798864E-01  0.89120518728E+00  0.88000000000E+00 0.  1.
        -11    1    4    4    0    0 -0.10036427961E-01 -0.18513582986E-01  0.23825737724E-01  0.31802665616E-01  0.51100000000E-03 0. -1.
         11    1    4    4    0    0 -0.14800854033E-01 -0.80057915312E-01  0.50839878580E-01  0.95985881561E-01  0.51100000000E-03 0.  1.
</event>
<event>
 8    1  0.1094829E+005  0.1043930E+01  0.7957747E-01            NaN
         13   -1    0    0    0    0  0.00000000000E+00  0.00000000000E+00  0.74505805969E-08  0.10566000000E+00  0.10566000000E+00 0.  1.
     999900   -1    0    0    0    0 -0.00000000000E+00 -0.00000000000E+00 -0.74505805969E-08  0.93827000000E+00  0.93827000000E+00 0. -1.
     999902    2    1    2    0    0  0.15176612609E-01 -0.58052159004E-02 -0.17021527011E-01  0.10203978415E+01  0.10201264590E+01 0.  0.
     999903    2    3    3    0    0  0.11021072647E+00  0.12265454446E-01 -0.71579797157E-01  0.13341721219E+00  0.19484341039E-01 0.  0.
         14    1    1    2    0    0 -0.15176612609E-01  0.58052159004E-02  0.17021527011E-01  0.23532158501E-01  0.00000000000E+00 0. -1.
     999901    1    3    3    0    0 -0.95034113864E-01 -0.18070670346E-01  0.54558270146E-01  0.88698062931E+00  0.88000000000E+00 0. -1.
        -11    1    4    4    0    0  0.67243641505E-01  0.46202128704E-02 -0.32488215953E-01  0.74825122697E-01  0.51100000000E-03 0.  1.
         11    1    4    4    0    0  0.42967084967E-01  0.76452415756E-02 -0.39091581204E-01  0.58592089495E-01  0.51100000000E-03 0. -1.
</event>
<event>
 8    1  0.1094829E+005  0.1043930E+01  0.7957747E-01            NaN
         13   -1    0    0    0    0  0.00000000000E+00  0.00000000000E+00  0.74505805969E-08  0.10566000000E+00  0.10566000000E+00 0.  1.
     999900   -1    0    0    0    0 -0.00000000000E+00 -0.00000000000E+00 -0.74505805969E-08  0.93827000000E+00  0.93827000000E+00 0. -1.
     999902    2    1    2    0    0  0.14307888700E-01 -0.18435184735E-01 -0.26612564821E-02  0.10204426842E+01  0.10201723471E+01 0.  0.
     999903    2    3    3    0    0 -0.96943083698E-01  0.57198240772E-01  0.57708726403E-01  0.12817493926E+00  0.20710328978E-01 0.  0.
         14    1    1    2    0    0 -0.14307888700E-01  0.18435184735E-01  0.26612564821E-02  0.23487315754E-01  0.00000000000E+00 0. -1.
     999901    1    3    3    0    0  0.11125097240E+00 -0.75633425507E-01 -0.60369982885E-01  0.89226774499E+00  0.88000000000E+00 0. -1.
        -11    1    4    4    0    0 -0.41292591023E-01  0.36330530925E-01  0.26890155120E-01  0.61223582989E-01  0.51100000000E-03 0. -1.
         11    1    4    4    0    0 -0.55650492675E-01  0.20867709847E-01  0.30818571283E-01  0.66951356268E-01  0.51100000000E-03 0.  1.
</event>
<event>
 8    1  0.1094829E+005  0.1043930E+01  0.7957747E-01            NaN
         13   -1    0    0    0    0  0.00000000000E+00  0.00000000000E+00  0.74505805969E-08  0.10566000000E+00  0.10566000000E+00 0. -1.
     999900   -1    0    0    0    0 -0.00000000000E+00 -0.00000000000E+00 -0.74505805969E-08  0.93827000000E+00  0.93827000000E+00 0. -1.
     999902    2    1    2    0    0  0.20750947896E-01 -0.18712671965E-02  0.11182451090E-01  0.10202836326E+01  0.10200095785E+01 0.  0.
     999903    2    3    3    0    0  0.83354883458E-01 -0.10056251047E+00 -0.10838202426E-01  0.13228356309E+00  0.17905846079E-01 0.  0.
         14    1    1    2    0    0 -0.20750947896E-01  0.18712671965E-02 -0.11182451090E-01  0.23646367414E-01  0.00000000000E+00 0. -1.
     999901    1    3    3    0    0 -0.62603935562E-01  0.98691243270E-01  0.22020653516E-01  0.88800006950E+00  0.88000000000E+00 0. -1.
        -11    1    4    4    0    0  0.72746807420E-01 -0.87562022447E-01 -0.33152590268E-02  0.11388791783E+00  0.51100000000E-03 0. -1.
         11    1    4    4    0    0  0.10608076038E-01 -0.13000488019E-01 -0.75229433993E-02  0.18395645255E-01  0.51100000000E-03 0.  1.
</event>
<event>
 8    1  0.1094829E+005  0.1043930E+01  0.7957747E-01            NaN
         13   -1    0    0    0    0  0.00000000000E+00  0.00000000000E+00  0.74505805969E-08  0.10566000000E+00  0.10566000000E+00 0. -1.
     999900   -1    0    0    0    0 -0.00000000000E+00 -0.00000000000E+00 -0.74505805969E-08  0.93827000000E+00  0.93827000000E+00 0. -1.
     999902    2    1    2    0    0  0.69603512857E-02 -0.87584576623E-02  0.22939921748E-01  0.10184075181E+01  0.10180876563E+01 0.  0.
     999903    2    3    3    0    0  0.12386334638E+00  0.14589275651E-01 -0.26284838670E-01  0.12900631286E+00  0.19918847150E-01 0.  0.
         14    1    1    2    0    0 -0.69603512857E-02  0.87584576623E-02 -0.22939921748E-01  0.25522481863E-01  0.00000000000E+00 0.  1.
     999901    1    3    3    0    0 -0.11690299510E+00 -0.23347733313E-01  0.49224760418E-01  0.88940120528E+00  0.88000000000E+00 0.  1.
        -11    1    4    4    0    0  0.39783284734E-01 -0.28386628529E-02 -0.28100743684E-02  0.39986565118E-01  0.51100000000E-03 0.  1.
         11    1    4    4    0    0  0.84080061651E-01  0.17427938504E-01 -0.23474764301E-01  0.89019747740E-01  0.51100000000E-03 0. -1.
</event>
<event>
 8    1  0.1094829E+005  0.1043930E+01  0.7957747E-01            NaN
         13   -1    0    0    0    0  0.00000000000E+00  0.00000000000E+00  0.74505805969E-08  0.10566000000E+00  0.10566000000E+00 0. -1.
     999900   -1    0    0    0    0 -0.00000000000E+00 -0.00000000000E+00 -0.74505805969E-08  0.93827000000E+00  0.93827000000E+00 0.  1.
     999902    2    1    2    0    0 -0.17585532835E-01  0.63572789540E-03  0.16158049303E-01  0.10200398834E+01  0.10197600826E+01 0.  0.
     999903    2    3    3    0    0  0.11519675234E-01  0.12750488975E+00  0.14886273394E-01  0.13046441453E+00  0.20227765450E-01 0.  0.
         14    1    1    2    0    0  0.17585532835E-01 -0.63572789540E-03 -0.16158049303E-01  0.23890116624E-01  0.00000000000E+00 0.  1.
     999901    1    3    3    0    0 -0.29105208068E-01 -0.12686916185E+00  0.12717759089E-02  0.88957546885E+00  0.88000000000E+00 0. -1.
        -11    1    4    4    0    0  0.67909393052E-04  0.72066825728E-01  0.16081071589E-01  0.73841004643E-01  0.51100000000E-03 0.  1.
         11    1    4    4    0    0  0.11451765841E-01  0.55438064019E-01 -0.11947981952E-02  0.56623409883E-01  0.51100000000E-03 0. -1.
</event>
<event>
 8    1  0.1094829E+005  0.1043930E+01  0.7957747E-01            NaN
         13   -1    0    0    0    0  0.00000000000E+00  0.00000000000E+00  0.74505805969E-08  0.10566000000E+00  0.10566000000E+00 0.  1.
     999900   -1    0    0    0    0 -0.00000000000E+00 -0.00000000000E+00 -0.74505805969E-08  0.93827000000E+00  0.93827000000E+00 0. -1.
     999902    2    1    2    0    0  0.29241440926E-02 -0.23797809131E-01  0.15645882205E-02  0.10199022187E+01  0.10196191453E+01 0.  0.
     999903    2    3    3    0    0  0.61882373901E-01  0.10345389627E+00 -0.37222052696E-01  0.12795296403E+00  0.21315321802E-01 0.  0.
         14    1    1    2    0    0 -0.29241440926E-02  0.23797809131E-01 -0.15645882205E-02  0.24027781305E-01  0.00000000000E+00 0.  1.
     999901    1    3    3    0    0 -0.58958229808E-01 -0.12725170540E+00  0.38786640917E-01  0.89194925467E+00  0.88000000000E+00 0. -1.
        -11    1    4    4    0    0  0.26376617730E-01  0.30046662049E-01 -0.19580593774E-01  0.44521777106E-01  0.51100000000E-03 0.  1.
         11    1    4    4    0    0  0.35505756171E-01  0.73407234220E-01 -0.17641458922E-01  0.83431186921E-01  0.51100000000E-03 0. -1.
</event>
<event>
 8    1  0.1094829E+005  0.1043930E+01  0.7957747E-01            NaN
         13   -1    0    0    0    0  0.00000000000E+00  0.00000000000E+00  0.74505805969E-08  0.10566000000E+00  0.10566000000E+00 0.  1.
     999900   -1    0    0    0    0 -0.00000000000E+00 -0.00000000000E+00 -0.74505805969E-08  0.93827000000E+00  0.93827000000E+00 0. -1.
     999902    2    1    2    0    0 -0.14232808447E-01 -0.21270260493E-01 -0.15161101174E-01  0.10141834740E+01  0.10137471397E+01 0.  0.
     999903    2    3    3    0    0 -0.80503136429E-01 -0.61060217986E-02 -0.96511236289E-01  0.12782036843E+00  0.22485314733E-01 0.  0.
         14    1    1    2    0    0  0.14232808447E-01  0.21270260493E-01  0.15161101174E-01  0.29746525958E-01  0.00000000000E+00 0.  1.
     999901    1    3    3    0    0  0.66270327983E-01 -0.15164238694E-01  0.81350135115E-01  0.88636310561E+00  0.88000000000E+00 0.  1.
        -11    1    4    4    0    0 -0.36044542445E-01 -0.59277011206E-03 -0.60116535640E-01  0.70098640464E-01  0.51100000000E-03 0. -1.
         11    1    4    4    0    0 -0.44458593984E-01 -0.55132516865E-02 -0.36394700649E-01  0.57721727967E-01  0.51100000000E-03 0.  1.
</event>
<event>
 8    1  0.1094829E+005  0.1043930E+01  0.7957747E-01            NaN
         13   -1    0    0    0    0  0.00000000000E+00  0.00000000000E+00  0.74505805969E-08  0.10566000000E+00  0.10566000000E+00 0. -1.
     999900   -1    0    0    0    0 -0.00000000000E+00 -0.00000000000E+00 -0.74505805969E-08  0.93827000000E+00  0.93827000000E+00 0.  1.
     999902    2    1    2    0    0  0.13464360615E-01 -0.15241535909E-01 -0.12979584285E-01  0.10198040175E+01  0.10195185977E+01 0.  0.
     999903    2    3    3    0    0  0.86898506966E-01  0.28069482537E-01 -0.93229560920E-01  0.13204927832E+00  0.20149801839E-01 0.  0.
         14    1    1    2    0    0 -0.13464360615E-01  0.15241535909E-01  0.12979584285E-01  0.24125982505E-01  0.00000000000E+00 0. -1.
     999901    1    3    3    0    0 -0.73434146351E-01 -0.43311018446E-01  0.80249976635E-01  0.88775473917E+00  0.88000000000E+00 0. -1.
        -11    1    4    4    0    0  0.30621441833E-01  0.98353185734E-02 -0.47075910971E-01  0.57015863635E-01  0.51100000000E-03 0. -1.
         11    1    4    4    0    0  0.56277065132E-01  0.18234163964E-01 -0.46153649949E-01  0.75033414689E-01  0.51100000000E-03 0.  1.
</event>
<event>
 8    1  0.1509095E+005  0.1043930E+01  0.7957747E-01            NaN
         13   -1    0    0    0    0  0.00000000000E+00  0.00000000000E+00  0.74505805969E-08  0.10566000000E+00  0.10566000000E+00 0. -1.
     999900   -1    0    0    0    0 -0.00000000000E+00 -0.00000000000E+00 -0.74505805969E-08  0.93827000000E+00  0.93827000000E+00 0.  1.
     999902    2    1    2    0    0 -0.16052460050E-02 -0.20844345053E-01  0.16951680858E-01  0.10170148924E+01  0.10166586783E+01 0.  0.
     999903    2    3    3    0    0  0.29882008961E-01 -0.93101963604E-03  0.12542136111E+00  0.12957269183E+00  0.12836019166E-01 0.  0.
         14    1    1    2    0    0  0.16052460050E-02  0.20844345053E-01 -0.16951680858E-01  0.26915107641E-01  0.00000000000E+00 0.  1.
     999901    1    3    3    0    0 -0.31487254966E-01 -0.19913325417E-01 -0.10846968025E+00  0.88744220053E+00  0.88000000000E+00 0.  1.
        -11    1    4    4    0    0  0.89707813996E-02  0.13295710156E-02  0.64147290407E-01  0.64787179793E-01  0.51100000000E-03 0. -1.
         11    1    4    4    0    0  0.20911227561E-01 -0.22605906516E-02  0.61274070699E-01  0.64785512032E-01  0.51100000000E-03 0.  1.
</event>
<event>
 8    1  0.1094829E+005  0.1043930E+01  0.7957747E-01            NaN
         13   -1    0    0    0    0  0.00000000000E+00  0.00000000000E+00  0.74505805969E-08  0.10566000000E+00  0.10566000000E+00 0. -1.
     999900   -1    0    0    0    0 -0.00000000000E+00 -0.00000000000E+00 -0.74505805969E-08  0.93827000000E+00  0.93827000000E+00 0.  1.
     999902    2    1    2    0    0  0.17214866983E-01 -0.15782757484E-01  0.53987929807E-02  0.10199593086E+01  0.10196775947E+01 0.  0.
     999903    2    3    3    0    0  0.10620051373E+00 -0.46355183634E-01 -0.61093337632E-01  0.13244912728E+00  0.19570979749E-01 0.  0.
         14    1    1    2    0    0 -0.17214866983E-01  0.15782757484E-01 -0.53987929807E-02  0.23970691369E-01  0.00000000000E+00 0. -1.
     999901    1    3    3    0    0 -0.88985646746E-01  0.30572426150E-01  0.66492130613E-01  0.88751018135E+00  0.88000000000E+00 0. -1.
        -11    1    4    4    0    0  0.82870310998E-01 -0.43717872422E-01 -0.44726628846E-01  0.10382424217E+00  0.51100000000E-03 0. -1.
         11    1    4    4    0    0  0.23330202732E-01 -0.26373112119E-02 -0.16366708786E-01  0.28624885107E-01  0.51100000000E-03 0.  1.
</event>
<event>
 8    1  0.1094829E+005  0.1043930E+01  0.7957747E-01            NaN
         13   -1    0    0    0    0  0.00000000000E+00  0.00000000000E+00  0.74505805969E-08  0.10566000000E+00  0.10566000000E+00 0.  1.
     999900   -1    0    0    0    0 -0.00000000000E+00 -0.00000000000E+00 -0.74505805969E-08  0.93827000000E+00  0.93827000000E+00 0.  1.
     999902    2    1    2    0    0 -0.55103398543E-02 -0.11176476220E-02  0.23049749534E-01  0.10202044034E+01  0.10199284880E+01 0.  0.
     999903    2    3    3    0    0  0.37702091589E-01  0.70040599846E-02  0.12582841766E+00  0.13313240462E+00  0.20516868699E-01 0.  0.
         14    1    1    2    0    0  0.55103398543E-02  0.11176476220E-02 -0.23049749534E-01  0.23725596622E-01  0.00000000000E+00 0. -1.
     999901    1    3    3    0    0 -0.43212431443E-01 -0.81217076065E-02 -0.10277866813E+00  0.88707199876E+00  0.88000000000E+00 0.  1.
        -11    1    4    4    0    0  0.31266058963E-01  0.12856919408E-01  0.87015294395E-01  0.93353036369E-01  0.51100000000E-03 0. -1.
         11    1    4    4    0    0  0.64360326258E-02 -0.58528594237E-02  0.38813123266E-01  0.39779368246E-01  0.51100000000E-03 0.  1.
</event>
<event>
 8    1  0.1094829E+005  0.1043930E+01  0.7957747E-01            NaN
         13   -1    0    0    0    0  0.00000000000E+00  0.00000000000E+00  0.74505805969E-08  0.10566000000E+00  0.10566000000E+00 0.  1.
     999900   -1    0    0    0    0 -0.00000000000E+00 -0.00000000000E+00 -0.74505805969E-08  0.93827000000E+00  0.93827000000E+00 0. -1.
     999902    2    1    2    0    0 -0.23529087549E-01 -0.16723824506E-02  0.64087149998E-03  0.10203328489E+01  0.10200599477E+01 0.  0.
     999903    2    3    3    0    0  0.19884259620E-01  0.11669931125E-01  0.12658152502E+00  0.13020713628E+00  0.19986114942E-01 0.  0.
         14    1    1    2    0    0  0.23529087549E-01  0.16723824506E-02 -0.64087149998E-03  0.23597151104E-01  0.00000000000E+00 0.  1.
     999901    1    3    3    0    0 -0.43413347169E-01 -0.13342313576E-01 -0.12594065352E+00  0.89012571261E+00  0.88000000000E+00 0. -1.
        -11    1    4    4    0    0  0.20285736418E-01  0.39873626121E-02  0.66729377040E-01  0.69860439762E-01  0.51100000000E-03 0.  1.
         11    1    4    4    0    0 -0.40147679850E-03  0.76825685132E-02  0.59852147978E-01  0.60346696522E-01  0.51100000000E-03 0. -1.
</event>
<event>
 8    1  0.1094829E+005  0.1043930E+01  0.7957747E-01            NaN
         13   -1    0    0    0    0  0.00000000000E+00  0.00000000000E+00  0.74505805969E-08  0.10566000000E+00  0.10566000000E+00 0. -1.
     999900   -1    0    0    0    0 -0.00000000000E+00 -0.00000000000E+00 -0.74505805969E-08  0.93827000000E+00  0.93827000000E+00 0.  1.
     999902    2    1    2    0    0  0.16092181280E-01  0.12630183275E-01 -0.16731251480E-02  0.10234049135E+01  0.10231990705E+01 0.  0.
     999903    2    3    3    0    0  0.24506437042E-01 -0.77858953446E-01  0.10268453185E+00  0.13259090141E+00  0.19330079351E-01 0.  0.
         14    1    1    2    0    0 -0.16092181280E-01 -0.12630183275E-01  0.16731251480E-02  0.20525086496E-01  0.00000000000E+00 0.  1.
     999901    1    3    3    0    0 -0.84142557626E-02  0.90489136722E-01 -0.10435765700E+00  0.89081401209E+00  0.88000000000E+00 0.  1.
        -11    1    4    4    0    0 -0.76774700777E-03 -0.20089368656E-01  0.32688955537E-01  0.38379696502E-01  0.51100000000E-03 0.  1.
         11    1    4    4    0    0  0.25274184050E-01 -0.57769584790E-01  0.69995576314E-01  0.94211204911E-01  0.51100000000E-03 0. -1.
</event>
<event>
 8    1  0.1094829E+005  0.1043930E+01  0.7957747E-01            NaN
         13   -1    0    0    0    0  0.00000000000E+00  0.00000000000E+00  0.74505805969E-08  0.10566000000E+00  0.10566000000E+00 0. -1.
     999900   -1    0    0    0    0 -0.00000000000E+00 -0.00000000000E+00 -0.74505805969E-08  0.93827000000E+00  0.93827000000E+00 0.  1.
     999902    2    1    2    0    0  0.66079468114E-02  0.22486017651E-01 -0.13424903726E-02  0.10204547315E+01  0.10201846749E+01 0.  0.
     999903    2    3    3    0    0 -0.26122784597E-01  0.12748724611E+00 -0.26667235859E-01  0.13324680689E+00  0.10400590474E-01 0.  0.
         14    1    1    2    0    0 -0.66079468114E-02 -0.22486017651E-01  0.13424903726E-02  0.23475268502E-01  0.00000000000E+00 0. -1.
     999901    1    3    3    0    0  0.32730731408E-01 -0.10500122846E+00  0.25324745486E-01  0.88720792461E+00  0.88000000000E+00 0.  1.
        -11    1    4    4    0    0 -0.17830172352E-01  0.67672728871E-01 -0.17782126749E-01  0.72207883446E-01  0.51100000000E-03 0.  1.
         11    1    4    4    0    0 -0.82926122452E-02  0.59814517237E-01 -0.88851091096E-02  0.61038923443E-01  0.51100000000E-03 0. -1.
</event>
<event>
 8    1  0.1094829E+005  0.1043930E+01  0.7957747E-01            NaN
         13   -1    0    0    0    0  0.00000000000E+00  0.00000000000E+00  0.74505805969E-08  0.10566000000E+00  0.10566000000E+00 0.  1.
     999900   -1    0    0    0    0 -0.00000000000E+00 -0.00000000000E+00 -0.74505805969E-08  0.93827000000E+00  0.93827000000E+00 0.  1.
     999902    2    1    2    0    0 -0.23842212337E-01 -0.12712165737E-03  0.43248661193E-02  0.10196983736E+01  0.10194104186E+01 0.  0.
     999903    2    3    3    0    0  0.88188582518E-01  0.33907305873E-01 -0.83141550208E-01  0.12764477927E+00  0.21301193037E-01 0.  0.
         14    1    1    2    0    0  0.23842212337E-01  0.12712165737E-03 -0.43248661193E-02  0.24231626359E-01  0.00000000000E+00 0. -1.
     999901    1    3    3    0    0 -0.11203079485E+00 -0.34034427530E-01  0.87466416327E-01  0.89205359438E+00  0.88000000000E+00 0. -1.
        -11    1    4    4    0    0  0.52597280901E-01  0.99059544309E-02 -0.51847797900E-01  0.74518837615E-01  0.51100000000E-03 0. -1.
         11    1    4    4    0    0  0.35591301617E-01  0.24001351442E-01 -0.31293752309E-01  0.53125941651E-01  0.51100000000E-03 0.  1.
</event>
<event>
 8    1  0.1094829E+005  0.1043930E+01  0.7957747E-01            NaN
         13   -1    0    0    0    0  0.00000000000E+00  0.00000000000E+00  0.74505805969E-08  0.10566000000E+00  0.10566000000E+00 0. -1.
     999900   -1    0    0    0    0 -0.00000000000E+00 -0.00000000000E+00 -0.74505805969E-08  0.93827000000E+00  0.93827000000E+00 0. -1.
     999902    2    1    2    0    0 -0.37804512458E-02 -0.11172173824E-01 -0.21506738245E-01  0.10194014642E+01  0.10191063223E+01 0.  0.
     999903    2    3    3    0    0 -0.11178000621E-01  0.11494460461E+00 -0.54850997825E-01  0.12975434021E+00  0.22143780467E-01 0.  0.
         14    1    1    2    0    0  0.37804512458E-02  0.11172173824E-01  0.21506738245E-01  0.24528535821E-01  0.00000000000E+00 0. -1.
     999901    1    3    3    0    0  0.73975493751E-02 -0.12611677844E+00  0.33344259579E-01  0.88964712397E+00  0.88000000000E+00 0. -1.
        -11    1    4    4    0    0 -0.89959131359E-02  0.45615686501E-01 -0.33041468537E-01  0.57041362819E-01  0.51100000000E-03 0. -1.
         11    1    4    4    0    0 -0.21820874850E-02  0.69328918111E-01 -0.21809529288E-01  0.72712977390E-01  0.51100000000E-03 0.  1.
</event>
<event>
 8    1  0.1094829E+005  0.1043930E+01  0.7957747E-01            NaN
         13   -1    0    0    0    0  0.00000000000E+00  0.00000000000E+00  0.74505805969E-08  0.10566000000E+00  0.10566000000E+00 0. -1.
     999900   -1    0    0    0    0 -0.00000000000E+00 -0.00000000000E+00 -0.74505805969E-08  0.93827000000E+00  0.93827000000E+00 0.  1.
     999902    2    1    2    0    0 -0.17789409320E-01 -0.12824900326E-02  0.14129529915E-01  0.10211758470E+01  0.10209223080E+01 0.  0.
     999903    2    3    3    0    0 -0.26042119881E-02  0.33094584359E-01 -0.12370360612E+00  0.12965448051E+00  0.20141219302E-01 0.  0.
         14    1    1    2    0    0  0.17789409320E-01  0.12824900326E-02 -0.14129529915E-01  0.22754153034E-01  0.00000000000E+00 0.  1.
     999901    1    3    3    0    0 -0.15185197332E-01 -0.34377074392E-01  0.13783313603E+00  0.89152136646E+00  0.88000000000E+00 0. -1.
        -11    1    4    4    0    0  0.81826349225E-02  0.20178332508E-01 -0.62959674483E-01  0.66620585025E-01  0.51100000000E-03 0.  1.
         11    1    4    4    0    0 -0.10786846911E-01  0.12916251851E-01 -0.60743931637E-01  0.63033895484E-01  0.51100000000E-03 0. -1.
</event>
<event>
 8    1  0.1094829E+005  0.1043930E+01  0.7957747E-01            NaN
         13   -1    0    0    0    0  0.00000000000E+00  0.00000000000E+00  0.74505805969E-08  0.10566000000E+00  0.10566000000E+00 0. -1.
     999900   -1    0    0    0    0 -0.00000000000E+00 -0.00000000000E+00 -0.74505805969E-08  0.93827000000E+00  0.93827000000E+00 0. -1.
     999902    2    1    2    0    0 -0.18704766275E-02  0.13352002286E-01  0.19650408665E-01  0.10200990703E+01  0.10198206706E+01 0.  0.
     999903    2    3    3    0    0  0.10722521471E+00 -0.20392059650E-01 -0.65066615491E-01  0.12868586325E+00  0.20329883983E-01 0.  0.
         14    1    1    2    0    0  0.18704766275E-02 -0.13352002286E-01 -0.19650408665E-01  0.23830929662E-01  0.00000000000E+00 0.  1.
     999901    1    3    3    0    0 -0.10909569134E+00  0.33744061936E-01  0.84717024156E-01  0.89141320709E+00  0.88000000000E+00 0.  1.
        -11    1    4    4    0    0  0.48773777363E-01 -0.19567621987E-01 -0.29953171874E-01  0.60491543333E-01  0.51100000000E-03 0.  1.
         11    1    4    4    0    0  0.58451437349E-01 -0.82443766244E-03 -0.35113443617E-01  0.68194319919E-01  0.51100000000E-03 0. -1.
</event>
<event>
 8    1  0.1094829E+005  0.1043930E+01  0.7957747E-01            NaN
         13   -1    0    0    0    0  0.00000000000E+00  0.00000000000E+00  0.74505805969E-08  0.10566000000E+00  0.10566000000E+00 0.  1.
     999900   -1    0    0    0    0 -0.00000000000E+00 -0.00000000000E+00 -0.74505805969E-08  0.93827000000E+00  0.93827000000E+00 0. -1.
     999902    2    1    2    0    0 -0.48673485388E-02  0.15966496078E-01  0.25457146698E-01  0.10134884758E+01  0.10130311960E+01 0.  0.
     999903    2    3    3    0    0  0.41188789399E-01  0.11374246530E+00  0.31675477957E-01  0.12685440490E+00  0.21326963110E-01 0.  0.
         14    1    1    2    0    0  0.48673485388E-02 -0.15966496078E-01 -0.25457146698E-01  0.30441524219E-01  0.00000000000E+00 0.  1.
     999901    1    3    3    0    0 -0.46056137938E-01 -0.97775969219E-01 -0.62183312589E-02  0.88663407088E+00  0.88000000000E+00 0. -1.
        -11    1    4    4    0    0  0.79952029940E-02  0.52427632232E-01  0.11494620364E-01  0.54267553020E-01  0.51100000000E-03 0.  1.
         11    1    4    4    0    0  0.33193586405E-01  0.61314833064E-01  0.20180857593E-01  0.72586851883E-01  0.51100000000E-03 0. -1.
</event>
<event>
 8    1  0.1094829E+005  0.1043930E+01  0.7957747E-01            NaN
         13   -1    0    0    0    0  0.00000000000E+00  0.00000000000E+00  0.74505805969E-08  0.10566000000E+00  0.10566000000E+00 0. -1.
     999900   -1    0    0    0    0 -0.00000000000E+00 -0.00000000000E+00 -0.74505805969E-08  0.93827000000E+00  0.93827000000E+00 0.  1.
     999902    2    1    2    0    0 -0.22616368118E-01  0.13211305090E-01 -0.22173386520E-02  0.10176439718E+01  0.10173044274E+01 0.  0.
     999903    2    3    3    0    0  0.46189110887E-01  0.39654811858E-01 -0.11083190478E+00  0.12790773167E+00  0.19254574372E-01 0.  0.
         14    1    1    2    0    0  0.22616368118E-01 -0.13211305090E-01  0.22173386520E-02  0.26286028223E-01  0.00000000000E+00 0. -1.
     999901    1    3    3    0    0 -0.68805479005E-01 -0.26443506767E-01  0.10861456613E+00  0.88973624011E+00  0.88000000000E+00 0. -1.
        -11    1    4    4    0    0 -0.31679121695E-03  0.56369839529E-02 -0.15623672054E-01  0.16620354816E-01  0.51100000000E-03 0.  1.
         11    1    4    4    0    0  0.46505902104E-01  0.34017827905E-01 -0.95208232729E-01  0.11128737685E+00  0.51100000000E-03 0. -1.
</event>
<event>
 8    1  0.1094829E+005  0.1043930E+01  0.7957747E-01            NaN
         13   -1    0    0    0    0  0.00000000000E+00  0.00000000000E+00  0.74505805969E-08  0.10566000000E+00  0.10566000000E+00 0. -1.
     999900   -1    0    0    0    0 -0.00000000000E+00 -0.00000000000E+00 -0.74505805969E-08  0.93827000000E+00  0.93827000000E+00 0. -1.
     999902    2    1    2    0    0  0.89650667049E-03  0.71267991582E-02  0.22882386202E-01  0.10199467019E+01  0.10196646881E+01 0.  0.
     999903    2    3    3    0    0 -0.48734878098E-01 -0.58497276466E-02 -0.11601473447E+00  0.12757678154E+00  0.20176940236E-01 0.  0.
         14    1    1    2    0    0 -0.89650667049E-03 -0.71267991582E-02 -0.22882386202E-01  0.23983298121E-01  0.00000000000E+00 0.  1.
     999901    1    3    3    0    0  0.49631384768E-01  0.12976526805E-01  0.13889712067E+00  0.89236992034E+00  0.88000000000E+00 0.  1.
        -11    1    4    4    0    0 -0.34497879585E-01  0.19491056654E-02 -0.59839431397E-01  0.69100805926E-01  0.51100000000E-03 0.  1.
         11    1    4    4    0    0 -0.14236998513E-01 -0.77988333120E-02 -0.56175303069E-01  0.58475975611E-01  0.51100000000E-03 0. -1.
</event>
<event>
 8    1  0.1094829E+005  0.1043930E+01  0.7957747E-01            NaN
         13   -1    0    0    0    0  0.00000000000E+00  0.00000000000E+00  0.74505805969E-08  0.10566000000E+00  0.10566000000E+00 0.  1.
     999900   -1    0    0    0    0 -0.00000000000E+00 -0.00000000000E+00 -0.74505805969E-08  0.93827000000E+00  0.93827000000E+00 0. -1.
     999902    2    1    2    0    0  0.59463320067E-02 -0.21400500541E-01  0.71964355161E-02  0.10205820028E+01  0.10203149002E+01 0.  0.
     999903    2    3    3    0    0 -0.96257488119E-01  0.81830730174E-01  0.17101138958E-01  0.12861764760E+00  0.16978748531E-01 0.  0.
         14    1    1    2    0    0 -0.59463320067E-02  0.21400500541E-01 -0.71964355161E-02  0.23347997170E-01  0.00000000000E+00 0. -1.
     999901    1    3    3    0    0  0.10220382013E+00 -0.10323123071E+00 -0.99047034415E-02  0.89196435523E+00  0.88000000000E+00 0.  1.
        -11    1    4    4    0    0 -0.51296114438E-01  0.48815432737E-01  0.17038562185E-01  0.72834137271E-01  0.51100000000E-03 0. -1.
         11    1    4    4    0    0 -0.44961373681E-01  0.33015297437E-01  0.62576772324E-04  0.55783510332E-01  0.51100000000E-03 0.  1.
</event>
<event>
 8    1  0.1094829E+005  0.1043930E+01  0.7957747E-01            NaN
         13   -1    0    0    0    0  0.00000000000E+00  0.00000000000E+00  0.74505805969E-08  0.10566000000E+00  0.10566000000E+00 0. -1.
     999900   -1    0    0    0    0 -0.00000000000E+00 -0.00000000000E+00 -0.74505805969E-08  0.93827000000E+00  0.93827000000E+00 0. -1.
     999902    2    1    2    0    0  0.17205088293E-01 -0.32834017461E-02  0.16207428667E-01  0.10200662925E+01  0.10197871173E+01 0.  0.
     999903    2    3    3    0    0  0.76862474073E-01 -0.84980379199E-01  0.62908678627E-01  0.13304069732E+00  0.24755212148E-01 0.  0.
         14    1    1    2    0    0 -0.17205088293E-01  0.32834017461E-02 -0.16207428667E-01  0.23863707469E-01  0.00000000000E+00 0.  1.
     999901    1    3    3    0    0 -0.59657385781E-01  0.81696977453E-01 -0.46701249960E-01  0.88702559521E+00  0.88000000000E+00 0. -1.
        -11    1    4    4    0    0  0.66164276381E-01 -0.57821767766E-01  0.50206307750E-01  0.10120278037E+00  0.51100000000E-03 0.  1.
         11    1    4    4    0    0  0.10698197693E-01 -0.27158611433E-01  0.12702370877E-01  0.31837916950E-01  0.51100000000E-03 0. -1.
</event>
<event>
 8    1  0.1094829E+005  0.1043930E+01  0.7957747E-01            NaN
         13   -1    0    0    0    0  0.00000000000E+00  0.00000000000E+00  0.74505805969E-08  0.10566000000E+00  0.10566000000E+00 0. -1.
     999900   -1    0    0    0    0 -0.00000000000E+00 -0.00000000000E+00 -0.74505805969E-08  0.93827000000E+00  0.93827000000E+00 0. -1.
     999902    2    1    2    0    0 -0.14026100683E-01 -0.11009570331E-01 -0.11898468764E-01  0.10224936827E+01  0.10222689546E+01 0.  0.
     999903    2    3    3    0    0  0.84139784208E-01  0.11072866414E-01 -0.99586184493E-01  0.13243002744E+00  0.20449752309E-01 0.  0.
         14    1    1    2    0    0  0.14026100683E-01  0.11009570331E-01  0.11898468764E-01  0.21436317272E-01  0.00000000000E+00 0. -1.
     999901    1    3    3    0    0 -0.98165884891E-01 -0.22082436745E-01  0.87687715729E-01  0.89006365528E+00  0.88000000000E+00 0.  1.
        -11    1    4    4    0    0  0.43280472333E-01  0.14171411442E-01 -0.43609470313E-01  0.63056127455E-01  0.51100000000E-03 0. -1.
         11    1    4    4    0    0  0.40859311875E-01 -0.30985450276E-02 -0.55976714180E-01  0.69373899989E-01  0.51100000000E-03 0.  1.
</event>
<event>
 8    1  0.1094829E+005  0.1043930E+01  0.7957747E-01            NaN
         13   -1    0    0    0    0  0.00000000000E+00  0.00000000000E+00  0.74505805969E-08  0.10566000000E+00  0.10566000000E+00 0. -1.
     999900   -1    0    0    0    0 -0.00000000000E+00 -0.00000000000E+00 -0.74505805969E-08  0.93827000000E+00  0.93827000000E+00 0.  1.
     999902    2    1    2    0    0  0.11613677680E-01 -0.19698973082E-01 -0.55067657993E-02  0.10204087007E+01  0.10201375716E+01 0.  0.
     999903    2    3    3    0    0  0.49431008084E-01  0.11699490585E+00 -0.10434355823E-01  0.12903916560E+00  0.20273083715E-01 0.  0.
         14    1    1    2    0    0 -0.11613677680E-01  0.19698973082E-01  0.55067657993E-02  0.23521299269E-01  0.00000000000E+00 0.  1.
     999901    1    3    3    0    0 -0.37817330404E-01 -0.13669387893E+00  0.49275900234E-02  0.89136953513E+00  0.88000000000E+00 0. -1.
        -11    1    4    4    0    0  0.91456450447E-02  0.27841672169E-01 -0.10708982782E-01  0.31204886887E-01  0.51100000000E-03 0.  1.
         11    1    4    4    0    0  0.40285363040E-01  0.89153233677E-01  0.27462695908E-03  0.97834278713E-01  0.51100000000E-03 0. -1.
</event>
<event>
 8    1  0.1094829E+005  0.1043930E+01  0.7957747E-01            NaN
         13   -1    0    0    0    0  0.00000000000E+00  0.00000000000E+00  0.74505805969E-08  0.10566000000E+00  0.10566000000E+00 0. -1.
     999900   -1    0    0    0    0 -0.00000000000E+00 -0.00000000000E+00 -0.74505805969E-08  0.93827000000E+00  0.93827000000E+00 0. -1.
     999902    2    1    2    0    0  0.61351132534E-02  0.10310154366E-01 -0.20648517827E-01  0.10200490413E+01  0.10197694576E+01 0.  0.
     999903    2    3    3    0    0 -0.62550989703E-01  0.10489125508E+00 -0.45865510473E-01  0.13196162331E+00  0.19885252607E-01 0.  0.
         14    1    1    2    0    0 -0.61351132534E-02 -0.10310154366E-01  0.20648517827E-01  0.23880958651E-01  0.00000000000E+00 0.  1.
     999901    1    3    3    0    0  0.68686102957E-01 -0.94581100717E-01  0.25216992646E-01  0.88808741803E+00  0.88000000000E+00 0.  1.
        -11    1    4    4    0    0 -0.32148987482E-01  0.55398545719E-01 -0.13478260783E-01  0.65455946244E-01  0.51100000000E-03 0. -1.
         11    1    4    4    0    0 -0.30402002222E-01  0.49492709363E-01 -0.32387249690E-01  0.66505677071E-01  0.51100000000E-03 0.  1.
</event>
<event>
 8    1  0.1094829E+005  0.1043930E+01  0.7957747E-01            NaN
         13   -1    0    0    0    0  0.00000000000E+00  0.00000000000E+00  0.74505805969E-08  0.10566000000E+00  0.10566000000E+00 0.  1.
     999900   -1    0    0    0    0 -0.00000000000E+00 -0.00000000000E+00 -0.74505805969E-08  0.93827000000E+00  0.93827000000E+00 0. -1.
     999902    2    1    2    0    0  0.57638655906E-02 -0.27729565910E-02 -0.22935449056E-01  0.10201193667E+01  0.10198414465E+01 0.  0.
     999903    2    3    3    0    0  0.68280673867E-01 -0.98499984040E-01 -0.49496396802E-01  0.13232575383E+00  0.26376401410E-01 0.  0.
         14    1    1    2    0    0 -0.57638655906E-02  0.27729565910E-02  0.22935449056E-01  0.23810633301E-01  0.00000000000E+00 0.  1.
     999901    1    3    3    0    0 -0.62516808277E-01  0.95727027449E-01  0.26560947746E-01  0.88779361287E+00  0.88000000000E+00 0. -1.
        -11    1    4    4    0    0  0.23687137800E-01 -0.38294955497E-01 -0.53104592053E-02  0.45343645769E-01  0.51100000000E-03 0. -1.
         11    1    4    4    0    0  0.44593536067E-01 -0.60205028543E-01 -0.44185937597E-01  0.86982108063E-01  0.51100000000E-03 0.  1.
</event>
<event>
 8    1  0.1094829E+005  0.1043930E+01  0.7957747E-01            NaN
         13   -1    0    0    0    0  0.00000000000E+00  0.00000000000E+00  0.74505805969E-08  0.10566000000E+00  0.10566000000E+00 0. -1.
     999900   -1    0    0    0    0 -0.00000000000E+00 -0.00000000000E+00 -0.74505805969E-08  0.93827000000E+00  0.93827000000E+00 0.  1.
     999902    2    1    2    0    0  0.23214635490E-01  0.22229620857E-02 -0.82872419506E-02  0.10191804699E+01  0.10188799198E+01 0.  0.
     999903    2    3    3    0    0  0.10586213226E+00 -0.48684528895E-01 -0.59503990117E-01  0.13236293700E+00  0.20056117521E-01 0.  0.
         14    1    1    2    0    0 -0.23214635490E-01 -0.22229620857E-02  0.82872419506E-02  0.24749530107E-01  0.00000000000E+00 0. -1.
     999901    1    3    3    0    0 -0.82647496770E-01  0.50907490980E-01  0.51216748167E-01  0.88681753290E+00  0.88000000000E+00 0. -1.
        -11    1    4    4    0    0  0.21248029563E-01 -0.18119124242E-01 -0.99312718718E-02  0.29642413963E-01  0.51100000000E-03 0. -1.
         11    1    4    4    0    0  0.84614102697E-01 -0.30565404653E-01 -0.49572718245E-01  0.10272052303E+00  0.51100000000E-03 0.  1.
</event>
<event>
 8    1  0.1094829E+005  0.1043930E+01  0.7957747E-01            NaN
         13   -1    0    0    0    0  0.00000000000E+00  0.00000000000E+00  0.74505805969E-08  0.10566000000E+00  0.10566000000E+00 0. -1.
     999900   -1    0    0    0    0 -0.00000000000E+00 -0.00000000000E+00 -0.74505805969E-08  0.93827000000E+00  0.93827000000E+00 0.  1.
     999902    2    1    2    0    0 -0.17480705237E-01  0.13499342236E-01 -0.90247683097E-02  0.10200709611E+01  0.10197918963E+01 0.  0.
     999903    2    3    3    0    0  0.23742660637E-01 -0.96213312314E-01  0.78545691727E-01  0.12799203073E+00  0.19794414370E-01 0.  0.
         14    1    1    2    0    0  0.17480705237E-01 -0.13499342236E-01  0.90247683097E-02  0.23859038946E-01  0.00000000000E+00 0. -1.
     999901    1    3    3    0    0 -0.41223365875E-01  0.10971265455E+00 -0.87570460036E-01  0.89207893033E+00  0.88000000000E+00 0.  1.
        -11    1    4    4    0    0  0.15963611340E-01 -0.58561837500E-01  0.35689206109E-01  0.70415241618E-01  0.51100000000E-03 0.  1.
         11    1    4    4    0    0  0.77790492968E-02 -0.37651474814E-01  0.42856485618E-01  0.57576789109E-01  0.51100000000E-03 0. -1.
</event>
<event>
 8    1  0.1094829E+005  0.1043930E+01  0.7957747E-01            NaN
         13   -1    0    0    0    0  0.00000000000E+00  0.00000000000E+00  0.74505805969E-08  0.10566000000E+00  0.10566000000E+00 0.  1.
     999900   -1    0    0    0    0 -0.00000000000E+00 -0.00000000000E+00 -0.74505805969E-08  0.93827000000E+00  0.93827000000E+00 0. -1.
     999902    2    1    2    0    0 -0.74965076437E-02  0.14697189873E-01 -0.10840735550E-01  0.10241885065E+01  0.10239982277E+01 0.  0.
     999903    2    3    3    0    0 -0.68969465458E-01 -0.10869322377E+00 -0.27871526554E-01  0.13329335751E+00  0.20476647782E-01 0.  0.
         14    1    1    2    0    0  0.74965076437E-02 -0.14697189873E-01  0.10840735550E-01  0.19741493466E-01  0.00000000000E+00 0.  1.
     999901    1    3    3    0    0  0.61472957814E-01  0.12339041364E+00  0.17030791004E-01  0.89089514903E+00  0.88000000000E+00 0. -1.
        -11    1    4    4    0    0 -0.31666548968E-01 -0.56059943378E-01 -0.23820487203E-01  0.68652489443E-01  0.51100000000E-03 0.  1.
         11    1    4    4    0    0 -0.37302916490E-01 -0.52633280388E-01 -0.40510393508E-02  0.64640868063E-01  0.51100000000E-03 0. -1.
</event>
<event>
 8    1  0.1094829E+005  0.1043930E+01  0.7957747E-01            NaN
         13   -1    0    0    0    0  0.00000000000E+00  0.00000000000E+00  0.74505805969E-08  0.10566000000E+00  0.10566000000E+00 0.  1.
     999900   -1    0    0    0    0 -0.00000000000E+00 -0.00000000000E+00 -0.74505805969E-08  0.93827000000E+00  0.93827000000E+00 0. -1.
     999902    2    1    2    0    0 -0.15862246598E-01 -0.17550016846E-01  0.30347649946E-02  0.10200799736E+01  0.10198011222E+01 0.  0.
     999903    2    3    3    0    0 -0.84806210963E-01  0.93511114156E-01  0.24505501027E-01  0.13016490043E+00  0.20148444941E-01 0.  0.
         14    1    1    2    0    0  0.15862246598E-01  0.17550016846E-01 -0.30347649946E-02  0.23850026353E-01  0.00000000000E+00 0.  1.
     999901    1    3    3    0    0  0.68943964365E-01 -0.11106113100E+00 -0.21470736032E-01  0.88991507322E+00  0.88000000000E+00 0. -1.
        -11    1    4    4    0    0 -0.18620604018E-01  0.22932600812E-01  0.14439908789E-01  0.32884694933E-01  0.51100000000E-03 0.  1.
         11    1    4    4    0    0 -0.66185606946E-01  0.70578513343E-01  0.10065592238E-01  0.97280205492E-01  0.51100000000E-03 0. -1.
</event>
<event>
 8    1  0.1094829E+005  0.1043930E+01  0.7957747E-01            NaN
         13   -1    0    0    0    0  0.00000000000E+00  0.00000000000E+00  0.74505805969E-08  0.10566000000E+00  0.10566000000E+00 0.  1.
     999900   -1    0    0    0    0 -0.00000000000E+00 -0.00000000000E+00 -0.74505805969E-08  0.93827000000E+00  0.93827000000E+00 0. -1.
     999902    2    1    2    0    0 -0.13882904732E-01  0.18598525758E-01 -0.34755146112E-03  0.10207187744E+01  0.10204548277E+01 0.  0.
     999903    2    3    3    0    0 -0.54459328052E-01  0.10695003909E+00  0.56903672328E-01  0.13351522461E+00  0.13570482865E-01 0.  0.
         14    1    1    2    0    0  0.13882904732E-01 -0.18598525758E-01  0.34755146112E-03  0.23211225650E-01  0.00000000000E+00 0.  1.
     999901    1    3    3    0    0  0.40576423320E-01 -0.88351513337E-01 -0.57251223789E-01  0.88720354974E+00  0.88000000000E+00 0. -1.
        -11    1    4    4    0    0 -0.12721690496E-01  0.37817304914E-01  0.16010713290E-01  0.42995279056E-01  0.51100000000E-03 0.  1.
         11    1    4    4    0    0 -0.41737637555E-01  0.69132734181E-01  0.40892959039E-01  0.90519945558E-01  0.51100000000E-03 0. -1.
</event>
<event>
 8    1  0.1094829E+005  0.1043930E+01  0.7957747E-01            NaN
         13   -1    0    0    0    0  0.00000000000E+00  0.00000000000E+00  0.74505805969E-08  0.10566000000E+00  0.10566000000E+00 0.  1.
     999900   -1    0    0    0    0 -0.00000000000E+00 -0.00000000000E+00 -0.74505805969E-08  0.93827000000E+00  0.93827000000E+00 0.  1.
     999902    2    1    2    0    0 -0.50434932640E-02  0.12294092145E-01  0.19378267758E-01  0.10204332175E+01  0.10201626599E+01 0.  0.
     999903    2    3    3    0    0  0.14670416775E-01 -0.99668386162E-01  0.81388401126E-01  0.13095612875E+00  0.19401739362E-01 0.  0.
         14    1    1    2    0    0  0.50434932640E-02 -0.12294092145E-01 -0.19378267758E-01  0.23496782488E-01  0.00000000000E+00 0. -1.
     999901    1    3    3    0    0 -0.19713910039E-01  0.11196247831E+00 -0.62010133368E-01  0.88947708876E+00  0.88000000000E+00 0.  1.
        -11    1    4    4    0    0  0.57903901740E-02 -0.69685760337E-02  0.10767136580E-01  0.14081264909E-01  0.51100000000E-03 0.  1.
         11    1    4    4    0    0  0.88800266012E-02 -0.92699810128E-01  0.70621264546E-01  0.11687486384E+00  0.51100000000E-03 0. -1.
</event>
<event>
 8    1  0.1094829E+005  0.1043930E+01  0.7957747E-01            NaN
         13   -1    0    0    0    0  0.00000000000E+00  0.00000000000E+00  0.74505805969E-08  0.10566000000E+00  0.10566000000E+00 0.  1.
     999900   -1    0    0    0    0 -0.00000000000E+00 -0.00000000000E+00 -0.74505805969E-08  0.93827000000E+00  0.93827000000E+00 0. -1.
     999902    2    1    2    0    0  0.57427184264E-02 -0.92930318081E-02  0.22148220911E-01  0.10192341918E+01  0.10189349610E+01 0.  0.
     999903    2    3    3    0    0 -0.40601254361E-01  0.11954585493E+00  0.13778415109E-01  0.12860672969E+00  0.20252726019E-01 0.  0.
         14    1    1    2    0    0 -0.57427184264E-02  0.92930318081E-02 -0.22148220911E-01  0.24695808241E-01  0.00000000000E+00 0. -1.
     999901    1    3    3    0    0  0.46343972788E-01 -0.12883888674E+00  0.83698058029E-02  0.89062746207E+00  0.88000000000E+00 0.  1.
        -11    1    4    4    0    0 -0.23139976391E-01  0.48198002590E-01  0.13522939898E-01  0.55151037937E-01  0.51100000000E-03 0.  1.
         11    1    4    4    0    0 -0.17461277970E-01  0.71347852339E-01  0.25547521055E-03  0.73455691749E-01  0.51100000000E-03 0. -1.
</event>
<event>
 8    1  0.1094829E+005  0.1043930E+01  0.7957747E-01            NaN
         13   -1    0    0    0    0  0.00000000000E+00  0.00000000000E+00  0.74505805969E-08  0.10566000000E+00  0.10566000000E+00 0. -1.
     999900   -1    0    0    0    0 -0.00000000000E+00 -0.00000000000E+00 -0.74505805969E-08  0.93827000000E+00  0.93827000000E+00 0.  1.
     999902    2    1    2    0    0 -0.20745588347E-01  0.11953865333E-01  0.48978449330E-04  0.10199868020E+01  0.10197057416E+01 0.  0.
     999903    2    3    3    0    0  0.11387745566E+00 -0.24295217470E-01  0.48018721762E-01  0.12772089080E+00  0.21177719634E-01 0.  0.
         14    1    1    2    0    0  0.20745588347E-01 -0.11953865333E-01 -0.48978449330E-04  0.23943198015E-01  0.00000000000E+00 0.  1.
     999901    1    3    3    0    0 -0.13462304401E+00  0.36249082803E-01 -0.47969743313E-01  0.89226591118E+00  0.88000000000E+00 0.  1.
        -11    1    4    4    0    0  0.50068841580E-02 -0.58415486049E-02  0.12978043741E-02  0.78190789911E-02  0.51100000000E-03 0.  1.
         11    1    4    4    0    0  0.10887057150E+00 -0.18453668865E-01  0.46720917388E-01  0.11990181181E+00  0.51100000000E-03 0. -1.
</event>
<event>
 8    1  0.1094829E+005  0.1043930E+01  0.7957747E-01            NaN
         13   -1    0    0    0    0  0.00000000000E+00  0.00000000000E+00  0.74505805969E-08  0.10566000000E+00  0.10566000000E+00 0.  1.
     999900   -1    0    0    0    0 -0.00000000000E+00 -0.00000000000E+00 -0.74505805969E-08  0.93827000000E+00  0.93827000000E+00 0. -1.
     999902    2    1    2    0    0 -0.13706779183E-01 -0.60663585432E-02 -0.18034094969E-01  0.10204799449E+01  0.10202104748E+01 0.  0.
     999903    2    3    3    0    0  0.12067162454E+00 -0.28846836317E-01  0.28204328118E-01  0.12878801532E+00  0.19927062765E-01 0.  0.
         14    1    1    2    0    0  0.13706779183E-01  0.60663585432E-02  0.18034094969E-01  0.23450055072E-01  0.00000000000E+00 0.  1.
     999901    1    3    3    0    0 -0.13437840373E+00  0.22780477774E-01 -0.46238423087E-01  0.89169192961E+00  0.88000000000E+00 0.  1.
        -11    1    4    4    0    0  0.10427811032E+00 -0.18842201585E-01  0.19725717088E-01  0.10778830126E+00  0.51100000000E-03 0. -1.
         11    1    4    4    0    0  0.16393514220E-01 -0.10004634733E-01  0.84786110299E-02  0.20999714060E-01  0.51100000000E-03 0.  1.
</event>
<event>
 8    1  0.1094829E+005  0.1043930E+01  0.7957747E-01            NaN
         13   -1    0    0    0    0  0.00000000000E+00  0.00000000000E+00  0.74505805969E-08  0.10566000000E+00  0.10566000000E+00 0. -1.
     999900   -1    0    0    0    0 -0.00000000000E+00 -0.00000000000E+00 -0.74505805969E-08  0.93827000000E+00  0.93827000000E+00 0. -1.
     999902    2    1    2    0    0 -0.23153042319E-01 -0.42330988814E-02  0.30173792433E-02  0.10202005442E+01  0.10199245381E+01 0.  0.
     999903    2    3    3    0    0 -0.35960250437E-01 -0.69703318191E-03 -0.12434537362E+00  0.13093241863E+00  0.19695198442E-01 0.  0.
         14    1    1    2    0    0  0.23153042319E-01  0.42330988814E-02 -0.30173792433E-02  0.23729455793E-01  0.00000000000E+00 0. -1.
     999901    1    3    3    0    0  0.12807208119E-01 -0.35360656994E-02  0.12736275287E+00  0.88926812557E+00  0.88000000000E+00 0.  1.
        -11    1    4    4    0    0 -0.35320901556E-01 -0.15884157696E-02 -0.91954302112E-01  0.98518749227E-01  0.51100000000E-03 0.  1.
         11    1    4    4    0    0 -0.63934888110E-03  0.89138258768E-03 -0.32391071510E-01  0.32413669407E-01  0.51100000000E-03 0. -1.
</event>
<event>
 8    1  0.1094829E+005  0.1043930E+01  0.7957747E-01            NaN
         13   -1    0    0    0    0  0.00000000000E+00  0.00000000000E+00  0.74505805969E-08  0.10566000000E+00  0.10566000000E+00 0. -1.
     999900   -1    0    0    0    0 -0.00000000000E+00 -0.00000000000E+00 -0.74505805969E-08  0.93827000000E+00  0.93827000000E+00 0. -1.
     999902    2    1    2    0    0  0.18955070109E-01 -0.13214796248E-01  0.12852028562E-02  0.10207874576E+01  0.10205250885E+01 0.  0.
     999903    2    3    3    0    0 -0.33971378128E-01  0.10970459942E+00  0.55361304056E-01  0.12902817871E+00  0.19855559596E-01 0.  0.
         14    1    1    2    0    0 -0.18955070109E-01  0.13214796248E-01 -0.12852028562E-02  0.23142542408E-01  0.00000000000E+00 0. -1.
     999901    1    3    3    0    0  0.52926448237E-01 -0.12291939567E+00 -0.54076101200E-01  0.89175927888E+00  0.88000000000E+00 0. -1.
        -11    1    4    4    0    0 -0.86690987246E-02  0.50023756877E-01  0.16205678144E-01  0.53295540620E-01  0.51100000000E-03 0. -1.
         11    1    4    4    0    0 -0.25302279403E-01  0.59680842547E-01  0.39155625912E-01  0.75732638088E-01  0.51100000000E-03 0.  1.
</event>
<event>
 8    1  0.1094829E+005  0.1043930E+01  0.7957747E-01            NaN
         13   -1    0    0    0    0  0.00000000000E+00  0.00000000000E+00  0.74505805969E-08  0.10566000000E+00  0.10566000000E+00 0.  1.
     999900   -1    0    0    0    0 -0.00000000000E+00 -0.00000000000E+00 -0.74505805969E-08  0.93827000000E+00  0.93827000000E+00 0.  1.
     999902    2    1    2    0    0 -0.23271702125E-01 -0.10819752852E-02  0.56713121263E-02  0.10199527906E+01  0.10196709216E+01 0.  0.
     999903    2    3    3    0    0  0.42245990239E-01 -0.10157716988E+00  0.66150723656E-01  0.12975640137E+00  0.18925124138E-01 0.  0.
         14    1    1    2    0    0  0.23271702125E-01  0.10819752852E-02 -0.56713121263E-02  0.23977209420E-01  0.00000000000E+00 0.  1.
     999901    1    3    3    0    0 -0.65517692364E-01  0.10049519459E+00 -0.60479411530E-01  0.89019638921E+00  0.88000000000E+00 0.  1.
        -11    1    4    4    0    0  0.43445489658E-02 -0.31120598182E-01  0.22164369353E-01  0.38456301522E-01  0.51100000000E-03 0. -1.
         11    1    4    4    0    0  0.37901441273E-01 -0.70456571697E-01  0.43986354303E-01  0.91300099845E-01  0.51100000000E-03 0.  1.
</event>
<event>
 8    1  0.1094829E+005  0.1043930E+01  0.7957747E-01            NaN
         13   -1    0    0    0    0  0.00000000000E+00  0.00000000000E+00  0.74505805969E-08  0.10566000000E+00  0.10566000000E+00 0.  1.
     999900   -1    0    0    0    0 -0.00000000000E+00 -0.00000000000E+00 -0.74505805969E-08  0.93827000000E+00  0.93827000000E+00 0.  1.
     999902    2    1    2    0    0  0.14210517475E-02 -0.18174616540E-02 -0.21473390408E-01  0.10223330315E+01  0.10221048861E+01 0.  0.
     999903    2    3    3    0    0 -0.65679066848E-01 -0.33965199951E-01  0.10536176723E+00  0.13013178722E+00  0.19126040420E-01 0.  0.
         14    1    1    2    0    0 -0.14210517475E-02  0.18174616540E-02  0.21473390408E-01  0.21596968550E-01  0.00000000000E+00 0.  1.
     999901    1    3    3    0    0  0.67100118595E-01  0.32147738297E-01 -0.12683515764E+00  0.89220124423E+00  0.88000000000E+00 0.  1.
        -11    1    4    4    0    0 -0.31727290150E-01 -0.76789964619E-02  0.36423885668E-01  0.48913684129E-01  0.51100000000E-03 0.  1.
         11    1    4    4    0    0 -0.33951776697E-01 -0.26286203489E-01  0.68937881560E-01  0.81218103091E-01  0.51100000000E-03 0. -1.
</event>
<event>
 8    1  0.1094829E+005  0.1043930E+01  0.7957747E-01            NaN
         13   -1    0    0    0    0  0.00000000000E+00  0.00000000000E+00  0.74505805969E-08  0.10566000000E+00  0.10566000000E+00 0.  1.
     999900   -1    0    0    0    0 -0.00000000000E+00 -0.00000000000E+00 -0.74505805969E-08  0.93827000000E+00  0.93827000000E+00 0. -1.
     999902    2    1    2    0    0 -0.78742986784E-02 -0.15778526653E-01  0.15761880245E-01  0.10202782907E+01  0.10200041113E+01 0.  0.
     999903    2    3    3    0    0 -0.52166429228E-04 -0.12124218888E+00 -0.47303596923E-01  0.13170582647E+00  0.20226798035E-01 0.  0.
         14    1    1    2    0    0  0.78742986784E-02  0.15778526653E-01 -0.15761880245E-01  0.23651709280E-01  0.00000000000E+00 0. -1.
     999901    1    3    3    0    0 -0.78221322491E-02  0.10546366223E+00  0.63065477168E-01  0.88857246425E+00  0.88000000000E+00 0.  1.
        -11    1    4    4    0    0 -0.43543429230E-02 -0.79332329027E-01 -0.39964602835E-01  0.88938233240E-01  0.51100000000E-03 0. -1.
         11    1    4    4    0    0  0.43021764938E-02 -0.41909859857E-01 -0.73389940879E-02  0.42767593234E-01  0.51100000000E-03 0.  1.
</event>
<event>
 8    1  0.1094829E+005  0.1043930E+01  0.7957747E-01            NaN
         13   -1    0    0    0    0  0.00000000000E+00  0.00000000000E+00  0.74505805969E-08  0.10566000000E+00  0.10566000000E+00 0.  1.
     999900   -1    0    0    0    0 -0.00000000000E+00 -0.00000000000E+00 -0.74505805969E-08  0.93827000000E+00  0.93827000000E+00 0. -1.
     999902    2    1    2    0    0 -0.19399530740E-01 -0.44007848933E-02  0.13455096614E-01  0.10199144149E+01  0.10196316323E+01 0.  0.
     999903    2    3    3    0    0  0.42364534025E-01  0.11671683741E+00 -0.26356663060E-01  0.12858436702E+00  0.20535137600E-01 0.  0.
         14    1    1    2    0    0  0.19399530740E-01  0.44007848933E-02 -0.13455096614E-01  0.24015585054E-01  0.00000000000E+00 0.  1.
     999901    1    3    3    0    0 -0.61764064764E-01 -0.12111762230E+00  0.39811759674E-01  0.89133004793E+00  0.88000000000E+00 0. -1.
        -11    1    4    4    0    0  0.95541188327E-02  0.54364968679E-01 -0.15126724761E-01  0.57235565247E-01  0.51100000000E-03 0.  1.
         11    1    4    4    0    0  0.32810415192E-01  0.62351868729E-01 -0.11229938300E-01  0.71348801772E-01  0.51100000000E-03 0. -1.
</event>
<event>
 8    1  0.1094829E+005  0.1043930E+01  0.7957747E-01            NaN
         13   -1    0    0    0    0  0.00000000000E+00  0.00000000000E+00  0.74505805969E-08  0.10566000000E+00  0.10566000000E+00 0.  1.
     999900   -1    0    0    0    0 -0.00000000000E+00 -0.00000000000E+00 -0.74505805969E-08  0.93827000000E+00  0.93827000000E+00 0. -1.
     999902    2    1    2    0    0 -0.39675194472E-02 -0.13309150756E-01 -0.20225259444E-01  0.10193956196E+01  0.10191003353E+01 0.  0.
     999903    2    3    3    0    0 -0.23012320168E-01  0.12407404908E+00  0.91468745618E-02  0.12804856577E+00  0.19718857651E-01 0.  0.
         14    1    1    2    0    0  0.39675194472E-02  0.13309150756E-01  0.20225259444E-01  0.24534380449E-01  0.00000000000E+00 0.  1.
     999901    1    3    3    0    0  0.19044800721E-01 -0.13738319983E+00 -0.29372134006E-01  0.89134705378E+00  0.88000000000E+00 0.  1.
        -11    1    4    4    0    0 -0.14169117615E-02  0.45683402241E-01  0.97376040522E-02  0.46733959097E-01  0.51100000000E-03 0.  1.
         11    1    4    4    0    0 -0.21595408407E-01  0.78390646837E-01 -0.59072949041E-03  0.81314606671E-01  0.51100000000E-03 0. -1.
</event>
<event>
 8    1  0.1094829E+005  0.1043930E+01  0.7957747E-01            NaN
         13   -1    0    0    0    0  0.00000000000E+00  0.00000000000E+00  0.74505805969E-08  0.10566000000E+00  0.10566000000E+00 0. -1.
     999900   -1    0    0    0    0 -0.00000000000E+00 -0.00000000000E+00 -0.74505805969E-08  0.93827000000E+00  0.93827000000E+00 0.  1.
     999902    2    1    2    0    0 -0.15013149796E-01  0.86959461702E-02  0.16971279039E-01  0.10196598855E+01  0.10193710039E+01 0.  0.
     999903    2    3    3    0    0 -0.97846652909E-01  0.53887739485E-01 -0.65142101909E-01  0.13081440130E+00  0.19775191362E-01 0.  0.
         14    1    1    2    0    0  0.15013149796E-01 -0.86959461702E-02 -0.16971279039E-01  0.24270114520E-01  0.00000000000E+00 0.  1.
     999901    1    3    3    0    0  0.82833503113E-01 -0.45191793315E-01  0.82113380948E-01  0.88884548418E+00  0.88000000000E+00 0. -1.
        -11    1    4    4    0    0 -0.50954297248E-01  0.17605137808E-01 -0.26812693686E-01  0.60211817353E-01  0.51100000000E-03 0.  1.
         11    1    4    4    0    0 -0.46892355661E-01  0.36282601678E-01 -0.38329408223E-01  0.70602583945E-01  0.51100000000E-03 0. -1.
</event>
<event>
 8    1  0.1094829E+005  0.1043930E+01  0.7957747E-01            NaN
         13   -1    0    0    0    0  0.00000000000E+00  0.00000000000E+00  0.74505805969E-08  0.10566000000E+00  0.10566000000E+00 0.  1.
     999900   -1    0    0    0    0 -0.00000000000E+00 -0.00000000000E+00 -0.74505805969E-08  0.93827000000E+00  0.93827000000E+00 0. -1.
     999902    2    1    2    0    0 -0.12794206537E-01  0.47743364001E-02 -0.18440139796E-01  0.10209838726E+01  0.10207259883E+01 0.  0.
     999903    2    3    3    0    0 -0.28417297481E-01  0.73006689094E-01 -0.10668858927E+00  0.13380433956E+00  0.19586392133E-01 0.  0.
         14    1    1    2    0    0  0.12794206537E-01 -0.47743364001E-02  0.18440139796E-01  0.22946127444E-01  0.00000000000E+00 0.  1.
     999901    1    3    3    0    0  0.15623090943E-01 -0.68232352694E-01  0.88248449476E-01  0.88717953299E+00  0.88000000000E+00 0.  1.
        -11    1    4    4    0    0 -0.67697954064E-02  0.42144444130E-01 -0.50282027427E-01  0.65958530184E-01  0.51100000000E-03 0.  1.
         11    1    4    4    0    0 -0.21647502074E-01  0.30862244964E-01 -0.56406561845E-01  0.67845809380E-01  0.51100000000E-03 0. -1.
</event>
<event>
 8    1  0.1094829E+005  0.1043930E+01  0.7957747E-01            NaN
         13   -1    0    0    0    0  0.00000000000E+00  0.00000000000E+00  0.74505805969E-08  0.10566000000E+00  0.10566000000E+00 0. -1.
     999900   -1    0    0    0    0 -0.00000000000E+00 -0.00000000000E+00 -0.74505805969E-08  0.93827000000E+00  0.93827000000E+00 0.  1.
     999902    2    1    2    0    0 -0.22367680471E-01 -0.28862682497E-02 -0.64522208623E-02  0.10204720626E+01  0.10202024092E+01 0.  0.
     999903    2    3    3    0    0 -0.93872141484E-01  0.76740114344E-01 -0.50870679505E-01  0.13287629410E+00  0.19164013265E-01 0.  0.
         14    1    1    2    0    0  0.22367680471E-01  0.28862682497E-02  0.64522208623E-02  0.23457937422E-01  0.00000000000E+00 0.  1.
     999901    1    3    3    0    0  0.71504461013E-01 -0.79626382594E-01  0.44418458643E-01  0.88759576848E+00  0.88000000000E+00 0. -1.
        -11    1    4    4    0    0 -0.73766371259E-01  0.50749995890E-01 -0.32696118638E-01  0.95322279172E-01  0.51100000000E-03 0.  1.
         11    1    4    4    0    0 -0.20105770225E-01  0.25990118454E-01 -0.18174560867E-01  0.37554014929E-01  0.51100000000E-03 0. -1.
</event>
<event>
 8    1  0.1094829E+005  0.1043930E+01  0.7957747E-01            NaN
         13   -1    0    0    0    0  0.00000000000E+00  0.00000000000E+00  0.74505805969E-08  0.10566000000E+00  0.10566000000E+00 0.  1.
     999900   -1    0    0    0    0 -0.00000000000E+00 -0.00000000000E+00 -0.74505805969E-08  0.93827000000E+00  0.93827000000E+00 0. -1.
     999902    2    1    2    0    0  0.30811623463E-02 -0.22403993714E-01  0.10542049867E-01  0.10189787012E+01  0.10186731695E+01 0.  0.
     999903    2    3    3    0    0  0.33478366054E-01  0.10750020275E+00 -0.54121497628E-01  0.12657718585E+00  0.20385114343E-01 0.  0.
         14    1    1    2    0    0 -0.30811623463E-02  0.22403993714E-01 -0.10542049867E-01  0.24951298787E-01  0.00000000000E+00 0. -1.
     999901    1    3    3    0    0 -0.30397203708E-01 -0.12990419646E+00  0.64663547495E-01  0.89240151537E+00  0.88000000000E+00 0. -1.
        -11    1    4    4    0    0  0.47144468504E-02  0.44153849053E-01 -0.26556529891E-01  0.51742620693E-01  0.51100000000E-03 0.  1.
         11    1    4    4    0    0  0.28763919204E-01  0.63346353697E-01 -0.27564967737E-01  0.74834565155E-01  0.51100000000E-03 0. -1.
</event>
<event>
 8    1  0.1094829E+005  0.1043930E+01  0.7957747E-01            NaN
         13   -1    0    0    0    0  0.00000000000E+00  0.00000000000E+00  0.74505805969E-08  0.10566000000E+00  0.10566000000E+00 0. -1.
     999900   -1    0    0    0    0 -0.00000000000E+00 -0.00000000000E+00 -0.74505805969E-08  0.93827000000E+00  0.93827000000E+00 0. -1.
     999902    2    1    2    0    0  0.48752207472E-02 -0.18707491274E-01  0.33572793695E-02  0.10243083453E+01  0.10241203918E+01 0.  0.
     999903    2    3    3    0    0 -0.60291953119E-01 -0.10811355547E+00  0.52627107573E-01  0.13601350642E+00  0.20159389613E-01 0.  0.
         14    1    1    2    0    0 -0.48752207472E-02  0.18707491274E-01 -0.33572793695E-02  0.19621654667E-01  0.00000000000E+00 0. -1.
     999901    1    3    3    0    0  0.65167173866E-01  0.89406064199E-01 -0.49269828203E-01  0.88829483891E+00  0.88000000000E+00 0. -1.
        -11    1    4    4    0    0 -0.77232083140E-02 -0.18746720725E-01  0.16732317972E-01  0.26292947160E-01  0.51100000000E-03 0. -1.
         11    1    4    4    0    0 -0.52568744805E-01 -0.89366834748E-01  0.35894789600E-01  0.10972055926E+00  0.51100000000E-03 0.  1.
</event>
<event>
 8    1  0.1094829E+005  0.1043930E+01  0.7957747E-01            NaN
         13   -1    0    0    0    0  0.00000000000E+00  0.00000000000E+00  0.74505805969E-08  0.10566000000E+00  0.10566000000E+00 0.  1.
     999900   -1    0    0    0    0 -0.00000000000E+00 -0.00000000000E+00 -0.74505805969E-08  0.93827000000E+00  0.93827000000E+00 0.  1.
     999902    2    1    2    0    0  0.50088083113E-02 -0.19759420140E-02  0.22810041661E-01  0.10204930525E+01  0.10202238870E+01 0.  0.
     999903    2    3    3    0    0  0.54426808803E-01  0.10834878013E+00  0.47903099693E-01  0.13187426773E+00  0.19858999398E-01 0.  0.
         14    1    1    2    0    0 -0.50088083113E-02  0.19759420140E-02 -0.22810041661E-01  0.23436947500E-01  0.00000000000E+00 0. -1.
     999901    1    3    3    0    0 -0.49418000491E-01 -0.11032472214E+00 -0.25093058033E-01  0.88861878477E+00  0.88000000000E+00 0. -1.
        -11    1    4    4    0    0  0.11631982348E-01  0.32865800158E-01  0.55083665247E-02  0.35299675014E-01  0.51100000000E-03 0. -1.
         11    1    4    4    0    0  0.42794826455E-01  0.75482979970E-01  0.42394733169E-01  0.96574592714E-01  0.51100000000E-03 0.  1.
</event>
<event>
 8    1  0.1094829E+005  0.1043930E+01  0.7957747E-01            NaN
         13   -1    0    0    0    0  0.00000000000E+00  0.00000000000E+00  0.74505805969E-08  0.10566000000E+00  0.10566000000E+00 0.  1.
     999900   -1    0    0    0    0 -0.00000000000E+00 -0.00000000000E+00 -0.74505805969E-08  0.93827000000E+00  0.93827000000E+00 0. -1.
     999902    2    1    2    0    0  0.13486974090E-01 -0.41113782152E-02  0.18885949186E-01  0.10203613561E+01  0.10200891216E+01 0.  0.
     999903    2    3    3    0    0 -0.19107359155E-01  0.80052139694E-01  0.10116726321E+00  0.13192671977E+00  0.19909997504E-01 0.  0.
         14    1    1    2    0    0 -0.13486974090E-01  0.41113782152E-02 -0.18885949186E-01  0.23568643949E-01  0.00000000000E+00 0. -1.
     999901    1    3    3    0    0  0.32594333246E-01 -0.84163517909E-01 -0.82281314022E-01  0.88843463628E+00  0.88000000000E+00 0. -1.
        -11    1    4    4    0    0 -0.85427590115E-02  0.44831362287E-01  0.40685790068E-01  0.61142656227E-01  0.51100000000E-03 0. -1.
         11    1    4    4    0    0 -0.10564600144E-01  0.35220777407E-01  0.60481473141E-01  0.70784063543E-01  0.51100000000E-03 0.  1.
</event>
<event>
 8    1  0.1094829E+005  0.1043930E+01  0.7957747E-01            NaN
         13   -1    0    0    0    0  0.00000000000E+00  0.00000000000E+00  0.74505805969E-08  0.10566000000E+00  0.10566000000E+00 0. -1.
     999900   -1    0    0    0    0 -0.00000000000E+00 -0.00000000000E+00 -0.74505805969E-08  0.93827000000E+00  0.93827000000E+00 0.  1.
     999902    2    1    2    0    0 -0.21636901867E-01  0.91569080652E-02  0.50341314686E-02  0.10199019546E+01  0.10196188749E+01 0.  0.
     999903    2    3    3    0    0  0.32440010634E-02 -0.11788265579E+00 -0.45563259572E-01  0.12899331385E+00  0.25620700946E-01 0.  0.
         14    1    1    2    0    0  0.21636901867E-01 -0.91569080652E-02 -0.50341314686E-02  0.24028045434E-01  0.00000000000E+00 0. -1.
     999901    1    3    3    0    0 -0.24880902931E-01  0.12703956386E+00  0.50597391040E-01  0.89090864071E+00  0.88000000000E+00 0. -1.
        -11    1    4    4    0    0  0.12281877074E-01 -0.31931579034E-01 -0.14347413842E-01  0.37102286304E-01  0.51100000000E-03 0. -1.
         11    1    4    4    0    0 -0.90378760105E-02 -0.85951076757E-01 -0.31215845729E-01  0.91891027550E-01  0.51100000000E-03 0.  1.
</event>
<event>
 8    1  0.1094829E+005  0.1043930E+01  0.7957747E-01            NaN
         13   -1    0    0    0    0  0.00000000000E+00  0.00000000000E+00  0.74505805969E-08  0.10566000000E+00  0.10566000000E+00 0. -1.
     999900   -1    0    0    0    0 -0.00000000000E+00 -0.00000000000E+00 -0.74505805969E-08  0.93827000000E+00  0.93827000000E+00 0.  1.
     999902    2    1    2    0    0  0.16591844120E-01 -0.18429394063E-01 -0.16927283012E-02  0.10190744737E+01  0.10187713118E+01 0.  0.
     999903    2    3    3    0    0 -0.19650585746E-01  0.53530219625E-02 -0.12614526765E+00  0.12926126211E+00  0.19520373093E-01 0.  0.
         14    1    1    2    0    0 -0.16591844120E-01  0.18429394063E-01  0.16927283012E-02  0.24855526265E-01  0.00000000000E+00 0.  1.
     999901    1    3    3    0    0  0.36242429866E-01 -0.23782416025E-01  0.12445253935E+00  0.88981321163E+00  0.88000000000E+00 0. -1.
        -11    1    4    4    0    0 -0.40536010112E-02 -0.32839763855E-02 -0.67762851338E-02  0.85671082212E-02  0.51100000000E-03 0. -1.
         11    1    4    4    0    0 -0.15596984735E-01  0.86369983480E-02 -0.11936898252E+00  0.12069415389E+00  0.51100000000E-03 0.  1.
</event>
<event>
 8    1  0.1094829E+005  0.1043930E+01  0.7957747E-01            NaN
         13   -1    0    0    0    0  0.00000000000E+00  0.00000000000E+00  0.74505805969E-08  0.10566000000E+00  0.10566000000E+00 0.  1.
     999900   -1    0    0    0    0 -0.00000000000E+00 -0.00000000000E+00 -0.74505805969E-08  0.93827000000E+00  0.93827000000E+00 0.  1.
     999902    2    1    2    0    0  0.17733393125E-01  0.54308631821E-02  0.13242599680E-01  0.10211411002E+01  0.10208867776E+01 0.  0.
     999903    2    3    3    0    0 -0.11667885609E+00  0.34913049078E-01 -0.37755015317E-01  0.12898830571E+00  0.19485003827E-01 0.  0.
         14    1    1    2    0    0 -0.17733393125E-01 -0.54308631821E-02 -0.13242599680E-01  0.22788899774E-01  0.00000000000E+00 0. -1.
     999901    1    3    3    0    0  0.13441224922E+00 -0.29482185896E-01  0.50997614998E-01  0.89215279451E+00  0.88000000000E+00 0.  1.
        -11    1    4    4    0    0 -0.26280680449E-02  0.31432863498E-02 -0.42929768635E-02  0.59563211864E-02  0.51100000000E-03 0.  1.
         11    1    4    4    0    0 -0.11405078805E+00  0.31769762729E-01 -0.33462038454E-01  0.12303198452E+00  0.51100000000E-03 0. -1.
</event>
<event>
 8    1  0.1094829E+005  0.1043930E+01  0.7957747E-01            NaN
         13   -1    0    0    0    0  0.00000000000E+00  0.00000000000E+00  0.74505805969E-08  0.10566000000E+00  0.10566000000E+00 0. -1.
     999900   -1    0    0    0    0 -0.00000000000E+00 -0.00000000000E+00 -0.74505805969E-08  0.93827000000E+00  0.93827000000E+00 0. -1.
     999902    2    1    2    0    0  0.16618482608E-01  0.30228342527E-03 -0.16904028379E-01  0.10202232180E+01  0.10199477452E+01 0.  0.
     999903    2    3    3    0    0  0.35814104130E-01 -0.12145759009E+00  0.25252540098E-01  0.13063279818E+00  0.19815169323E-01 0.  0.
         14    1    1    2    0    0 -0.16618482608E-01 -0.30228342527E-03  0.16904028379E-01  0.23706782045E-01  0.00000000000E+00 0. -1.
     999901    1    3    3    0    0 -0.19195621522E-01  0.12175987351E+00 -0.42156568477E-01  0.88959041977E+00  0.88000000000E+00 0.  1.
        -11    1    4    4    0    0  0.31164913802E-01 -0.72193325054E-01  0.17245606866E-01  0.80503416771E-01  0.51100000000E-03 0.  1.
         11    1    4    4    0    0  0.46491903286E-02 -0.49264265034E-01  0.80069332322E-02  0.50129381413E-01  0.51100000000E-03 0. -1.
</event>
<event>
 8    1  0.1094829E+005  0.1043930E+01  0.7957747E-01            NaN
         13   -1    0    0    0    0  0.00000000000E+00  0.00000000000E+00  0.74505805969E-08  0.10566000000E+00  0.10566000000E+00 0.  1.
     999900   -1    0    0    0    0 -0.00000000000E+00 -0.00000000000E+00 -0.74505805969E-08  0.93827000000E+00  0.93827000000E+00 0.  1.
     999902    2    1    2    0    0  0.16261874135E-01 -0.63688196740E-02 -0.16471000751E-01  0.10199236617E+01  0.10196410993E+01 0.  0.
     999903    2    3    3    0    0  0.43085095573E-01  0.10439971879E+00  0.59738850901E-01  0.12930752898E+00  0.19901758679E-01 0.  0.
         14    1    1    2    0    0 -0.16261874135E-01  0.63688196740E-02  0.16471000751E-01  0.24006338333E-01  0.00000000000E+00 0.  1.
     999901    1    3    3    0    0 -0.26823221438E-01 -0.11076853846E+00 -0.76209851652E-01  0.89061613269E+00  0.88000000000E+00 0.  1.
        -11    1    4    4    0    0  0.26191685518E-01  0.38009144516E-01  0.23192390493E-01  0.51660889994E-01  0.51100000000E-03 0. -1.
         11    1    4    4    0    0  0.16893410055E-01  0.66390574274E-01  0.36546460408E-01  0.77646638982E-01  0.51100000000E-03 0.  1.
</event>
<event>
 8    1  0.1094829E+005  0.1043930E+01  0.7957747E-01            NaN
         13   -1    0    0    0    0  0.00000000000E+00  0.00000000000E+00  0.74505805969E-08  0.10566000000E+00  0.10566000000E+00 0. -1.
     999900   -1    0    0    0    0 -0.00000000000E+00 -0.00000000000E+00 -0.74505805969E-08  0.93827000000E+00  0.93827000000E+00 0. -1.
     999902    2    1    2    0    0 -0.11466770972E-01  0.16981131194E-01 -0.12607648335E-01  0.10198717696E+01  0.10195879697E+01 0.  0.
     999903    2    3    3    0    0 -0.25236667903E-01 -0.12055822447E+00 -0.31874210754E-01  0.12887351773E+00  0.20524214163E-01 0.  0.
         14    1    1    2    0    0  0.11466770972E-01 -0.16981131194E-01  0.12607648335E-01  0.24058230394E-01  0.00000000000E+00 0.  1.
     999901    1    3    3    0    0  0.13769896931E-01  0.13753935566E+00  0.19266562418E-01  0.89099825188E+00  0.88000000000E+00 0.  1.
        -11    1    4    4    0    0 -0.69416645299E-02 -0.79732397247E-01 -0.18047962543E-01  0.82045304254E-01  0.51100000000E-03 0.  1.
         11    1    4    4    0    0 -0.18295003373E-01 -0.40825827222E-01 -0.13826248210E-01  0.46828213476E-01  0.51100000000E-03 0. -1.
</event>
<event>
 8    1  0.1094829E+005  0.1043930E+01  0.7957747E-01            NaN
         13   -1    0    0    0    0  0.00000000000E+00  0.00000000000E+00  0.74505805969E-08  0.10566000000E+00  0.10566000000E+00 0.  1.
     999900   -1    0    0    0    0 -0.00000000000E+00 -0.00000000000E+00 -0.74505805969E-08  0.93827000000E+00  0.93827000000E+00 0.  1.
     999902    2    1    2    0    0 -0.11087363700E-01 -0.19495305957E-01  0.21015368216E-01  0.10131949664E+01  0.10127286891E+01 0.  0.
     999903    2    3    3    0    0 -0.48394660174E-01 -0.84551460432E-01 -0.75306602211E-01  0.12476823359E+00  0.20125485912E-01 0.  0.
         14    1    1    2    0    0  0.11087363700E-01  0.19495305957E-01 -0.21015368216E-01  0.30735033584E-01  0.00000000000E+00 0. -1.
     999901    1    3    3    0    0  0.37307296474E-01  0.65056154475E-01  0.96321970427E-01  0.88842673282E+00  0.88000000000E+00 0. -1.
        -11    1    4    4    0    0 -0.28339244197E-01 -0.61946325990E-01 -0.60512637187E-01  0.91118057736E-01  0.51100000000E-03 0. -1.
         11    1    4    4    0    0 -0.20055415977E-01 -0.22605134443E-01 -0.14793965023E-01  0.33650175858E-01  0.51100000000E-03 0.  1.
</event>
<event>
 8    1  0.1094829E+005  0.1043930E+01  0.7957747E-01            NaN
         13   -1    0    0    0    0  0.00000000000E+00  0.00000000000E+00  0.74505805969E-08  0.10566000000E+00  0.10566000000E+00 0.  1.
     999900   -1    0    0    0    0 -0.00000000000E+00 -0.00000000000E+00 -0.74505805969E-08  0.93827000000E+00  0.93827000000E+00 0. -1.
     999902    2    1    2    0    0  0.15419015900E-01  0.17620631756E-01  0.27422001470E-02  0.10203555991E+01  0.10200832301E+01 0.  0.
     999903    2    3    3    0    0  0.10047941961E+00 -0.47548930865E-01 -0.66490443885E-01  0.13115623837E+00  0.20590413913E-01 0.  0.
         14    1    1    2    0    0 -0.15419015900E-01 -0.17620631756E-01 -0.27422001470E-02  0.23574400871E-01  0.00000000000E+00 0.  1.
     999901    1    3    3    0    0 -0.85060403706E-01  0.65169562621E-01  0.69232644032E-01  0.88919936076E+00  0.88000000000E+00 0.  1.
        -11    1    4    4    0    0  0.94615561221E-01 -0.49225160342E-01 -0.60638868122E-01  0.12268885151E+00  0.51100000000E-03 0. -1.
         11    1    4    4    0    0  0.58638583848E-02  0.16762294769E-02 -0.58515757635E-02  0.84673868656E-02  0.51100000000E-03 0.  1.
</event>
<event>
 8    1  0.1094829E+005  0.1043930E+01  0.7957747E-01            NaN
         13   -1    0    0    0    0  0.00000000000E+00  0.00000000000E+00  0.74505805969E-08  0.10566000000E+00  0.10566000000E+00 0. -1.
     999900   -1    0    0    0    0 -0.00000000000E+00 -0.00000000000E+00 -0.74505805969E-08  0.93827000000E+00  0.93827000000E+00 0. -1.
     999902    2    1    2    0    0 -0.91126596759E-02  0.20919625745E-01  0.58877670771E-02  0.10203644084E+01  0.10200922452E+01 0.  0.
     999903    2    3    3    0    0  0.20227801727E-01  0.10234587317E+00 -0.78662235756E-01  0.13208528590E+00  0.19363204758E-01 0.  0.
         14    1    1    2    0    0  0.91126596759E-02 -0.20919625745E-01 -0.58877670771E-02  0.23565591629E-01  0.00000000000E+00 0.  1.
     999901    1    3    3    0    0 -0.29340461403E-01 -0.81426247425E-01  0.84550002834E-01  0.88827912247E+00  0.88000000000E+00 0.  1.
        -11    1    4    4    0    0  0.10352598768E-01  0.82674411934E-01 -0.55413442666E-01  0.10006570561E+00  0.51100000000E-03 0.  1.
         11    1    4    4    0    0  0.98752029591E-02  0.19671461237E-01 -0.23248793090E-01  0.32019580288E-01  0.51100000000E-03 0. -1.
</event>
<event>
 8    1  0.1094829E+005  0.1043930E+01  0.7957747E-01            NaN
         13   -1    0    0    0    0  0.00000000000E+00  0.00000000000E+00  0.74505805969E-08  0.10566000000E+00  0.10566000000E+00 0.  1.
     999900   -1    0    0    0    0 -0.00000000000E+00 -0.00000000000E+00 -0.74505805969E-08  0.93827000000E+00  0.93827000000E+00 0.  1.
     999902    2    1    2    0    0  0.74356510144E-02 -0.21299225956E-01 -0.45990080114E-02  0.10209061687E+01  0.10206465150E+01 0.  0.
     999903    2    3    3    0    0  0.83177510606E-02 -0.72758878445E-01  0.10822552800E+00  0.13221147994E+00  0.20101520881E-01 0.  0.
         14    1    1    2    0    0 -0.74356510144E-02  0.21299225956E-01  0.45990080114E-02  0.23023831285E-01  0.00000000000E+00 0. -1.
     999901    1    3    3    0    0 -0.88210004616E-03  0.51459652489E-01 -0.11282453601E+00  0.88869468878E+00  0.88000000000E+00 0.  1.
        -11    1    4    4    0    0  0.13114067099E-01 -0.39101363039E-01  0.50344558744E-01  0.65082494294E-01  0.51100000000E-03 0.  1.
         11    1    4    4    0    0 -0.47963160388E-02 -0.33657515406E-01  0.57880969254E-01  0.67128985644E-01  0.51100000000E-03 0. -1.
</event>
<event>
 8    1  0.1094829E+005  0.1043930E+01  0.7957747E-01            NaN
         13   -1    0    0    0    0  0.00000000000E+00  0.00000000000E+00  0.74505805969E-08  0.10566000000E+00  0.10566000000E+00 0.  1.
     999900   -1    0    0    0    0 -0.00000000000E+00 -0.00000000000E+00 -0.74505805969E-08  0.93827000000E+00  0.93827000000E+00 0. -1.
     999902    2    1    2    0    0  0.23899673163E-01 -0.26717967890E-01  0.11927067083E-01  0.10061503876E+01  0.10054408502E+01 0.  0.
     999903    2    3    3    0    0  0.15725230030E-02 -0.11693481295E+00  0.23419759319E-01  0.12118165212E+00  0.21454239111E-01 0.  0.
         14    1    1    2    0    0 -0.23899673163E-01  0.26717967890E-01 -0.11927067083E-01  0.37779612421E-01  0.00000000000E+00 0. -1.
     999901    1    3    3    0    0  0.22327150160E-01  0.90216845058E-01 -0.11492692236E-01  0.88496873546E+00  0.88000000000E+00 0.  1.
        -11    1    4    4    0    0  0.56691000887E-02 -0.83059467221E-01  0.25271985584E-01  0.87005449066E-01  0.51100000000E-03 0. -1.
         11    1    4    4    0    0 -0.40965770857E-02 -0.33875345728E-01 -0.18522262648E-02  0.34176203053E-01  0.51100000000E-03 0.  1.
</event>
<event>
 8    1  0.1094829E+005  0.1043930E+01  0.7957747E-01            NaN
         13   -1    0    0    0    0  0.00000000000E+00  0.00000000000E+00  0.74505805969E-08  0.10566000000E+00  0.10566000000E+00 0.  1.
     999900   -1    0    0    0    0 -0.00000000000E+00 -0.00000000000E+00 -0.74505805969E-08  0.93827000000E+00  0.93827000000E+00 0.  1.
     999902    2    1    2    0    0  0.22233536093E-01  0.62824437176E-02  0.43415575796E-02  0.10204215260E+01  0.10201506959E+01 0.  0.
     999903    2    3    3    0    0  0.12582615046E+00  0.66686639868E-02  0.39536512405E-01  0.13364632128E+00  0.20530761263E-01 0.  0.
         14    1    1    2    0    0 -0.22233536093E-01 -0.62824437176E-02 -0.43415575796E-02  0.23508473972E-01  0.00000000000E+00 0. -1.
     999901    1    3    3    0    0 -0.10359261437E+00 -0.38622026919E-03 -0.35194954825E-01  0.88677520475E+00  0.88000000000E+00 0.  1.
        -11    1    4    4    0    0  0.94411880968E-01 -0.17980919115E-02  0.23210463497E-01  0.97241056860E-01  0.51100000000E-03 0.  1.
         11    1    4    4    0    0  0.31414269494E-01  0.84667558983E-02  0.16326048908E-01  0.36405264416E-01  0.51100000000E-03 0. -1.
</event>
<event>
 8    1  0.1094829E+005  0.1043930E+01  0.7957747E-01            NaN
         13   -1    0    0    0    0  0.00000000000E+00  0.00000000000E+00  0.74505805969E-08  0.10566000000E+00  0.10566000000E+00 0.  1.
     999900   -1    0    0    0    0 -0.00000000000E+00 -0.00000000000E+00 -0.74505805969E-08  0.93827000000E+00  0.93827000000E+00 0. -1.
     999902    2    1    2    0    0  0.34350396441E-02 -0.23248058308E-01 -0.96921396772E-03  0.10204095602E+01  0.10201384511E+01 0.  0.
     999903    2    3    3    0    0 -0.67068517008E-01 -0.59964217628E-01 -0.92989563977E-01  0.13204782495E+00  0.26375664827E-01 0.  0.
         14    1    1    2    0    0 -0.34350396441E-02  0.23248058308E-01  0.96921396772E-03  0.23520439796E-01  0.00000000000E+00 0. -1.
     999901    1    3    3    0    0  0.70503556652E-01  0.36716159320E-01  0.92020350009E-01  0.88836173526E+00  0.88000000000E+00 0.  1.
        -11    1    4    4    0    0 -0.27264688252E-01 -0.39770407539E-01 -0.39161438642E-01  0.62120269951E-01  0.51100000000E-03 0. -1.
         11    1    4    4    0    0 -0.39803828756E-01 -0.20193810089E-01 -0.53828125334E-01  0.69927554995E-01  0.51100000000E-03 0.  1.
</event>
<event>
 8    1  0.1094829E+005  0.1043930E+01  0.7957747E-01            NaN
         13   -1    0    0    0    0  0.00000000000E+00  0.00000000000E+00  0.74505805969E-08  0.10566000000E+00  0.10566000000E+00 0.  1.
     999900   -1    0    0    0    0 -0.00000000000E+00 -0.00000000000E+00 -0.74505805969E-08  0.93827000000E+00  0.93827000000E+00 0.  1.
     999902    2    1    2    0    0  0.15452697453E-01 -0.89499392278E-02 -0.15417921529E-01  0.10203376374E+01  0.10200648482E+01 0.  0.
     999903    2    3    3    0    0 -0.43401258246E-01  0.30442021262E-01  0.11470381952E+00  0.12795476989E+00  0.20126376960E-01 0.  0.
         14    1    1    2    0    0 -0.15452697453E-01  0.89499392278E-02  0.15417921529E-01  0.23592362642E-01  0.00000000000E+00 0.  1.
     999901    1    3    3    0    0  0.58853955699E-01 -0.39391960489E-01 -0.13012174105E+00  0.89238286747E+00  0.88000000000E+00 0.  1.
        -11    1    4    4    0    0 -0.42774422896E-01  0.25384408904E-01  0.91037697340E-01  0.10374074864E+00  0.51100000000E-03 0. -1.
         11    1    4    4    0    0 -0.62683534995E-03  0.50576123579E-02  0.23666122182E-01  0.24214021257E-01  0.51100000000E-03 0.  1.
</event>
<event>
 8    1  0.1293190E+005  0.1043930E+01  0.7957747E-01            NaN
         13   -1    0    0    0    0  0.00000000000E+00  0.00000000000E+00  0.74505805969E-08  0.10566000000E+00  0.10566000000E+00 0. -1.
     999900   -1    0    0    0    0 -0.00000000000E+00 -0.00000000000E+00 -0.74505805969E-08  0.93827000000E+00  0.93827000000E+00 0. -1.
     999902    2    1    2    0    0  0.66536082887E-02 -0.19531665311E-02  0.22416962731E-01  0.10204650137E+01  0.10201951964E+01 0.  0.
     999903    2    3    3    0    0 -0.59421460304E-01  0.72732629073E-01 -0.85195824354E-01  0.12831906451E+00  0.19659820782E-01 0.  0.
         14    1    1    2    0    0 -0.66536082887E-02  0.19531665311E-02 -0.22416962731E-01  0.23464986274E-01  0.00000000000E+00 0.  1.
     999901    1    3    3    0    0  0.66075068593E-01 -0.74685795604E-01  0.10761278709E+00  0.89214594921E+00  0.88000000000E+00 0.  1.
        -11    1    4    4    0    0 -0.35959294991E-01  0.44976256987E-01 -0.39052848522E-01  0.69579599650E-01  0.51100000000E-03 0.  1.
         11    1    4    4    0    0 -0.23462165313E-01  0.27756372087E-01 -0.46142975832E-01  0.58739464862E-01  0.51100000000E-03 0. -1.
</event>
<event>
 8    1  0.1094829E+005  0.1043930E+01  0.7957747E-01            NaN
         13   -1    0    0    0    0  0.00000000000E+00  0.00000000000E+00  0.74505805969E-08  0.10566000000E+00  0.10566000000E+00 0. -1.
     999900   -1    0    0    0    0 -0.00000000000E+00 -0.00000000000E+00 -0.74505805969E-08  0.93827000000E+00  0.93827000000E+00 0.  1.
     999902    2    1    2    0    0 -0.12788768069E-01  0.38793731190E-02  0.19307260341E-01  0.10204486792E+01  0.10201784817E+01 0.  0.
     999903    2    3    3    0    0 -0.96775784927E-01 -0.75267518074E-01 -0.41229026843E-01  0.13085175281E+00  0.19788803217E-01 0.  0.
         14    1    1    2    0    0  0.12788768069E-01 -0.38793731190E-02 -0.19307260341E-01  0.23481320798E-01  0.00000000000E+00 0.  1.
     999901    1    3    3    0    0  0.83987016859E-01  0.79146891194E-01  0.60536287184E-01  0.88959692640E+00  0.88000000000E+00 0.  1.
        -11    1    4    4    0    0 -0.22145803016E-01 -0.12321878139E-01 -0.16129777743E-01  0.30044901782E-01  0.51100000000E-03 0.  1.
         11    1    4    4    0    0 -0.74629981912E-01 -0.62945639936E-01 -0.25099249100E-01  0.10080685102E+00  0.51100000000E-03 0. -1.
</event>
<event>
 8    1  0.1094829E+005  0.1043930E+01  0.7957747E-01            NaN
         13   -1    0    0    0    0  0.00000000000E+00  0.00000000000E+00  0.74505805969E-08  0.10566000000E+00  0.10566000000E+00 0. -1.
     999900   -1    0    0    0    0 -0.00000000000E+00 -0.00000000000E+00 -0.74505805969E-08  0.93827000000E+00  0.93827000000E+00 0.  1.
     999902    2    1    2    0    0  0.16196080326E-02  0.92763898157E-02 -0.21354717709E-01  0.10205912231E+01  0.10203243338E+01 0.  0.
     999903    2    3    3    0    0  0.31624686177E-01  0.46139305146E-01 -0.11986777053E+00  0.13381954967E+00  0.20259151184E-01 0.  0.
         14    1    1    2    0    0 -0.16196080326E-02 -0.92763898157E-02  0.21354717709E-01  0.23338776888E-01  0.00000000000E+00 0. -1.
     999901    1    3    3    0    0 -0.30005078144E-01 -0.36862915330E-01  0.98513052822E-01  0.88677167344E+00  0.88000000000E+00 0. -1.
        -11    1    4    4    0    0  0.27537829529E-01  0.29144494806E-01 -0.97525189377E-01  0.10544741494E+00  0.51100000000E-03 0.  1.
         11    1    4    4    0    0  0.40868566484E-02  0.16994810340E-01 -0.22342581154E-01  0.28372134735E-01  0.51100000000E-03 0. -1.
</event>
<event>
 8    1  0.1094829E+005  0.1043930E+01  0.7957747E-01            NaN
         13   -1    0    0    0    0  0.00000000000E+00  0.00000000000E+00  0.74505805969E-08  0.10566000000E+00  0.10566000000E+00 0. -1.
     999900   -1    0    0    0    0 -0.00000000000E+00 -0.00000000000E+00 -0.74505805969E-08  0.93827000000E+00  0.93827000000E+00 0.  1.
     999902    2    1    2    0    0 -0.48641023275E-03  0.22988575832E-01  0.20292046802E-02  0.10208469134E+01  0.10205859061E+01 0.  0.
     999903    2    3    3    0    0 -0.60482049907E-01  0.91500780144E-01  0.73035213416E-01  0.13330240627E+00  0.20122574177E-01 0.  0.
         14    1    1    2    0    0  0.48641023275E-03 -0.22988575832E-01 -0.20292046802E-02  0.23083086564E-01  0.00000000000E+00 0.  1.
     999901    1    3    3    0    0  0.59995639674E-01 -0.68512204312E-01 -0.71006008735E-01  0.88754450716E+00  0.88000000000E+00 0. -1.
        -11    1    4    4    0    0 -0.61312846531E-01  0.84260991761E-01  0.68318845508E-01  0.12460700484E+00  0.51100000000E-03 0. -1.
         11    1    4    4    0    0  0.83079662403E-03  0.72397883829E-02  0.47163679078E-02  0.86954014342E-02  0.51100000000E-03 0.  1.
</event>
<event>
 8    1  0.1094829E+005  0.1043930E+01  0.7957747E-01            NaN
         13   -1    0    0    0    0  0.00000000000E+00  0.00000000000E+00  0.74505805969E-08  0.10566000000E+00  0.10566000000E+00 0. -1.
     999900   -1    0    0    0    0 -0.00000000000E+00 -0.00000000000E+00 -0.74505805969E-08  0.93827000000E+00  0.93827000000E+00 0. -1.
     999902    2    1    2    0    0  0.20265534308E-01  0.11724656563E-01 -0.77018364779E-03  0.10205045302E+01  0.10202356314E+01 0.  0.
     999903    2    3    3    0    0  0.27971474196E-01  0.69829295405E-01  0.10680269171E+00  0.13201848413E+00  0.19066497557E-01 0.  0.
         14    1    1    2    0    0 -0.20265534308E-01 -0.11724656563E-01  0.77018364779E-03  0.23425469796E-01  0.00000000000E+00 0. -1.
     999901    1    3    3    0    0 -0.77059398884E-02 -0.58104638842E-01 -0.10757287536E+00  0.88848604608E+00  0.88000000000E+00 0. -1.
        -11    1    4    4    0    0  0.18983702837E-02  0.22834042613E-01  0.23056007967E-01  0.32509043913E-01  0.51100000000E-03 0. -1.
         11    1    4    4    0    0  0.26073103912E-01  0.46995252793E-01  0.83746683741E-01  0.99509440212E-01  0.51100000000E-03 0.  1.
</event>
<event>
 8    1  0.1094829E+005  0.1043930E+01  0.7957747E-01            NaN
         13   -1    0    0    0    0  0.00000000000E+00  0.00000000000E+00  0.74505805969E-08  0.10566000000E+00  0.10566000000E+00 0.  1.
     999900   -1    0    0    0    0 -0.00000000000E+00 -0.00000000000E+00 -0.74505805969E-08  0.93827000000E+00  0.93827000000E+00 0. -1.
     999902    2    1    2    0    0 -0.12806507041E-01 -0.17150913085E-01 -0.11348379931E-01  0.10197030281E+01  0.10194151849E+01 0.  0.
     999903    2    3    3    0    0  0.25982576411E-01  0.92296382622E-01  0.81558095693E-01  0.12722618425E+00  0.18467876512E-01 0.  0.
         14    1    1    2    0    0  0.12806507041E-01  0.17150913085E-01  0.11348379931E-01  0.24226971939E-01  0.00000000000E+00 0.  1.
     999901    1    3    3    0    0 -0.38789083452E-01 -0.10944729571E+00 -0.92906475624E-01  0.89247684381E+00  0.88000000000E+00 0. -1.
        -11    1    4    4    0    0  0.57160998754E-02  0.15793188753E-01  0.24290983302E-01  0.29536614558E-01  0.51100000000E-03 0.  1.
         11    1    4    4    0    0  0.20266476536E-01  0.76503193869E-01  0.57267112391E-01  0.97689569689E-01  0.51100000000E-03 0. -1.
</event>
<event>
 8    1  0.1094829E+005  0.1043930E+01  0.7957747E-01            NaN
         13   -1    0    0    0    0  0.00000000000E+00  0.00000000000E+00  0.74505805969E-08  0.10566000000E+00  0.10566000000E+00 0. -1.
     999900   -1    0    0    0    0 -0.00000000000E+00 -0.00000000000E+00 -0.74505805969E-08  0.93827000000E+00  0.93827000000E+00 0. -1.
     999902    2    1    2    0    0 -0.17163655951E-02 -0.23552865231E-01  0.40741658898E-02  0.10199658142E+01  0.10196842551E+01 0.  0.
     999903    2    3    3    0    0  0.64799290788E-01  0.10741410990E+00 -0.13267148804E-01  0.12762204510E+00  0.19355362736E-01 0.  0.
         14    1    1    2    0    0  0.17163655951E-02  0.23552865231E-01 -0.40741658898E-02  0.23964185761E-01  0.00000000000E+00 0. -1.
     999901    1    3    3    0    0 -0.66515656384E-01 -0.13096697513E+00  0.17341314694E-01  0.89234376914E+00  0.88000000000E+00 0.  1.
        -11    1    4    4    0    0  0.23612417757E-01  0.56271880008E-01 -0.10280989057E-01  0.61887241084E-01  0.51100000000E-03 0.  1.
         11    1    4    4    0    0  0.41186873032E-01  0.51142229893E-01 -0.29861597468E-02  0.65734804020E-01  0.51100000000E-03 0. -1.
</event>
<event>
 8    1  0.1094829E+005  0.1043930E+01  0.7957747E-01            NaN
         13   -1    0    0    0    0  0.00000000000E+00  0.00000000000E+00  0.74505805969E-08  0.10566000000E+00  0.10566000000E+00 0. -1.
     999900   -1    0    0    0    0 -0.00000000000E+00 -0.00000000000E+00 -0.74505805969E-08  0.93827000000E+00  0.93827000000E+00 0. -1.
     999902    2    1    2    0    0 -0.13408649902E-01 -0.53945993903E-02  0.16090270634E-01  0.10223015372E+01  0.10220727188E+01 0.  0.
     999903    2    3    3    0    0  0.64911296351E-01  0.85328995104E-01  0.74786385810E-01  0.13223973117E+00  0.19995729516E-01 0.  0.
         14    1    1    2    0    0  0.13408649902E-01  0.53945993903E-02 -0.16090270634E-01  0.21628462818E-01  0.00000000000E+00 0.  1.
     999901    1    3    3    0    0 -0.78319946253E-01 -0.90723594494E-01 -0.58696115175E-01  0.89006180601E+00  0.88000000000E+00 0. -1.
        -11    1    4    4    0    0  0.18284412668E-01  0.20100114301E-01  0.93338024201E-02  0.28735262834E-01  0.51100000000E-03 0. -1.
         11    1    4    4    0    0  0.46626883683E-01  0.65228880803E-01  0.65452583390E-01  0.10350446834E+00  0.51100000000E-03 0.  1.
</event>
<event>
 8    1  0.1094829E+005  0.1043930E+01  0.7957747E-01            NaN
         13   -1    0    0    0    0  0.00000000000E+00  0.00000000000E+00  0.74505805969E-08  0.10566000000E+00  0.10566000000E+00 0. -1.
     999900   -1    0    0    0    0 -0.00000000000E+00 -0.00000000000E+00 -0.74505805969E-08  0.93827000000E+00  0.93827000000E+00 0. -1.
     999902    2    1    2    0    0  0.16596221018E-01 -0.13282208736E-01  0.14641662116E-01  0.10181185705E+01  0.10177913312E+01 0.  0.
     999903    2    3    3    0    0 -0.62452350849E-01  0.77873930659E-01 -0.73431752336E-01  0.12552961431E+00  0.20020404950E-01 0.  0.
         14    1    1    2    0    0 -0.16596221018E-01  0.13282208736E-01 -0.14641662116E-01  0.25811429455E-01  0.00000000000E+00 0.  1.
     999901    1    3    3    0    0  0.79048571867E-01 -0.91156139394E-01  0.88073414452E-01  0.89258895624E+00  0.88000000000E+00 0.  1.
        -11    1    4    4    0    0 -0.20748375385E-01  0.22692341809E-01 -0.11974488466E-01  0.33001317442E-01  0.51100000000E-03 0. -1.
         11    1    4    4    0    0 -0.41703975464E-01  0.55181588849E-01 -0.61457263870E-01  0.92528296865E-01  0.51100000000E-03 0.  1.
</event>
<event>
 7    1  0.1094829E+005  0.1043930E+01  0.7957747E-01            NaN
         13   -1    0    0    0    0  0.00000000000E+00  0.00000000000E+00  0.74505805969E-08  0.10566000000E+00  0.10566000000E+00 0.  1.
     999900   -1    0    0    0    0 -0.00000000000E+00 -0.00000000000E+00 -0.74505805969E-08  0.93827000000E+00  0.93827000000E+00 0. -1.
     999902    2    1    2    0    0 -0.10858014680E-01 -0.18957076965E-01 -0.88129943114E-02  0.10203729179E+01  0.10201009535E+01 0.  0.
         14    1    1    2    0    0  0.10858014680E-01  0.18957076965E-01  0.88129943114E-02  0.23557082132E-01  0.00000000000E+00 0. -1.
     999901    1    3    3    0    0 -0.91259975353E-02  0.19403037825E-01 -0.12401328573E+00  0.88895391149E+00  0.88000000000E+00 0. -1.
        -11    1    3    3    0    0  0.19807312298E-01 -0.31946824349E-01  0.50719532931E-01  0.63132094438E-01  0.51100000000E-03 0.  1.
         11    1    3    3    0    0 -0.21539329443E-01 -0.64132904412E-02  0.64480758485E-01  0.68286911945E-01  0.51100000000E-03 0. -1.
</event>
<event>
 8    1  0.1094829E+005  0.1043930E+01  0.7957747E-01            NaN
         13   -1    0    0    0    0  0.00000000000E+00  0.00000000000E+00  0.74505805969E-08  0.10566000000E+00  0.10566000000E+00 0.  1.
     999900   -1    0    0    0    0 -0.00000000000E+00 -0.00000000000E+00 -0.74505805969E-08  0.93827000000E+00  0.93827000000E+00 0. -1.
     999902    2    1    2    0    0 -0.12006815054E-01  0.81661284577E-02  0.18742612599E-01  0.10202206181E+01  0.10199450842E+01 0.  0.
     999903    2    3    3    0    0  0.25694190702E-01  0.12358484438E+00 -0.27529557154E-01  0.13067918598E+00  0.19640975905E-01 0.  0.
         14    1    1    2    0    0  0.12006815054E-01 -0.81661284577E-02 -0.18742612599E-01  0.23709381872E-01  0.00000000000E+00 0.  1.
     999901    1    3    3    0    0 -0.37701005756E-01 -0.11541871592E+00  0.46272169753E-01  0.88954143215E+00  0.88000000000E+00 0.  1.
        -11    1    4    4    0    0  0.21209371415E-01  0.11094173601E+00 -0.18391637538E-01  0.11443958964E+00  0.51100000000E-03 0.  1.
         11    1    4    4    0    0  0.44848192865E-02  0.12643108369E-01 -0.91379196161E-02  0.16239596336E-01  0.51100000000E-03 0. -1.
</event>
<event>
 8    1  0.1094829E+005  0.1043930E+01  0.7957747E-01            NaN
         13   -1    0    0    0    0  0.00000000000E+00  0.00000000000E+00  0.74505805969E-08  0.10566000000E+00  0.10566000000E+00 0.  1.
     999900   -1    0    0    0    0 -0.00000000000E+00 -0.00000000000E+00 -0.74505805969E-08  0.93827000000E+00  0.93827000000E+00 0.  1.
     999902    2    1    2    0    0  0.13570121328E-01 -0.60671773133E-03 -0.20133929790E-01  0.10196423194E+01  0.10193530145E+01 0.  0.
     999903    2    3    3    0    0 -0.38913359002E-01  0.53802179077E-01 -0.11181020379E+00  0.13165618046E+00  0.20564634722E-01 0.  0.
         14    1    1    2    0    0 -0.13570121328E-01  0.60671773133E-03  0.20133929790E-01  0.24287680582E-01  0.00000000000E+00 0.  1.
     999901    1    3    3    0    0  0.52483480330E-01 -0.54408896808E-01  0.91676273998E-01  0.88798613895E+00  0.88000000000E+00 0. -1.
        -11    1    4    4    0    0 -0.18415006979E-01  0.10540633805E-01 -0.41207855305E-01  0.46352625631E-01  0.51100000000E-03 0.  1.
         11    1    4    4    0    0 -0.20498352022E-01  0.43261545272E-01 -0.70602348483E-01  0.85303554834E-01  0.51100000000E-03 0. -1.
</event>
<event>
 8    1  0.1094829E+005  0.1043930E+01  0.7957747E-01            NaN
         13   -1    0    0    0    0  0.00000000000E+00  0.00000000000E+00  0.74505805969E-08  0.10566000000E+00  0.10566000000E+00 0. -1.
     999900   -1    0    0    0    0 -0.00000000000E+00 -0.00000000000E+00 -0.74505805969E-08  0.93827000000E+00  0.93827000000E+00 0.  1.
     999902    2    1    2    0    0 -0.72171438686E-02 -0.16467710413E-01  0.14686912623E-01  0.10207140991E+01  0.10204500449E+01 0.  0.
     999903    2    3    3    0    0  0.51837540397E-01  0.91345712001E-01  0.72503366681E-01  0.13029064246E+00  0.26224866776E-01 0.  0.
         14    1    1    2    0    0  0.72171438686E-02  0.16467710413E-01 -0.14686912623E-01  0.23215900893E-01  0.00000000000E+00 0.  1.
     999901    1    3    3    0    0 -0.59054684265E-01 -0.10781342241E+00 -0.57816454059E-01  0.89042345665E+00  0.88000000000E+00 0. -1.
        -11    1    4    4    0    0  0.10853119645E-02  0.14346293067E-01  0.18424107402E-01  0.23381678327E-01  0.51100000000E-03 0. -1.
         11    1    4    4    0    0  0.50752228432E-01  0.76999418934E-01  0.54079259279E-01  0.10690896413E+00  0.51100000000E-03 0.  1.
</event>
<event>
 8    1  0.1094829E+005  0.1043930E+01  0.7957747E-01            NaN
         13   -1    0    0    0    0  0.00000000000E+00  0.00000000000E+00  0.74505805969E-08  0.10566000000E+00  0.10566000000E+00 0. -1.
     999900   -1    0    0    0    0 -0.00000000000E+00 -0.00000000000E+00 -0.74505805969E-08  0.93827000000E+00  0.93827000000E+00 0.  1.
     999902    2    1    2    0    0  0.32129975892E-02 -0.31085687534E-02 -0.22815926546E-01  0.10206802031E+01  0.10204153683E+01 0.  0.
     999903    2    3    3    0    0  0.11439636855E+00 -0.61374244897E-01  0.16307263645E-02  0.13143655264E+00  0.20483677094E-01 0.  0.
         14    1    1    2    0    0 -0.32129975892E-02  0.31085687534E-02  0.22815926546E-01  0.23249796931E-01  0.00000000000E+00 0. -1.
     999901    1    3    3    0    0 -0.11118337096E+00  0.58265676143E-01 -0.24446652910E-01  0.88924365043E+00  0.88000000000E+00 0.  1.
        -11    1    4    4    0    0  0.40137949706E-01 -0.30892194456E-01 -0.49552458294E-02  0.50893990482E-01  0.51100000000E-03 0.  1.
         11    1    4    4    0    0  0.74258418841E-01 -0.30482050440E-01  0.65859721939E-02  0.80542562156E-01  0.51100000000E-03 0. -1.
</event>
<event>
 8    1  0.1094829E+005  0.1043930E+01  0.7957747E-01            NaN
         13   -1    0    0    0    0  0.00000000000E+00  0.00000000000E+00  0.74505805969E-08  0.10566000000E+00  0.10566000000E+00 0. -1.
     999900   -1    0    0    0    0 -0.00000000000E+00 -0.00000000000E+00 -0.74505805969E-08  0.93827000000E+00  0.93827000000E+00 0. -1.
     999902    2    1    2    0    0  0.15282746870E-01 -0.26826933555E-02 -0.16245163008E-01  0.10214652606E+01  0.10212182010E+01 0.  0.
     999903    2    3    3    0    0 -0.27467227110E-01 -0.21227088869E-01  0.12285333045E+00  0.12932186082E+00  0.20643764536E-01 0.  0.
         14    1    1    2    0    0 -0.15282746870E-01  0.26826933555E-02  0.16245163008E-01  0.22464739408E-01  0.00000000000E+00 0. -1.
     999901    1    3    3    0    0  0.42749973980E-01  0.18544395514E-01 -0.13909849346E+00  0.89214339978E+00  0.88000000000E+00 0. -1.
        -11    1    4    4    0    0 -0.28915317428E-01 -0.22467427966E-01  0.10199438587E+00  0.10836972258E+00  0.51100000000E-03 0.  1.
         11    1    4    4    0    0  0.14480903176E-02  0.12403390964E-02  0.20858944580E-01  0.20952138235E-01  0.51100000000E-03 0. -1.
</event>
<event>
 8    1  0.1094829E+005  0.1043930E+01  0.7957747E-01            NaN
         13   -1    0    0    0    0  0.00000000000E+00  0.00000000000E+00  0.74505805969E-08  0.10566000000E+00  0.10566000000E+00 0.  1.
     999900   -1    0    0    0    0 -0.00000000000E+00 -0.00000000000E+00 -0.74505805969E-08  0.93827000000E+00  0.93827000000E+00 0.  1.
     999902    2    1    2    0    0 -0.18066985242E-01 -0.76926966695E-02 -0.13562187025E-01  0.10200652466E+01  0.10197860466E+01 0.  0.
     999903    2    3    3    0    0  0.98889697588E-01 -0.96749583074E-02 -0.78464886630E-01  0.12995561547E+00  0.29307788233E-01 0.  0.
         14    1    1    2    0    0  0.18066985242E-01  0.76926966695E-02  0.13562187025E-01  0.23864753397E-01  0.00000000000E+00 0.  1.
     999901    1    3    3    0    0 -0.11695668283E+00  0.19822616379E-02  0.64902699605E-01  0.89010963113E+00  0.88000000000E+00 0.  1.
        -11    1    4    4    0    0  0.24400880596E-01 -0.57562954294E-02 -0.36750623457E-01  0.44490531087E-01  0.51100000000E-03 0. -1.
         11    1    4    4    0    0  0.74488816991E-01 -0.39186628780E-02 -0.41714263173E-01  0.85465084383E-01  0.51100000000E-03 0.  1.
</event>
<event>
 8    1  0.1094829E+005  0.1043930E+01  0.7957747E-01            NaN
         13   -1    0    0    0    0  0.00000000000E+00  0.00000000000E+00  0.74505805969E-08  0.10566000000E+00  0.10566000000E+00 0. -1.
     999900   -1    0    0    0    0 -0.00000000000E+00 -0.00000000000E+00 -0.74505805969E-08  0.93827000000E+00  0.93827000000E+00 0. -1.
     999902    2    1    2    0    0  0.13162554658E-01  0.89236697647E-02  0.18830201916E-01  0.10192832714E+01  0.10189852433E+01 0.  0.
     999903    2    3    3    0    0  0.79096228287E-01 -0.65629087830E-01  0.79852572436E-01  0.13157324402E+00  0.19279385845E-01 0.  0.
         14    1    1    2    0    0 -0.13162554658E-01 -0.89236697647E-02 -0.18830201916E-01  0.24646728614E-01  0.00000000000E+00 0.  1.
     999901    1    3    3    0    0 -0.65933673629E-01  0.74552757595E-01 -0.61022370521E-01  0.88771002737E+00  0.88000000000E+00 0. -1.
        -11    1    4    4    0    0  0.37017639913E-01 -0.29146333899E-01  0.24731795325E-01  0.53214070183E-01  0.51100000000E-03 0. -1.
         11    1    4    4    0    0  0.42078588373E-01 -0.36482753931E-01  0.55120777112E-01  0.78359173836E-01  0.51100000000E-03 0.  1.
</event>
<event>
 8    1  0.1094829E+005  0.1043930E+01  0.7957747E-01            NaN
         13   -1    0    0    0    0  0.00000000000E+00  0.00000000000E+00  0.74505805969E-08  0.10566000000E+00  0.10566000000E+00 0. -1.
     999900   -1    0    0    0    0 -0.00000000000E+00 -0.00000000000E+00 -0.74505805969E-08  0.93827000000E+00  0.93827000000E+00 0.  1.
     999902    2    1    2    0    0  0.23814539110E-02  0.13875715292E-01 -0.19521198644E-01  0.10198616807E+01  0.10195776399E+01 0.  0.
     999903    2    3    3    0    0  0.14930467432E-01 -0.72857131616E-01 -0.10629219661E+00  0.13126206863E+00  0.20015471910E-01 0.  0.
         14    1    1    2    0    0 -0.23814539110E-02 -0.13875715292E-01  0.19521198644E-01  0.24068319304E-01  0.00000000000E+00 0. -1.
     999901    1    3    3    0    0 -0.12549013521E-01  0.86732846908E-01  0.86770997968E-01  0.88859961206E+00  0.88000000000E+00 0. -1.
        -11    1    4    4    0    0  0.18966875907E-01 -0.68153900723E-01 -0.98970837631E-01  0.12165600843E+00  0.51100000000E-03 0. -1.
         11    1    4    4    0    0 -0.40364084751E-02 -0.47032308926E-02 -0.73213589817E-02  0.96060601990E-02  0.51100000000E-03 0.  1.
</event>
<event>
 8    1  0.1094829E+005  0.1043930E+01  0.7957747E-01            NaN
         13   -1    0    0    0    0  0.00000000000E+00  0.00000000000E+00  0.74505805969E-08  0.10566000000E+00  0.10566000000E+00 0. -1.
     999900   -1    0    0    0    0 -0.00000000000E+00 -0.00000000000E+00 -0.74505805969E-08  0.93827000000E+00  0.93827000000E+00 0.  1.
     999902    2    1    2    0    0  0.77742001973E-02 -0.19657291981E-01  0.10062582732E-01  0.10205184027E+01  0.10202498260E+01 0.  0.
     999903    2    3    3    0    0 -0.98687337650E-01 -0.91206554015E-02 -0.80576818043E-01  0.12941763358E+00  0.20830825937E-01 0.  0.
         14    1    1    2    0    0 -0.77742001973E-02  0.19657291981E-01 -0.10062582732E-01  0.23411597297E-01  0.00000000000E+00 0.  1.
     999901    1    3    3    0    0  0.10646153785E+00 -0.10536636580E-01  0.90639400776E-01  0.89110076912E+00  0.88000000000E+00 0. -1.
        -11    1    4    4    0    0 -0.44903238309E-01 -0.12581108039E-01 -0.29630077491E-01  0.55252038001E-01  0.51100000000E-03 0. -1.
         11    1    4    4    0    0 -0.53784099341E-01  0.34604526372E-02 -0.50946740552E-01  0.74165595583E-01  0.51100000000E-03 0.  1.
</event>
<event>
 8    1  0.1094829E+005  0.1043930E+01  0.7957747E-01            NaN
         13   -1    0    0    0    0  0.00000000000E+00  0.00000000000E+00  0.74505805969E-08  0.10566000000E+00  0.10566000000E+00 0. -1.
     999900   -1    0    0    0    0 -0.00000000000E+00 -0.00000000000E+00 -0.74505805969E-08  0.93827000000E+00  0.93827000000E+00 0. -1.
     999902    2    1    2    0    0  0.21900278928E-01  0.86751968406E-02 -0.52787454746E-03  0.10203681684E+01  0.10200960931E+01 0.  0.
     999903    2    3    3    0    0 -0.81206616163E-01  0.93537846061E-01  0.32244664347E-01  0.12969048238E+00  0.20882042204E-01 0.  0.
         14    1    1    2    0    0 -0.21900278928E-01 -0.86751968406E-02  0.52787454746E-03  0.23561831612E-01  0.00000000000E+00 0. -1.
     999901    1    3    3    0    0  0.10310689509E+00 -0.84862649220E-01 -0.32772538894E-01  0.89067768601E+00  0.88000000000E+00 0. -1.
        -11    1    4    4    0    0 -0.60810238288E-01  0.74848566574E-01  0.16452723357E-01  0.97832235105E-01  0.51100000000E-03 0. -1.
         11    1    4    4    0    0 -0.20396377875E-01  0.18689279487E-01  0.15791940990E-01  0.31858247274E-01  0.51100000000E-03 0.  1.
</event>
<event>
 8    1  0.1094829E+005  0.1043930E+01  0.7957747E-01            NaN
         13   -1    0    0    0    0  0.00000000000E+00  0.00000000000E+00  0.74505805969E-08  0.10566000000E+00  0.10566000000E+00 0.  1.
     999900   -1    0    0    0    0 -0.00000000000E+00 -0.00000000000E+00 -0.74505805969E-08  0.93827000000E+00  0.93827000000E+00 0.  1.
     999902    2    1    2    0    0 -0.91271017214E-02  0.13788101575E-01 -0.17053103542E-01  0.10201765987E+01  0.10199000287E+01 0.  0.
     999903    2    3    3    0    0  0.10160344306E+00 -0.75300584791E-01 -0.10622439905E-01  0.12875111054E+00  0.21692729724E-01 0.  0.
         14    1    1    2    0    0  0.91271017214E-02 -0.13788101575E-01  0.17053103542E-01  0.23753401257E-01  0.00000000000E+00 0.  1.
     999901    1    3    3    0    0 -0.11073054479E+00  0.89088686365E-01 -0.64306636371E-02  0.89142548821E+00  0.88000000000E+00 0. -1.
        -11    1    4    4    0    0  0.66183507592E-01 -0.60602147837E-01 -0.39750231603E-02  0.89827272750E-01  0.51100000000E-03 0.  1.
         11    1    4    4    0    0  0.35419935472E-01 -0.14698436954E-01 -0.66474167449E-02  0.38923837787E-01  0.51100000000E-03 0. -1.
</event>
<event>
 8    1  0.1094829E+005  0.1043930E+01  0.7957747E-01            NaN
         13   -1    0    0    0    0  0.00000000000E+00  0.00000000000E+00  0.74505805969E-08  0.10566000000E+00  0.10566000000E+00 0.  1.
     999900   -1    0    0    0    0 -0.00000000000E+00 -0.00000000000E+00 -0.74505805969E-08  0.93827000000E+00  0.93827000000E+00 0.  1.
     999902    2    1    2    0    0 -0.81661462403E-02  0.53692002663E-02  0.18826486518E-01  0.10227179551E+01  0.10224979534E+01 0.  0.
     999903    2    3    3    0    0 -0.77019186676E-01  0.10262539772E+00 -0.30307901800E-01  0.13332844689E+00  0.19848890820E-01 0.  0.
         14    1    1    2    0    0  0.81661462403E-02 -0.53692002663E-02 -0.18826486518E-01  0.21212044940E-01  0.00000000000E+00 0. -1.
     999901    1    3    3    0    0  0.68853040436E-01 -0.97256197451E-01  0.49134388318E-01  0.88938950817E+00  0.88000000000E+00 0. -1.
        -11    1    4    4    0    0 -0.37964036253E-01  0.49236735248E-01 -0.24834284958E-01  0.66951676430E-01  0.51100000000E-03 0. -1.
         11    1    4    4    0    0 -0.39055150423E-01  0.53388662470E-01 -0.54736168425E-02  0.66376770464E-01  0.51100000000E-03 0.  1.
</event>
<event>
 8    1  0.1094829E+005  0.1043930E+01  0.7957747E-01            NaN
         13   -1    0    0    0    0  0.00000000000E+00  0.00000000000E+00  0.74505805969E-08  0.10566000000E+00  0.10566000000E+00 0. -1.
     999900   -1    0    0    0    0 -0.00000000000E+00 -0.00000000000E+00 -0.74505805969E-08  0.93827000000E+00  0.93827000000E+00 0. -1.
     999902    2    1    2    0    0  0.17386162430E-01 -0.14842870512E-01  0.22264521453E-02  0.10209616187E+01  0.10207032284E+01 0.  0.
     999903    2    3    3    0    0  0.26556212354E-01  0.23580475108E-01  0.12519235820E+00  0.13153424263E+00  0.19153569126E-01 0.  0.
         14    1    1    2    0    0 -0.17386162430E-01  0.14842870512E-01 -0.22264521453E-02  0.22968381272E-01  0.00000000000E+00 0.  1.
     999901    1    3    3    0    0 -0.91700499236E-02 -0.38423345620E-01 -0.12296590606E+00  0.88942737610E+00  0.88000000000E+00 0. -1.
        -11    1    4    4    0    0 -0.17025139880E-03  0.10146889910E-01  0.38801434468E-01  0.40109859114E-01  0.51100000000E-03 0.  1.
         11    1    4    4    0    0  0.26726463753E-01  0.13433585198E-01  0.86390923736E-01  0.91424383514E-01  0.51100000000E-03 0. -1.
</event>
<event>
 8    1  0.1094829E+005  0.1043930E+01  0.7957747E-01            NaN
         13   -1    0    0    0    0  0.00000000000E+00  0.00000000000E+00  0.74505805969E-08  0.10566000000E+00  0.10566000000E+00 0. -1.
     999900   -1    0    0    0    0 -0.00000000000E+00 -0.00000000000E+00 -0.74505805969E-08  0.93827000000E+00  0.93827000000E+00 0. -1.
     999902    2    1    2    0    0  0.19973781165E-01 -0.94969722245E-02 -0.94529730575E-02  0.10198779083E+01  0.10195942549E+01 0.  0.
     999903    2    3    3    0    0 -0.12362424207E+00  0.96307380492E-02  0.21738674073E-01  0.12748831825E+00  0.20124537215E-01 0.  0.
         14    1    1    2    0    0 -0.19973781165E-01  0.94969722245E-02  0.94529730575E-02  0.24052091699E-01  0.00000000000E+00 0. -1.
     999901    1    3    3    0    0  0.14359802323E+00 -0.19127710274E-01 -0.31191647130E-01  0.89238959005E+00  0.88000000000E+00 0. -1.
        -11    1    4    4    0    0 -0.24327185506E-01  0.20437597127E-02  0.12612660608E-01  0.27483253756E-01  0.51100000000E-03 0.  1.
         11    1    4    4    0    0 -0.99297056562E-01  0.75869783366E-02  0.91260134650E-02  0.10000506450E+00  0.51100000000E-03 0. -1.
</event>
<event>
 8    1  0.1094829E+005  0.1043930E+01  0.7957747E-01            NaN
         13   -1    0    0    0    0  0.00000000000E+00  0.00000000000E+00  0.74505805969E-08  0.10566000000E+00  0.10566000000E+00 0.  1.
     999900   -1    0    0    0    0 -0.00000000000E+00 -0.00000000000E+00 -0.74505805969E-08  0.93827000000E+00  0.93827000000E+00 0. -1.
     999902    2    1    2    0    0  0.93683419906E-02  0.20177167816E-01  0.98316186147E-02  0.10196083089E+01  0.10193181834E+01 0.  0.
     999903    2    3    3    0    0 -0.52112473951E-02  0.71354932108E-01  0.10930548515E+00  0.13240665308E+00  0.21567319269E-01 0.  0.
         14    1    1    2    0    0 -0.93683419906E-02 -0.20177167816E-01 -0.98316186147E-02  0.24321691086E-01  0.00000000000E+00 0. -1.
     999901    1    3    3    0    0  0.14579589386E-01 -0.51177764293E-01 -0.99473866538E-01  0.88720165583E+00  0.88000000000E+00 0. -1.
        -11    1    4    4    0    0 -0.64471410229E-02  0.58519204286E-01  0.72443204614E-01  0.93350639598E-01  0.51100000000E-03 0.  1.
         11    1    4    4    0    0  0.12358936278E-02  0.12835727823E-01  0.36862280539E-01  0.39056013485E-01  0.51100000000E-03 0. -1.
</event>
<event>
 8    1  0.1094829E+005  0.1043930E+01  0.7957747E-01            NaN
         13   -1    0    0    0    0  0.00000000000E+00  0.00000000000E+00  0.74505805969E-08  0.10566000000E+00  0.10566000000E+00 0. -1.
     999900   -1    0    0    0    0 -0.00000000000E+00 -0.00000000000E+00 -0.74505805969E-08  0.93827000000E+00  0.93827000000E+00 0.  1.
     999902    2    1    2    0    0  0.14987128944E-01 -0.89963871657E-02 -0.16972521872E-01  0.10195657739E+01  0.10192746204E+01 0.  0.
     999903    2    3    3    0    0 -0.10023060152E+00  0.63945607383E-01 -0.45149916486E-01  0.12861705170E+00  0.19199396996E-01 0.  0.
         14    1    1    2    0    0 -0.14987128944E-01  0.89963871657E-02  0.16972521872E-01  0.24364226126E-01  0.00000000000E+00 0. -1.
     999901    1    3    3    0    0  0.11521773046E+00 -0.72941994549E-01  0.28177394614E-01  0.89094872218E+00  0.88000000000E+00 0. -1.
        -11    1    4    4    0    0 -0.42927606774E-01  0.35247864842E-01 -0.28345276593E-01  0.62361103465E-01  0.51100000000E-03 0. -1.
         11    1    4    4    0    0 -0.57302994741E-01  0.28697742541E-01 -0.16804639894E-01  0.66255948233E-01  0.51100000000E-03 0.  1.
</event>
<event>
 8    1  0.1094829E+005  0.1043930E+01  0.7957747E-01            NaN
         13   -1    0    0    0    0  0.00000000000E+00  0.00000000000E+00  0.74505805969E-08  0.10566000000E+00  0.10566000000E+00 0.  1.
     999900   -1    0    0    0    0 -0.00000000000E+00 -0.00000000000E+00 -0.74505805969E-08  0.93827000000E+00  0.93827000000E+00 0. -1.
     999902    2    1    2    0    0 -0.19754071338E-01 -0.14661278351E-01 -0.28575707031E-02  0.10191642550E+01  0.10188633061E+01 0.  0.
     999903    2    3    3    0    0 -0.31343641080E-01 -0.24504236622E-01  0.12231564851E+00  0.13017632660E+00  0.20046862272E-01 0.  0.
         14    1    1    2    0    0  0.19754071338E-01  0.14661278351E-01  0.28575707031E-02  0.24765745045E-01  0.00000000000E+00 0.  1.
     999901    1    3    3    0    0  0.11589569742E-01  0.98429582705E-02 -0.12517321922E+00  0.88898792836E+00  0.88000000000E+00 0. -1.
        -11    1    4    4    0    0 -0.16687433843E-01 -0.23798357039E-01  0.68948740312E-01  0.74826613966E-01  0.51100000000E-03 0. -1.
         11    1    4    4    0    0 -0.14656207237E-01 -0.70587958322E-03  0.53366908201E-01  0.55349712633E-01  0.51100000000E-03 0.  1.
</event>
<event>
 8    1  0.1094829E+005  0.1043930E+01  0.7957747E-01            NaN
         13   -1    0    0    0    0  0.00000000000E+00  0.00000000000E+00  0.74505805969E-08  0.10566000000E+00  0.10566000000E+00 0. -1.
     999900   -1    0    0    0    0 -0.00000000000E+00 -0.00000000000E+00 -0.74505805969E-08  0.93827000000E+00  0.93827000000E+00 0. -1.
     999902    2    1    2    0    0  0.13174619552E-01 -0.18944415945E-01 -0.29003722893E-02  0.10206733095E+01  0.10204083158E+01 0.  0.
     999903    2    3    3    0    0 -0.91724051905E-01  0.86246598735E-01  0.13484579455E-01  0.12807186004E+00  0.19203904828E-01 0.  0.
         14    1    1    2    0    0 -0.13174619552E-01  0.18944415945E-01  0.29003722893E-02  0.23256690548E-01  0.00000000000E+00 0.  1.
     999901    1    3    3    0    0  0.10489867146E+00 -0.10519101468E+00 -0.16384951744E-01  0.89260144941E+00  0.88000000000E+00 0. -1.
        -11    1    4    4    0    0 -0.61356481648E-01  0.62353544182E-01  0.17521476259E-01  0.89217966597E-01  0.51100000000E-03 0. -1.
         11    1    4    4    0    0 -0.30367570257E-01  0.23893054552E-01 -0.40368968040E-02  0.38853893446E-01  0.51100000000E-03 0.  1.
</event>
<event>
 7    1  0.1094829E+005  0.1043930E+01  0.7957747E-01            NaN
         13   -1    0    0    0    0  0.00000000000E+00  0.00000000000E+00  0.74505805969E-08  0.10566000000E+00  0.10566000000E+00 0.  1.
     999900   -1    0    0    0    0 -0.00000000000E+00 -0.00000000000E+00 -0.74505805969E-08  0.93827000000E+00  0.93827000000E+00 0.  1.
     999902    2    1    2    0    0  0.28402590255E-02 -0.22678604185E-01 -0.15854734509E-02  0.10210193063E+01  0.10207622270E+01 0.  0.
         14    1    1    2    0    0 -0.28402590255E-02  0.22678604185E-01  0.15854734509E-02  0.22910693686E-01  0.00000000000E+00 0.  1.
     999901    1    3    3    0    0  0.82653729662E-01  0.30767278968E-01  0.76540784274E-01  0.88771434377E+00  0.88000000000E+00 0. -1.
        -11    1    3    3    0    0 -0.64910822819E-01 -0.52043354349E-01 -0.39946273562E-01  0.92292424084E-01  0.51100000000E-03 0. -1.
         11    1    3    3    0    0 -0.14902647818E-01 -0.14025288036E-02 -0.38179984163E-01  0.41012538457E-01  0.51100000000E-03 0.  1.
</event>
<event>
 8    1  0.1094829E+005  0.1043930E+01  0.7957747E-01            NaN
         13   -1    0    0    0    0  0.00000000000E+00  0.00000000000E+00  0.74505805969E-08  0.10566000000E+00  0.10566000000E+00 0. -1.
     999900   -1    0    0    0    0 -0.00000000000E+00 -0.00000000000E+00 -0.74505805969E-08  0.93827000000E+00  0.93827000000E+00 0.  1.
     999902    2    1    2    0    0  0.15682313643E-01  0.94572505523E-02 -0.15191810500E-01  0.10201357642E+01  0.10198582312E+01 0.  0.
     999903    2    3    3    0    0 -0.10899764997E+00 -0.57305017320E-01 -0.31736492831E-01  0.12868973657E+00  0.19735516495E-01 0.  0.
         14    1    1    2    0    0 -0.15682313643E-01 -0.94572505523E-02  0.15191810500E-01  0.23794235762E-01  0.00000000000E+00 0. -1.
     999901    1    3    3    0    0  0.12467996361E+00  0.66762267872E-01  0.16544682331E-01  0.89144602767E+00  0.88000000000E+00 0. -1.
        -11    1    4    4    0    0 -0.65875534405E-01 -0.25342266601E-01 -0.23437613668E-01  0.74373378067E-01  0.51100000000E-03 0. -1.
         11    1    4    4    0    0 -0.43122115565E-01 -0.31962750719E-01 -0.82988791633E-02  0.54316358500E-01  0.51100000000E-03 0.  1.
</event>
<event>
 8    1  0.1094829E+005  0.1043930E+01  0.7957747E-01            NaN
         13   -1    0    0    0    0  0.00000000000E+00  0.00000000000E+00  0.74505805969E-08  0.10566000000E+00  0.10566000000E+00 0.  1.
     999900   -1    0    0    0    0 -0.00000000000E+00 -0.00000000000E+00 -0.74505805969E-08  0.93827000000E+00  0.93827000000E+00 0.  1.
     999902    2    1    2    0    0 -0.17513396208E-01 -0.19670515624E-01 -0.16780429015E-01  0.10127013108E+01  0.10122196964E+01 0.  0.
     999903    2    3    3    0    0 -0.46451734377E-01  0.75784231826E-01 -0.84764182890E-01  0.12446101278E+00  0.20113765953E-01 0.  0.
         14    1    1    2    0    0  0.17513396208E-01  0.19670515624E-01  0.16780429015E-01  0.31228689206E-01  0.00000000000E+00 0. -1.
     999901    1    3    3    0    0  0.28938338169E-01 -0.95454747450E-01  0.67983753876E-01  0.88824029801E+00  0.88000000000E+00 0. -1.
        -11    1    4    4    0    0 -0.11794672801E-01  0.99907904038E-02 -0.23388100089E-01  0.28039160939E-01  0.51100000000E-03 0.  1.
         11    1    4    4    0    0 -0.34657061576E-01  0.65793441422E-01 -0.61376082801E-01  0.96421851840E-01  0.51100000000E-03 0. -1.
</event>
<event>
 8    1  0.1094829E+005  0.1043930E+01  0.7957747E-01            NaN
         13   -1    0    0    0    0  0.00000000000E+00  0.00000000000E+00  0.74505805969E-08  0.10566000000E+00  0.10566000000E+00 0.  1.
     999900   -1    0    0    0    0 -0.00000000000E+00 -0.00000000000E+00 -0.74505805969E-08  0.93827000000E+00  0.93827000000E+00 0. -1.
     999902    2    1    2    0    0  0.10650246646E-01  0.16781576637E-01 -0.13696541078E-01  0.10197919739E+01  0.10195062656E+01 0.  0.
     999903    2    3    3    0    0  0.35659649365E-01  0.11201352136E+00  0.55681674807E-01  0.13158708176E+00  0.19901548128E-01 0.  0.
         14    1    1    2    0    0 -0.10650246646E-01 -0.16781576637E-01  0.13696541078E-01  0.24138026132E-01  0.00000000000E+00 0.  1.
     999901    1    3    3    0    0 -0.25009402719E-01 -0.95231944720E-01 -0.69378215885E-01  0.88820489210E+00  0.88000000000E+00 0. -1.
        -11    1    4    4    0    0  0.36450076605E-01  0.90098452807E-01  0.43347058335E-01  0.10642165132E+00  0.51100000000E-03 0.  1.
         11    1    4    4    0    0 -0.79042724001E-03  0.21915068551E-01  0.12334616472E-01  0.25165430442E-01  0.51100000000E-03 0. -1.
</event>
<event>
 8    1  0.1094829E+005  0.1043930E+01  0.7957747E-01            NaN
         13   -1    0    0    0    0  0.00000000000E+00  0.00000000000E+00  0.74505805969E-08  0.10566000000E+00  0.10566000000E+00 0.  1.
     999900   -1    0    0    0    0 -0.00000000000E+00 -0.00000000000E+00 -0.74505805969E-08  0.93827000000E+00  0.93827000000E+00 0.  1.
     999902    2    1    2    0    0  0.29332476274E-02  0.59639761581E-03  0.23240996038E-01  0.10204970418E+01  0.10202279691E+01 0.  0.
     999903    2    3    3    0    0 -0.76817520668E-01 -0.87962913628E-01  0.57393663881E-01  0.13180736519E+00  0.20993885021E-01 0.  0.
         14    1    1    2    0    0 -0.29332476274E-02 -0.59639761581E-03 -0.23240996038E-01  0.23432958170E-01  0.00000000000E+00 0. -1.
     999901    1    3    3    0    0  0.79750768295E-01  0.88559311244E-01 -0.34152667842E-01  0.88868967664E+00  0.88000000000E+00 0. -1.
        -11    1    4    4    0    0 -0.17183653333E-01 -0.12957030852E-01  0.18521941767E-01  0.28398697826E-01  0.51100000000E-03 0.  1.
         11    1    4    4    0    0 -0.59633867334E-01 -0.75005882776E-01  0.38871722114E-01  0.10340866736E+00  0.51100000000E-03 0. -1.
</event>
<event>
 8    1  0.1094829E+005  0.1043930E+01  0.7957747E-01            NaN
         13   -1    0    0    0    0  0.00000000000E+00  0.00000000000E+00  0.74505805969E-08  0.10566000000E+00  0.10566000000E+00 0. -1.
     999900   -1    0    0    0    0 -0.00000000000E+00 -0.00000000000E+00 -0.74505805969E-08  0.93827000000E+00  0.93827000000E+00 0. -1.
     999902    2    1    2    0    0 -0.78963523200E-03  0.23885857603E-01  0.63417634233E-03  0.10200226811E+01  0.10197424724E+01 0.  0.
     999903    2    3    3    0    0  0.45015052516E-01  0.73245069929E-01  0.98276772699E-01  0.13206520583E+00  0.19791395046E-01 0.  0.
         14    1    1    2    0    0  0.78963523200E-03 -0.23885857603E-01 -0.63417634233E-03  0.23907318898E-01  0.00000000000E+00 0.  1.
     999901    1    3    3    0    0 -0.45804687748E-01 -0.49359212325E-01 -0.97642596357E-01  0.88795747527E+00  0.88000000000E+00 0. -1.
        -11    1    4    4    0    0  0.37438774741E-01  0.44043420224E-01  0.59865772090E-01  0.83220529367E-01  0.51100000000E-03 0.  1.
         11    1    4    4    0    0  0.75762777758E-02  0.29201649704E-01  0.38411000609E-01  0.48844676467E-01  0.51100000000E-03 0. -1.
</event>
<event>
 8    1  0.1094829E+005  0.1043930E+01  0.7957747E-01            NaN
         13   -1    0    0    0    0  0.00000000000E+00  0.00000000000E+00  0.74505805969E-08  0.10566000000E+00  0.10566000000E+00 0.  1.
     999900   -1    0    0    0    0 -0.00000000000E+00 -0.00000000000E+00 -0.74505805969E-08  0.93827000000E+00  0.93827000000E+00 0.  1.
     999902    2    1    2    0    0  0.82705526676E-02  0.13283789510E-01  0.17659238114E-01  0.10203353015E+01  0.10200624578E+01 0.  0.
     999903    2    3    3    0    0  0.12217949042E+00  0.10456380147E-01 -0.42211343976E-01  0.13097163747E+00  0.18292307065E-01 0.  0.
         14    1    1    2    0    0 -0.82705526676E-02 -0.13283789510E-01 -0.17659238114E-01  0.23594698471E-01  0.00000000000E+00 0. -1.
     999901    1    3    3    0    0 -0.11390893775E+00  0.28274093635E-02  0.59870582089E-01  0.88936366406E+00  0.88000000000E+00 0. -1.
        -11    1    4    4    0    0  0.79186842552E-01  0.14484070931E-01 -0.31761804793E-01  0.86541421925E-01  0.51100000000E-03 0.  1.
         11    1    4    4    0    0  0.42992647866E-01 -0.40276907844E-02 -0.10449539183E-01  0.44430215549E-01  0.51100000000E-03 0. -1.
</event>
<event>
 8    1  0.1094829E+005  0.1043930E+01  0.7957747E-01            NaN
         13   -1    0    0    0    0  0.00000000000E+00  0.00000000000E+00  0.74505805969E-08  0.10566000000E+00  0.10566000000E+00 0. -1.
     999900   -1    0    0    0    0 -0.00000000000E+00 -0.00000000000E+00 -0.74505805969E-08  0.93827000000E+00  0.93827000000E+00 0. -1.
     999902    2    1    2    0    0 -0.38082987926E-02 -0.21310621933E-01  0.10052504355E-01  0.10200616404E+01  0.10197823550E+01 0.  0.
     999903    2    3    3    0    0  0.93431055475E-01  0.56300694237E-01 -0.64303407725E-01  0.12820525616E+00  0.20063129470E-01 0.  0.
         14    1    1    2    0    0  0.38082987926E-02  0.21310621933E-01 -0.10052504355E-01  0.23868359615E-01  0.00000000000E+00 0.  1.
     999901    1    3    3    0    0 -0.97239354267E-01 -0.77611316171E-01  0.74355912080E-01  0.89185638422E+00  0.88000000000E+00 0.  1.
        -11    1    4    4    0    0  0.58936445021E-01  0.25414987032E-01 -0.31788752443E-01  0.71625498396E-01  0.51100000000E-03 0. -1.
         11    1    4    4    0    0  0.34494610453E-01  0.30885707206E-01 -0.32514655282E-01  0.56579757768E-01  0.51100000000E-03 0.  1.
</event>
<event>
 8    1  0.1094829E+005  0.1043930E+01  0.7957747E-01            NaN
         13   -1    0    0    0    0  0.00000000000E+00  0.00000000000E+00  0.74505805969E-08  0.10566000000E+00  0.10566000000E+00 0.  1.
     999900   -1    0    0    0    0 -0.00000000000E+00 -0.00000000000E+00 -0.74505805969E-08  0.93827000000E+00  0.93827000000E+00 0. -1.
     999902    2    1    2    0    0  0.18350380865E-01  0.13868151078E-01 -0.91112157328E-02  0.10191898233E+01  0.10188895031E+01 0.  0.
     999903    2    3    3    0    0  0.27135045120E-01 -0.39719766724E-01  0.11728965666E+00  0.12850131667E+00  0.21017951475E-01 0.  0.
         14    1    1    2    0    0 -0.18350380865E-01 -0.13868151078E-01  0.91112157328E-02  0.24740176724E-01  0.00000000000E+00 0.  1.
     999901    1    3    3    0    0 -0.87846642546E-02  0.53587917802E-01 -0.12640087239E+00  0.89068850661E+00  0.88000000000E+00 0. -1.
        -11    1    4    4    0    0  0.21726717302E-01 -0.16783986233E-01  0.47834733520E-01  0.55155918001E-01  0.51100000000E-03 0. -1.
         11    1    4    4    0    0  0.54083278174E-02 -0.22935780491E-01  0.69454923139E-01  0.73345398668E-01  0.51100000000E-03 0.  1.
</event>
<event>
 8    1  0.1094829E+005  0.1043930E+01  0.7957747E-01            NaN
         13   -1    0    0    0    0  0.00000000000E+00  0.00000000000E+00  0.74505805969E-08  0.10566000000E+00  0.10566000000E+00 0. -1.
     999900   -1    0    0    0    0 -0.00000000000E+00 -0.00000000000E+00 -0.74505805969E-08  0.93827000000E+00  0.93827000000E+00 0.  1.
     999902    2    1    2    0    0  0.11160192503E-01  0.51108957843E-02 -0.20578212714E-01  0.10199689067E+01  0.10196874211E+01 0.  0.
     999903    2    3    3    0    0  0.69355854269E-01  0.59993209938E-01  0.89164781624E-01  0.12955196604E+00  0.20589654257E-01 0.  0.
         14    1    1    2    0    0 -0.11160192503E-01 -0.51108957843E-02  0.20578212714E-01  0.23961093275E-01  0.00000000000E+00 0. -1.
     999901    1    3    3    0    0 -0.58195661766E-01 -0.54882314153E-01 -0.10974299434E+00  0.89041694069E+00  0.88000000000E+00 0.  1.
        -11    1    4    4    0    0  0.26008997936E-01  0.10233173934E-01  0.24881781966E-01  0.37423923060E-01  0.51100000000E-03 0.  1.
         11    1    4    4    0    0  0.43346856333E-01  0.49760036004E-01  0.64282999658E-01  0.92128042979E-01  0.51100000000E-03 0. -1.
</event>
<event>
 8    1  0.1094829E+005  0.1043930E+01  0.7957747E-01            NaN
         13   -1    0    0    0    0  0.00000000000E+00  0.00000000000E+00  0.74505805969E-08  0.10566000000E+00  0.10566000000E+00 0.  1.
     999900   -1    0    0    0    0 -0.00000000000E+00 -0.00000000000E+00 -0.74505805969E-08  0.93827000000E+00  0.93827000000E+00 0.  1.
     999902    2    1    2    0    0  0.52226095569E-02  0.90097473897E-02 -0.17391366925E-01  0.10236590641E+01  0.10234583375E+01 0.  0.
     999903    2    3    3    0    0 -0.10728274347E-01 -0.10780611275E+00 -0.75005301602E-01  0.13392891325E+00  0.23956308539E-01 0.  0.
         14    1    1    2    0    0 -0.52226095569E-02 -0.90097473897E-02  0.17391366925E-01  0.20270935897E-01  0.00000000000E+00 0. -1.
     999901    1    3    3    0    0  0.15950883904E-01  0.11681586014E+00  0.57613934677E-01  0.88973015086E+00  0.88000000000E+00 0. -1.
        -11    1    4    4    0    0 -0.13332609142E-01 -0.77241650817E-01 -0.64465813859E-01  0.10148957269E+00  0.51100000000E-03 0.  1.
         11    1    4    4    0    0  0.26043347946E-02 -0.30564461929E-01 -0.10539487743E-01  0.32439340555E-01  0.51100000000E-03 0. -1.
</event>
<event>
 8    1  0.1094829E+005  0.1043930E+01  0.7957747E-01            NaN
         13   -1    0    0    0    0  0.00000000000E+00  0.00000000000E+00  0.74505805969E-08  0.10566000000E+00  0.10566000000E+00 0. -1.
     999900   -1    0    0    0    0 -0.00000000000E+00 -0.00000000000E+00 -0.74505805969E-08  0.93827000000E+00  0.93827000000E+00 0.  1.
     999902    2    1    2    0    0  0.16774140456E-02 -0.15560437134E-01  0.19667659803E-01  0.10187952081E+01  0.10184851095E+01 0.  0.
     999903    2    3    3    0    0 -0.35626058459E-01 -0.87693132318E-01  0.89803293729E-01  0.13227748018E+00  0.21757727375E-01 0.  0.
         14    1    1    2    0    0 -0.16774140456E-02  0.15560437134E-01 -0.19667659803E-01  0.25134791899E-01  0.00000000000E+00 0.  1.
     999901    1    3    3    0    0  0.37303472505E-01  0.72132695184E-01 -0.70135633925E-01  0.88651772792E+00  0.88000000000E+00 0.  1.
        -11    1    4    4    0    0 -0.17883907721E-01 -0.61953779571E-01  0.49638104878E-01  0.81377561621E-01  0.51100000000E-03 0.  1.
         11    1    4    4    0    0 -0.17742150739E-01 -0.25739352747E-01  0.40165188851E-01  0.50899918556E-01  0.51100000000E-03 0. -1.
</event>
<event>
 8    1  0.1094829E+005  0.1043930E+01  0.7957747E-01            NaN
         13   -1    0    0    0    0  0.00000000000E+00  0.00000000000E+00  0.74505805969E-08  0.10566000000E+00  0.10566000000E+00 0.  1.
     999900   -1    0    0    0    0 -0.00000000000E+00 -0.00000000000E+00 -0.74505805969E-08  0.93827000000E+00  0.93827000000E+00 0.  1.
     999902    2    1    2    0    0  0.10865998798E-03  0.19262944322E-01  0.15799401673E-01  0.10190162704E+01  0.10187116694E+01 0.  0.
     999903    2    3    3    0    0 -0.44587417902E-01  0.56865527134E-01 -0.10479083363E+00  0.12887375455E+00  0.20139508120E-01 0.  0.
         14    1    1    2    0    0 -0.10865998798E-03 -0.19262944322E-01 -0.15799401673E-01  0.24913729632E-01  0.00000000000E+00 0. -1.
     999901    1    3    3    0    0  0.44696077890E-01 -0.37602582812E-01  0.12059023531E+00  0.89014251582E+00  0.88000000000E+00 0. -1.
        -11    1    4    4    0    0 -0.29708394806E-01  0.30809847620E-01 -0.45793312554E-01  0.62682725116E-01  0.51100000000E-03 0.  1.
         11    1    4    4    0    0 -0.14879023096E-01  0.26055679514E-01 -0.58997521080E-01  0.66191029436E-01  0.51100000000E-03 0. -1.
</event>
<event>
 8    1  0.1094829E+005  0.1043930E+01  0.7957747E-01            NaN
         13   -1    0    0    0    0  0.00000000000E+00  0.00000000000E+00  0.74505805969E-08  0.10566000000E+00  0.10566000000E+00 0.  1.
     999900   -1    0    0    0    0 -0.00000000000E+00 -0.00000000000E+00 -0.74505805969E-08  0.93827000000E+00  0.93827000000E+00 0.  1.
     999902    2    1    2    0    0  0.70714667191E-02 -0.88518302772E-02  0.21489968381E-01  0.10196363942E+01  0.10193469464E+01 0.  0.
     999903    2    3    3    0    0 -0.18073538229E-01 -0.36782246508E-01 -0.11923005857E+00  0.12766413825E+00  0.20068355344E-01 0.  0.
         14    1    1    2    0    0 -0.70714667191E-02  0.88518302772E-02 -0.21489968381E-01  0.24293605780E-01  0.00000000000E+00 0. -1.
     999901    1    3    3    0    0  0.25145004948E-01  0.27930416231E-01  0.14072002696E+00  0.89197225596E+00  0.88000000000E+00 0. -1.
        -11    1    4    4    0    0 -0.15783753495E-01 -0.25383909883E-01 -0.57089814531E-01  0.64443601696E-01  0.51100000000E-03 0. -1.
         11    1    4    4    0    0 -0.22897847340E-02 -0.11398336625E-01 -0.62140244044E-01  0.63220536559E-01  0.51100000000E-03 0.  1.
</event>
<event>
 8    1  0.1094829E+005  0.1043930E+01  0.7957747E-01            NaN
         13   -1    0    0    0    0  0.00000000000E+00  0.00000000000E+00  0.74505805969E-08  0.10566000000E+00  0.10566000000E+00 0.  1.
     999900   -1    0    0    0    0 -0.00000000000E+00 -0.00000000000E+00 -0.74505805969E-08  0.93827000000E+00  0.93827000000E+00 0.  1.
     999902    2    1    2    0    0 -0.22435682586E-01 -0.49189924776E-02 -0.61265247118E-02  0.10201583647E+01  0.10198813649E+01 0.  0.
     999903    2    3    3    0    0 -0.94203161402E-01 -0.82566680717E-02  0.90060070609E-01  0.13200659151E+00  0.19300665730E-01 0.  0.
         14    1    1    2    0    0  0.22435682586E-01  0.49189924776E-02  0.61265247118E-02  0.23771635306E-01  0.00000000000E+00 0. -1.
     999901    1    3    3    0    0  0.71767478816E-01  0.33376755941E-02 -0.96186595321E-01  0.88815177319E+00  0.88000000000E+00 0. -1.
        -11    1    4    4    0    0 -0.52521185334E-01 -0.13155682035E-01  0.44763942965E-01  0.70253957821E-01  0.51100000000E-03 0.  1.
         11    1    4    4    0    0 -0.41681976067E-01  0.48990139633E-02  0.45296127644E-01  0.61752633687E-01  0.51100000000E-03 0. -1.
</event>
<event>
 8    1  0.1094829E+005  0.1043930E+01  0.7957747E-01            NaN
         13   -1    0    0    0    0  0.00000000000E+00  0.00000000000E+00  0.74505805969E-08  0.10566000000E+00  0.10566000000E+00 0.  1.
     999900   -1    0    0    0    0 -0.00000000000E+00 -0.00000000000E+00 -0.74505805969E-08  0.93827000000E+00  0.93827000000E+00 0. -1.
     999902    2    1    2    0    0  0.83423699246E-02  0.60171530335E-02  0.24360651241E-01  0.10174868044E+01  0.10171431337E+01 0.  0.
     999903    2    3    3    0    0 -0.12122963621E+00 -0.17947537847E-01 -0.22773581191E-01  0.12642853071E+00  0.21137610217E-01 0.  0.
         14    1    1    2    0    0 -0.83423699246E-02 -0.60171530335E-02 -0.24360651241E-01  0.26443195636E-01  0.00000000000E+00 0.  1.
     999901    1    3    3    0    0  0.12957200614E+00  0.23964690880E-01  0.47134232432E-01  0.89105827366E+00  0.88000000000E+00 0.  1.
        -11    1    4    4    0    0 -0.63763905166E-01  0.12083620227E-02 -0.11031236144E-01  0.64724377422E-01  0.51100000000E-03 0.  1.
         11    1    4    4    0    0 -0.57465731047E-01 -0.19155899869E-01 -0.11742345048E-01  0.61704153286E-01  0.51100000000E-03 0. -1.
</event>
<event>
 8    1  0.1094829E+005  0.1043930E+01  0.7957747E-01            NaN
         13   -1    0    0    0    0  0.00000000000E+00  0.00000000000E+00  0.74505805969E-08  0.10566000000E+00  0.10566000000E+00 0. -1.
     999900   -1    0    0    0    0 -0.00000000000E+00 -0.00000000000E+00 -0.74505805969E-08  0.93827000000E+00  0.93827000000E+00 0. -1.
     999902    2    1    2    0    0  0.34283008831E-02  0.93619925521E-02  0.21574764631E-01  0.10201629930E+01  0.10198861023E+01 0.  0.
     999903    2    3    3    0    0 -0.10479770915E+00 -0.26021242413E-01  0.72039003018E-01  0.13139334800E+00  0.20369807140E-01 0.  0.
         14    1    1    2    0    0 -0.34283008831E-02 -0.93619925521E-02 -0.21574764631E-01  0.23767006971E-01  0.00000000000E+00 0.  1.
     999901    1    3    3    0    0  0.10822601004E+00  0.35383234965E-01 -0.50464238387E-01  0.88876964503E+00  0.88000000000E+00 0. -1.
        -11    1    4    4    0    0 -0.55345385438E-01 -0.15734355926E-01  0.50200623816E-01  0.76361282062E-01  0.51100000000E-03 0. -1.
         11    1    4    4    0    0 -0.49452323715E-01 -0.10286886487E-01  0.21838379202E-01  0.55032065940E-01  0.51100000000E-03 0.  1.
</event>
<event>
 8    1  0.1094829E+005  0.1043930E+01  0.7957747E-01            NaN
         13   -1    0    0    0    0  0.00000000000E+00  0.00000000000E+00  0.74505805969E-08  0.10566000000E+00  0.10566000000E+00 0. -1.
     999900   -1    0    0    0    0 -0.00000000000E+00 -0.00000000000E+00 -0.74505805969E-08  0.93827000000E+00  0.93827000000E+00 0. -1.
     999902    2    1    2    0    0  0.72950059320E-02 -0.21524711783E-01 -0.63279555001E-02  0.10203381932E+01  0.10200654171E+01 0.  0.
     999903    2    3    3    0    0  0.25346327102E-01 -0.12764021677E+00 -0.23077960310E-01  0.13362126356E+00  0.19687269681E-01 0.  0.
         14    1    1    2    0    0 -0.72950059320E-02  0.21524711783E-01  0.63279555001E-02  0.23591806834E-01  0.00000000000E+00 0. -1.
     999901    1    3    3    0    0 -0.18051321170E-01  0.10611550499E+00  0.16750004809E-01  0.88671692961E+00  0.88000000000E+00 0.  1.
        -11    1    4    4    0    0  0.12621218362E-01 -0.10366831589E+00 -0.17095332441E-01  0.10582497996E+00  0.51100000000E-03 0. -1.
         11    1    4    4    0    0  0.12725108740E-01 -0.23971900885E-01 -0.59826278686E-02  0.27796283595E-01  0.51100000000E-03 0.  1.
</event>
<event>
 8    1  0.1094829E+005  0.1043930E+01  0.7957747E-01            NaN
         13   -1    0    0    0    0  0.00000000000E+00  0.00000000000E+00  0.74505805969E-08  0.10566000000E+00  0.10566000000E+00 0.  1.
     999900   -1    0    0    0    0 -0.00000000000E+00 -0.00000000000E+00 -0.74505805969E-08  0.93827000000E+00  0.93827000000E+00 0. -1.
     999902    2    1    2    0    0  0.21792594345E-01 -0.38696954910E-02 -0.17397764825E-01  0.10157773104E+01  0.10153871037E+01 0.  0.
     999903    2    3    3    0    0  0.43287086756E-01 -0.87547034749E-01 -0.82177357844E-01  0.12917688969E+00  0.19882040003E-01 0.  0.
         14    1    1    2    0    0 -0.21792594345E-01  0.38696954910E-02  0.17397764825E-01  0.28152689612E-01  0.00000000000E+00 0.  1.
     999901    1    3    3    0    0 -0.21494492411E-01  0.83677339258E-01  0.64779593019E-01  0.88660042070E+00  0.88000000000E+00 0.  1.
        -11    1    4    4    0    0  0.72559748904E-02 -0.29161706567E-01 -0.16930081053E-01  0.34495551409E-01  0.51100000000E-03 0.  1.
         11    1    4    4    0    0  0.36031111866E-01 -0.58385328182E-01 -0.65247276791E-01  0.94681338282E-01  0.51100000000E-03 0. -1.
</event>
<event>
 8    1  0.1094829E+005  0.1043930E+01  0.7957747E-01            NaN
         13   -1    0    0    0    0  0.00000000000E+00  0.00000000000E+00  0.74505805969E-08  0.10566000000E+00  0.10566000000E+00 0.  1.
     999900   -1    0    0    0    0 -0.00000000000E+00 -0.00000000000E+00 -0.74505805969E-08  0.93827000000E+00  0.93827000000E+00 0. -1.
     999902    2    1    2    0    0 -0.15395368590E-01  0.15261649096E-01  0.12348104761E-01  0.10189818338E+01  0.10186763797E+01 0.  0.
     999903    2    3    3    0    0  0.42725606262E-01  0.68224601000E-01  0.10112364992E+00  0.13102675641E+00  0.21492899042E-01 0.  0.
         14    1    1    2    0    0  0.15395368590E-01 -0.15261649096E-01 -0.12348104761E-01  0.24948166232E-01  0.00000000000E+00 0. -1.
     999901    1    3    3    0    0 -0.58120974852E-01 -0.52962951904E-01 -0.88775545160E-01  0.88795507736E+00  0.88000000000E+00 0. -1.
        -11    1    4    4    0    0  0.19633589126E-01  0.47540991689E-01  0.72014629115E-01  0.88498540329E-01  0.51100000000E-03 0. -1.
         11    1    4    4    0    0  0.23092017137E-01  0.20683609311E-01  0.29109020806E-01  0.42528216079E-01  0.51100000000E-03 0.  1.
</event>
<event>
 8    1  0.1094829E+005  0.1043930E+01  0.7957747E-01            NaN
         13   -1    0    0    0    0  0.00000000000E+00  0.00000000000E+00  0.74505805969E-08  0.10566000000E+00  0.10566000000E+00 0. -1.
     999900   -1    0    0    0    0 -0.00000000000E+00 -0.00000000000E+00 -0.74505805969E-08  0.93827000000E+00  0.93827000000E+00 0. -1.
     999902    2    1    2    0    0 -0.11760759977E-02 -0.12275924837E-01  0.19631672599E-01  0.10207462977E+01  0.10204829837E+01 0.  0.
     999903    2    3    3    0    0 -0.32314390623E-01 -0.11652402931E+00  0.52754317789E-01  0.13342765616E+00  0.19946231085E-01 0.  0.
         14    1    1    2    0    0  0.11760759977E-02  0.12275924837E-01 -0.19631672599E-01  0.23183702344E-01  0.00000000000E+00 0.  1.
     999901    1    3    3    0    0  0.31138314626E-01  0.10424810447E+00 -0.33122645190E-01  0.88731864150E+00  0.88000000000E+00 0.  1.
        -11    1    4    4    0    0 -0.18745132937E-01 -0.33874891476E-01  0.18928086060E-01  0.43097817163E-01  0.51100000000E-03 0.  1.
         11    1    4    4    0    0 -0.13569257686E-01 -0.82649137834E-01  0.33826231730E-01  0.90329838995E-01  0.51100000000E-03 0. -1.
</event>
<event>
 8    1  0.1094829E+005  0.1043930E+01  0.7957747E-01            NaN
         13   -1    0    0    0    0  0.00000000000E+00  0.00000000000E+00  0.74505805969E-08  0.10566000000E+00  0.10566000000E+00 0. -1.
     999900   -1    0    0    0    0 -0.00000000000E+00 -0.00000000000E+00 -0.74505805969E-08  0.93827000000E+00  0.93827000000E+00 0. -1.
     999902    2    1    2    0    0 -0.24574142935E-01  0.45147574872E-02 -0.28308273858E-02  0.10187847197E+01  0.10184743590E+01 0.  0.
     999903    2    3    3    0    0  0.60432725862E-01  0.97268424979E-01 -0.54930365316E-01  0.12831081645E+00  0.18249924125E-01 0.  0.
         14    1    1    2    0    0  0.24574142935E-01 -0.45147574872E-02  0.28308273858E-02  0.25145280270E-01  0.00000000000E+00 0. -1.
     999901    1    3    3    0    0 -0.85006868797E-01 -0.92753667492E-01  0.52099537930E-01  0.89047390328E+00  0.88000000000E+00 0.  1.
        -11    1    4    4    0    0  0.49105489028E-01  0.78963255030E-01 -0.36248358871E-01  0.99803553741E-01  0.51100000000E-03 0. -1.
         11    1    4    4    0    0  0.11327236834E-01  0.18305169950E-01 -0.18682006445E-01  0.28507262706E-01  0.51100000000E-03 0.  1.
</event>
<event>
 7    1  0.1094829E+005  0.1043930E+01  0.7957747E-01            NaN
         13   -1    0    0    0    0  0.00000000000E+00  0.00000000000E+00  0.74505805969E-08  0.10566000000E+00  0.10566000000E+00 0. -1.
     999900   -1    0    0    0    0 -0.00000000000E+00 -0.00000000000E+00 -0.74505805969E-08  0.93827000000E+00  0.93827000000E+00 0.  1.
     999903    2    1    2    0    0  0.68534583770E-01 -0.68713234041E-01  0.28380336317E-01  0.10301526699E+00  0.19702894186E-01 0.  0.
         14    1    1    2    0    0  0.33129322978E-01 -0.27452084412E-01 -0.25179552948E-01  0.49851568342E-01  0.00000000000E+00 0.  1.
     999901    1    1    2    0    0 -0.10166390675E+00  0.96165318453E-01 -0.32007833693E-02  0.89106316466E+00  0.88000000000E+00 0. -1.
        -11    1    3    3    0    0  0.39028701444E-01 -0.44921176294E-01  0.82016559898E-02  0.60072288936E-01  0.51100000000E-03 0. -1.
         11    1    3    3    0    0  0.29505882326E-01 -0.23792057747E-01  0.20178680327E-01  0.42942978057E-01  0.51100000000E-03 0.  1.
</event>
<event>
 8    1  0.1094829E+005  0.1043930E+01  0.7957747E-01            NaN
         13   -1    0    0    0    0  0.00000000000E+00  0.00000000000E+00  0.74505805969E-08  0.10566000000E+00  0.10566000000E+00 0.  1.
     999900   -1    0    0    0    0 -0.00000000000E+00 -0.00000000000E+00 -0.74505805969E-08  0.93827000000E+00  0.93827000000E+00 0.  1.
     999902    2    1    2    0    0 -0.87131262976E-02 -0.65834072089E-02 -0.20833753472E-01  0.10204075617E+01  0.10201364060E+01 0.  0.
     999903    2    3    3    0    0 -0.85829358795E-01  0.69337491844E-01  0.65085094398E-01  0.12962535225E+00  0.19806459242E-01 0.  0.
         14    1    1    2    0    0  0.87131262976E-02  0.65834072089E-02  0.20833753472E-01  0.23522438311E-01  0.00000000000E+00 0.  1.
     999901    1    3    3    0    0  0.77116232497E-01 -0.75920899053E-01 -0.85918847870E-01  0.89078220944E+00  0.88000000000E+00 0.  1.
        -11    1    4    4    0    0 -0.41004969172E-01  0.41072811669E-01  0.25081565277E-01  0.63227599930E-01  0.51100000000E-03 0. -1.
         11    1    4    4    0    0 -0.44824389623E-01  0.28264680176E-01  0.40003529121E-01  0.66397752324E-01  0.51100000000E-03 0.  1.
</event>
<event>
 8    1  0.1094829E+005  0.1043930E+01  0.7957747E-01            NaN
         13   -1    0    0    0    0  0.00000000000E+00  0.00000000000E+00  0.74505805969E-08  0.10566000000E+00  0.10566000000E+00 0. -1.
     999900   -1    0    0    0    0 -0.00000000000E+00 -0.00000000000E+00 -0.74505805969E-08  0.93827000000E+00  0.93827000000E+00 0. -1.
     999902    2    1    2    0    0  0.11175698450E-02  0.23863800794E-01 -0.23752288573E-03  0.10200388642E+01  0.10197590393E+01 0.  0.
     999903    2    3    3    0    0 -0.91518214048E-02  0.35131012492E-01 -0.12450754318E+00  0.13117698048E+00  0.19680651023E-01 0.  0.
         14    1    1    2    0    0 -0.11175698450E-02 -0.23863800794E-01  0.23752288573E-03  0.23891135758E-01  0.00000000000E+00 0.  1.
     999901    1    3    3    0    0  0.10269391250E-01 -0.11267211698E-01  0.12427002030E+00  0.88886188376E+00  0.88000000000E+00 0.  1.
        -11    1    4    4    0    0 -0.99350827809E-02  0.11831183649E-01 -0.28983459487E-01  0.32847904366E-01  0.51100000000E-03 0.  1.
         11    1    4    4    0    0  0.78326137610E-03  0.23299828843E-01 -0.95524083698E-01  0.98329076116E-01  0.51100000000E-03 0. -1.
</event>
<event>
 8    1  0.1094829E+005  0.1043930E+01  0.7957747E-01            NaN
         13   -1    0    0    0    0  0.00000000000E+00  0.00000000000E+00  0.74505805969E-08  0.10566000000E+00  0.10566000000E+00 0.  1.
     999900   -1    0    0    0    0 -0.00000000000E+00 -0.00000000000E+00 -0.74505805969E-08  0.93827000000E+00  0.93827000000E+00 0.  1.
     999902    2    1    2    0    0  0.16346272144E-01 -0.36064620073E-02  0.12367553027E-01  0.10231174185E+01  0.10229057085E+01 0.  0.
     999903    2    3    3    0    0  0.10356336503E+00 -0.72303335306E-02  0.85187917372E-01  0.13580532052E+00  0.20210282479E-01 0.  0.
         14    1    1    2    0    0 -0.16346272144E-01  0.36064620073E-02 -0.12367553027E-01  0.20812581510E-01  0.00000000000E+00 0. -1.
     999901    1    3    3    0    0 -0.87217092881E-01  0.36238715234E-02 -0.72820364345E-01  0.88731209797E+00  0.88000000000E+00 0.  1.
        -11    1    4    4    0    0  0.81635954477E-01 -0.18156382280E-03  0.74039480512E-01  0.11021146866E+00  0.51100000000E-03 0.  1.
         11    1    4    4    0    0  0.21927410549E-01 -0.70487697078E-02  0.11148436860E-01  0.25593851863E-01  0.51100000000E-03 0. -1.
</event>
<event>
 8    1  0.1094829E+005  0.1043930E+01  0.7957747E-01            NaN
         13   -1    0    0    0    0  0.00000000000E+00  0.00000000000E+00  0.74505805969E-08  0.10566000000E+00  0.10566000000E+00 0. -1.
     999900   -1    0    0    0    0 -0.00000000000E+00 -0.00000000000E+00 -0.74505805969E-08  0.93827000000E+00  0.93827000000E+00 0. -1.
     999902    2    1    2    0    0  0.99042518653E-02 -0.19974717533E-01 -0.74192880921E-02  0.10204325665E+01  0.10201619937E+01 0.  0.
     999903    2    3    3    0    0  0.32529100664E-01 -0.12050092912E+00 -0.43606417775E-01  0.13368180593E+00  0.19765860888E-01 0.  0.
         14    1    1    2    0    0 -0.99042518653E-02  0.19974717533E-01  0.74192880921E-02  0.23497433505E-01  0.00000000000E+00 0.  1.
     999901    1    3    3    0    0 -0.22624848799E-01  0.10052621159E+00  0.36187129683E-01  0.88675076056E+00  0.88000000000E+00 0.  1.
        -11    1    4    4    0    0  0.84790703820E-02 -0.50240956016E-01 -0.26667561514E-01  0.57510592538E-01  0.51100000000E-03 0. -1.
         11    1    4    4    0    0  0.24050030282E-01 -0.70259973109E-01 -0.16938856261E-01  0.76171213396E-01  0.51100000000E-03 0.  1.
</event>
<event>
 8    1  0.1094829E+005  0.1043930E+01  0.7957747E-01            NaN
         13   -1    0    0    0    0  0.00000000000E+00  0.00000000000E+00  0.74505805969E-08  0.10566000000E+00  0.10566000000E+00 0.  1.
     999900   -1    0    0    0    0 -0.00000000000E+00 -0.00000000000E+00 -0.74505805969E-08  0.93827000000E+00  0.93827000000E+00 0. -1.
     999902    2    1    2    0    0  0.21261695598E-01 -0.88882094905E-02 -0.91635325262E-02  0.10191301956E+01  0.10188284082E+01 0.  0.
     999903    2    3    3    0    0 -0.94550449083E-01 -0.48121162414E-01 -0.69963895885E-01  0.12859756759E+00  0.19671145582E-01 0.  0.
         14    1    1    2    0    0 -0.21261695598E-01  0.88882094905E-02  0.91635325262E-02  0.24799804354E-01  0.00000000000E+00 0.  1.
     999901    1    3    3    0    0  0.11581214468E+00  0.39232952923E-01  0.60800363358E-01  0.89053262806E+00  0.88000000000E+00 0.  1.
        -11    1    4    4    0    0 -0.47297362034E-01 -0.28782394672E-01 -0.46932864063E-01  0.72583893176E-01  0.51100000000E-03 0.  1.
         11    1    4    4    0    0 -0.47253087049E-01 -0.19338767741E-01 -0.23031031822E-01  0.56013674412E-01  0.51100000000E-03 0. -1.
</event>
<event>
 8    1  0.1094829E+005  0.1043930E+01  0.7957747E-01            NaN
         13   -1    0    0    0    0  0.00000000000E+00  0.00000000000E+00  0.74505805969E-08  0.10566000000E+00  0.10566000000E+00 0. -1.
     999900   -1    0    0    0    0 -0.00000000000E+00 -0.00000000000E+00 -0.74505805969E-08  0.93827000000E+00  0.93827000000E+00 0.  1.
     999902    2    1    2    0    0  0.74555701352E-02 -0.30555266218E-02 -0.21231025491E-01  0.10212214507E+01  0.10209689384E+01 0.  0.
     999903    2    3    3    0    0  0.92904236624E-01 -0.27924781360E-01  0.84748555050E-01  0.13040630379E+00  0.20309994771E-01 0.  0.
         14    1    1    2    0    0 -0.74555701352E-02  0.30555266218E-02  0.21231025491E-01  0.22708549323E-01  0.00000000000E+00 0. -1.
     999901    1    3    3    0    0 -0.85448666489E-01  0.24869254738E-01 -0.10597958054E+00  0.89081514689E+00  0.88000000000E+00 0.  1.
        -11    1    4    4    0    0  0.52642255537E-01 -0.53859914018E-02  0.43207861953E-01  0.68318346196E-01  0.51100000000E-03 0.  1.
         11    1    4    4    0    0  0.40261981087E-01 -0.22538789958E-01  0.41540693097E-01  0.62087957591E-01  0.51100000000E-03 0. -1.
</event>
<event>
 8    1  0.1094829E+005  0.1043930E+01  0.7957747E-01            NaN
         13   -1    0    0    0    0  0.00000000000E+00  0.00000000000E+00  0.74505805969E-08  0.10566000000E+00  0.10566000000E+00 0.  1.
     999900   -1    0    0    0    0 -0.00000000000E+00 -0.00000000000E+00 -0.74505805969E-08  0.93827000000E+00  0.93827000000E+00 0. -1.
     999902    2    1    2    0    0  0.55837183277E-02 -0.47282251354E-02 -0.23898709195E-01  0.10189363543E+01  0.10186297717E+01 0.  0.
     999903    2    3    3    0    0 -0.12703207655E+00 -0.69417958102E-02 -0.47043564182E-02  0.12879014603E+00  0.19479059152E-01 0.  0.
         14    1    1    2    0    0 -0.55837183277E-02  0.47282251354E-02  0.23898709195E-01  0.24993645682E-01  0.00000000000E+00 0.  1.
     999901    1    3    3    0    0  0.13261579487E+00  0.22135706749E-02 -0.19194352777E-01  0.89014620828E+00  0.88000000000E+00 0. -1.
        -11    1    4    4    0    0 -0.11051705954E-01 -0.74966737546E-03  0.51494857232E-02  0.12226223042E-01  0.51100000000E-03 0.  1.
         11    1    4    4    0    0 -0.11598037059E+00 -0.61921284348E-02 -0.98538421414E-02  0.11656392299E+00  0.51100000000E-03 0. -1.
</event>
<event>
 8    1  0.1094829E+005  0.1043930E+01  0.7957747E-01            NaN
         13   -1    0    0    0    0  0.00000000000E+00  0.00000000000E+00  0.74505805969E-08  0.10566000000E+00  0.10566000000E+00 0.  1.
     999900   -1    0    0    0    0 -0.00000000000E+00 -0.00000000000E+00 -0.74505805969E-08  0.93827000000E+00  0.93827000000E+00 0.  1.
     999902    2    1    2    0    0  0.18460387738E-01 -0.28909079152E-02 -0.14276447714E-01  0.10204148937E+01  0.10201439090E+01 0.  0.
     999903    2    3    3    0    0 -0.96239958591E-01  0.24123135057E-01  0.78037105188E-01  0.12777402528E+00  0.19807990175E-01 0.  0.
         14    1    1    2    0    0 -0.18460387738E-01  0.28909079152E-02  0.14276447714E-01  0.23515106280E-01  0.00000000000E+00 0.  1.
     999901    1    3    3    0    0  0.11470034633E+00 -0.27014042972E-01 -0.92313552902E-01  0.89264086844E+00  0.88000000000E+00 0.  1.
        -11    1    4    4    0    0 -0.16304826785E-01  0.12139532357E-01  0.14935536014E-01  0.25229882667E-01  0.51100000000E-03 0. -1.
         11    1    4    4    0    0 -0.79935131806E-01  0.11983602700E-01  0.63101569174E-01  0.10254414261E+00  0.51100000000E-03 0.  1.
</event>
<event>
 8    1  0.1094829E+005  0.1043930E+01  0.7957747E-01            NaN
         13   -1    0    0    0    0  0.00000000000E+00  0.00000000000E+00  0.74505805969E-08  0.10566000000E+00  0.10566000000E+00 0.  1.
     999900   -1    0    0    0    0 -0.00000000000E+00 -0.00000000000E+00 -0.74505805969E-08  0.93827000000E+00  0.93827000000E+00 0. -1.
     999902    2    1    2    0    0 -0.85689194284E-02  0.21152054805E-01  0.23253216652E-02  0.10209900147E+01  0.10207322701E+01 0.  0.
     999903    2    3    3    0    0 -0.75927006051E-02  0.10794389198E+00 -0.75249597589E-01  0.13332361113E+00  0.20078606306E-01 0.  0.
         14    1    1    2    0    0  0.85689194284E-02 -0.21152054805E-01 -0.23253216652E-02  0.22939985255E-01  0.00000000000E+00 0.  1.
     999901    1    3    3    0    0 -0.97621882324E-03 -0.86791837171E-01  0.77574919254E-01  0.88766640361E+00  0.88000000000E+00 0.  1.
        -11    1    4    4    0    0 -0.61974096013E-02  0.42017756282E-01 -0.40920861018E-01  0.58980316345E-01  0.51100000000E-03 0. -1.
         11    1    4    4    0    0 -0.13952910038E-02  0.65926135694E-01 -0.34328736571E-01  0.74343294789E-01  0.51100000000E-03 0.  1.
</event>
<event>
 8    1  0.1276143E+005  0.1043930E+01  0.7957747E-01            NaN
         13   -1    0    0    0    0  0.00000000000E+00  0.00000000000E+00  0.74505805969E-08  0.10566000000E+00  0.10566000000E+00 0. -1.
     999900   -1    0    0    0    0 -0.00000000000E+00 -0.00000000000E+00 -0.74505805969E-08  0.93827000000E+00  0.93827000000E+00 0. -1.
     999902    2    1    2    0    0 -0.11635329418E-01  0.14195814125E-01 -0.15427811795E-01  0.10199525229E+01  0.10196706476E+01 0.  0.
     999903    2    3    3    0    0  0.73961549883E-01  0.69478275424E-01 -0.81498316866E-01  0.13161233590E+00  0.19552229838E-01 0.  0.
         14    1    1    2    0    0  0.11635329418E-01 -0.14195814125E-01  0.15427811795E-01  0.23977477059E-01  0.00000000000E+00 0. -1.
     999901    1    3    3    0    0 -0.85596879301E-01 -0.55282461299E-01  0.66070505071E-01  0.88834018704E+00  0.88000000000E+00 0. -1.
        -11    1    4    4    0    0  0.43757327988E-01  0.52157811894E-01 -0.48080709061E-01  0.83349605872E-01  0.51100000000E-03 0. -1.
         11    1    4    4    0    0  0.30204221894E-01  0.17320463530E-01 -0.33417607805E-01  0.48262730026E-01  0.51100000000E-03 0.  1.
</event>
<event>
 8    1  0.1094829E+005  0.1043930E+01  0.7957747E-01            NaN
         13   -1    0    0    0    0  0.00000000000E+00  0.00000000000E+00  0.74505805969E-08  0.10566000000E+00  0.10566000000E+00 0. -1.
     999900   -1    0    0    0    0 -0.00000000000E+00 -0.00000000000E+00 -0.74505805969E-08  0.93827000000E+00  0.93827000000E+00 0. -1.
     999902    2    1    2    0    0  0.73592711283E-02  0.89577579957E-02 -0.18977154971E-01  0.10216919086E+01  0.10214498633E+01 0.  0.
     999903    2    3    3    0    0  0.13463356349E-01  0.11467774057E+00 -0.65243064160E-01  0.13413655315E+00  0.20092568841E-01 0.  0.
         14    1    1    2    0    0 -0.73592711283E-02 -0.89577579957E-02  0.18977154971E-01  0.22238091435E-01  0.00000000000E+00 0. -1.
     999901    1    3    3    0    0 -0.61040852211E-02 -0.10571998258E+00  0.46265909189E-01  0.88755535541E+00  0.88000000000E+00 0.  1.
        -11    1    4    4    0    0  0.21837927440E-02  0.82397359778E-01 -0.52024809751E-01  0.97472743882E-01  0.51100000000E-03 0.  1.
         11    1    4    4    0    0  0.11279563605E-01  0.32280380796E-01 -0.13218254409E-01  0.36663809268E-01  0.51100000000E-03 0. -1.
</event>
<event>
 8    1  0.1094829E+005  0.1043930E+01  0.7957747E-01            NaN
         13   -1    0    0    0    0  0.00000000000E+00  0.00000000000E+00  0.74505805969E-08  0.10566000000E+00  0.10566000000E+00 0. -1.
     999900   -1    0    0    0    0 -0.00000000000E+00 -0.00000000000E+00 -0.74505805969E-08  0.93827000000E+00  0.93827000000E+00 0.  1.
     999902    2    1    2    0    0  0.22285439159E-01  0.24238010549E-02  0.62620057039E-02  0.10206549420E+01  0.10203895248E+01 0.  0.
     999903    2    3    3    0    0  0.47334732224E-01  0.71604726458E-01  0.98634575654E-01  0.13276634582E+00  0.23028446369E-01 0.  0.
         14    1    1    2    0    0 -0.22285439159E-01 -0.24238010549E-02 -0.62620057039E-02  0.23275058013E-01  0.00000000000E+00 0.  1.
     999901    1    3    3    0    0 -0.25049293064E-01 -0.69180925404E-01 -0.92372569950E-01  0.88788859617E+00  0.88000000000E+00 0.  1.
        -11    1    4    4    0    0  0.21707696602E-01  0.49716042469E-01  0.69839740917E-01  0.88435058110E-01  0.51100000000E-03 0.  1.
         11    1    4    4    0    0  0.25627035621E-01  0.21888683989E-01  0.28794834737E-01  0.44331287710E-01  0.51100000000E-03 0. -1.
</event>
<event>
 8    1  0.1094829E+005  0.1043930E+01  0.7957747E-01            NaN
         13   -1    0    0    0    0  0.00000000000E+00  0.00000000000E+00  0.74505805969E-08  0.10566000000E+00  0.10566000000E+00 0.  1.
     999900   -1    0    0    0    0 -0.00000000000E+00 -0.00000000000E+00 -0.74505805969E-08  0.93827000000E+00  0.93827000000E+00 0.  1.
     999902    2    1    2    0    0  0.13065604056E-01  0.13916697144E-01 -0.13040938953E-01  0.10208118133E+01  0.10205500025E+01 0.  0.
     999903    2    3    3    0    0 -0.12324461825E+00  0.35249275716E-01  0.35181531476E-02  0.12990791321E+00  0.20783193881E-01 0.  0.
         14    1    1    2    0    0 -0.13065604056E-01 -0.13916697144E-01  0.13040938953E-01  0.23118186726E-01  0.00000000000E+00 0. -1.
     999901    1    3    3    0    0  0.13631022230E+00 -0.21332578572E-01 -0.16559092101E-01  0.89090390006E+00  0.88000000000E+00 0.  1.
        -11    1    4    4    0    0 -0.22079430784E-01  0.69619473484E-02  0.86908899791E-02  0.24733836424E-01  0.51100000000E-03 0. -1.
         11    1    4    4    0    0 -0.10116518747E+00  0.28287328367E-01 -0.51727368315E-02  0.10517407679E+00  0.51100000000E-03 0.  1.
</event>
<event>
 8    1  0.1094829E+005  0.1043930E+01  0.7957747E-01            NaN
         13   -1    0    0    0    0  0.00000000000E+00  0.00000000000E+00  0.74505805969E-08  0.10566000000E+00  0.10566000000E+00 0. -1.
     999900   -1    0    0    0    0 -0.00000000000E+00 -0.00000000000E+00 -0.74505805969E-08  0.93827000000E+00  0.93827000000E+00 0.  1.
     999902    2    1    2    0    0  0.14895708435E-01 -0.14228710149E-01  0.11658092173E-01  0.10202604112E+01  0.10199858122E+01 0.  0.
     999903    2    3    3    0    0  0.10089289939E+00 -0.84734572080E-01 -0.84982839914E-02  0.13303277808E+00  0.16314850879E-01 0.  0.
         14    1    1    2    0    0 -0.14895708435E-01  0.14228710149E-01 -0.11658092173E-01  0.23669588831E-01  0.00000000000E+00 0.  1.
     999901    1    3    3    0    0 -0.85997190957E-01  0.70505861931E-01  0.20156376164E-01  0.88722763309E+00  0.88000000000E+00 0. -1.
        -11    1    4    4    0    0  0.32061333941E-01 -0.22156413262E-01 -0.90128002588E-02  0.40004093193E-01  0.51100000000E-03 0. -1.
         11    1    4    4    0    0  0.68831565452E-01 -0.62578158819E-01  0.51451626739E-03  0.93028684886E-01  0.51100000000E-03 0.  1.
</event>
<event>
 8    1  0.1094829E+005  0.1043930E+01  0.7957747E-01            NaN
         13   -1    0    0    0    0  0.00000000000E+00  0.00000000000E+00  0.74505805969E-08  0.10566000000E+00  0.10566000000E+00 0.  1.
     999900   -1    0    0    0    0 -0.00000000000E+00 -0.00000000000E+00 -0.74505805969E-08  0.93827000000E+00  0.93827000000E+00 0.  1.
     999902    2    1    2    0    0 -0.62149000743E-02  0.23739043123E-01 -0.31131471188E-02  0.10191942195E+01  0.10188940074E+01 0.  0.
     999903    2    3    3    0    0 -0.16288803661E-01  0.12614789486E+00  0.31102674203E-01  0.13253770266E+00  0.20499994710E-01 0.  0.
         14    1    1    2    0    0  0.62149000743E-02 -0.23739043123E-01  0.31131471188E-02  0.24735780487E-01  0.00000000000E+00 0.  1.
     999901    1    3    3    0    0  0.10073903586E-01 -0.10240885173E+00 -0.34215821321E-01  0.88665651685E+00  0.88000000000E+00 0.  1.
        -11    1    4    4    0    0 -0.17361434934E-01  0.57639890858E-01  0.17381493795E-01  0.62659028788E-01  0.51100000000E-03 0.  1.
         11    1    4    4    0    0  0.10726312735E-02  0.68508003997E-01  0.13721180407E-01  0.69878673873E-01  0.51100000000E-03 0. -1.
</event>
<event>
 8    1  0.1094829E+005  0.1043930E+01  0.7957747E-01            NaN
         13   -1    0    0    0    0  0.00000000000E+00  0.00000000000E+00  0.74505805969E-08  0.10566000000E+00  0.10566000000E+00 0.  1.
     999900   -1    0    0    0    0 -0.00000000000E+00 -0.00000000000E+00 -0.74505805969E-08  0.93827000000E+00  0.93827000000E+00 0.  1.
     999902    2    1    2    0    0  0.59904093548E-04 -0.18827970117E-01 -0.15762463237E-01  0.10193749334E+01  0.10190791449E+01 0.  0.
     999903    2    3    3    0    0  0.11080170809E+00  0.61633027083E-01  0.48267406994E-02  0.12855416888E+00  0.20669503354E-01 0.  0.
         14    1    1    2    0    0 -0.59904093548E-04  0.18827970117E-01  0.15762463237E-01  0.24555066575E-01  0.00000000000E+00 0.  1.
     999901    1    3    3    0    0 -0.11074180399E+00 -0.80460997200E-01 -0.20589203937E-01  0.89082076454E+00  0.88000000000E+00 0. -1.
        -11    1    4    4    0    0  0.83244930127E-01  0.37767530372E-01  0.90131081652E-02  0.91856420472E-01  0.51100000000E-03 0. -1.
         11    1    4    4    0    0  0.27556777960E-01  0.23865496711E-01 -0.41863674659E-02  0.36697748409E-01  0.51100000000E-03 0.  1.
</event>
<event>
 8    1  0.1094829E+005  0.1043930E+01  0.7957747E-01            NaN
         13   -1    0    0    0    0  0.00000000000E+00  0.00000000000E+00  0.74505805969E-08  0.10566000000E+00  0.10566000000E+00 0.  1.
     999900   -1    0    0    0    0 -0.00000000000E+00 -0.00000000000E+00 -0.74505805969E-08  0.93827000000E+00  0.93827000000E+00 0. -1.
     999902    2    1    2    0    0 -0.75302040924E-03  0.97966640742E-02  0.20882816662E-01  0.10208511417E+01  0.10205902311E+01 0.  0.
     999903    2    3    3    0    0 -0.94251022457E-01 -0.85974992767E-01 -0.12563840944E-01  0.13010271174E+00  0.22224106018E-01 0.  0.
         14    1    1    2    0    0  0.75302040924E-03 -0.97966640742E-02 -0.20882816662E-01  0.23078858257E-01  0.00000000000E+00 0. -1.
     999901    1    3    3    0    0  0.93498002048E-01  0.95771656841E-01  0.33446657606E-01  0.89074843000E+00  0.88000000000E+00 0.  1.
        -11    1    4    4    0    0 -0.42326156576E-01 -0.53506534639E-01 -0.79373959548E-02  0.68685632814E-01  0.51100000000E-03 0. -1.
         11    1    4    4    0    0 -0.51924865881E-01 -0.32468458128E-01 -0.46264449896E-02  0.61417078929E-01  0.51100000000E-03 0.  1.
</event>
<event>
 8    1  0.1094829E+005  0.1043930E+01  0.7957747E-01            NaN
         13   -1    0    0    0    0  0.00000000000E+00  0.00000000000E+00  0.74505805969E-08  0.10566000000E+00  0.10566000000E+00 0.  1.
     999900   -1    0    0    0    0 -0.00000000000E+00 -0.00000000000E+00 -0.74505805969E-08  0.93827000000E+00  0.93827000000E+00 0.  1.
     999902    2    1    2    0    0 -0.22682612150E-01 -0.61813670983E-02 -0.49129590652E-02  0.10199123532E+01  0.10196295213E+01 0.  0.
     999903    2    3    3    0    0  0.10724277009E+00 -0.67473935637E-01 -0.29031647604E-02  0.12826139949E+00  0.19718379896E-01 0.  0.
         14    1    1    2    0    0  0.22682612150E-01  0.61813670983E-02  0.49129590652E-02  0.24017646844E-01  0.00000000000E+00 0. -1.
     999901    1    3    3    0    0 -0.12992538224E+00  0.61292568539E-01 -0.20097943048E-02  0.89165095367E+00  0.88000000000E+00 0. -1.
        -11    1    4    4    0    0  0.80282368027E-01 -0.51125182966E-01  0.63662718989E-02  0.95393047379E-01  0.51100000000E-03 0.  1.
         11    1    4    4    0    0  0.26960402062E-01 -0.16348752671E-01 -0.92694366593E-02  0.32868352107E-01  0.51100000000E-03 0. -1.
</event>
<event>
 8    1  0.1268396E+005  0.1043930E+01  0.7957747E-01            NaN
         13   -1    0    0    0    0  0.00000000000E+00  0.00000000000E+00  0.74505805969E-08  0.10566000000E+00  0.10566000000E+00 0.  1.
     999900   -1    0    0    0    0 -0.00000000000E+00 -0.00000000000E+00 -0.74505805969E-08  0.93827000000E+00  0.93827000000E+00 0. -1.
     999902    2    1    2    0    0 -0.11047970196E-01 -0.44051339129E-02  0.19844221973E-01  0.10207943998E+01  0.10205321899E+01 0.  0.
     999903    2    3    3    0    0  0.62835138763E-01 -0.21299962026E-04 -0.11000265023E+00  0.12819250534E+00  0.19608167969E-01 0.  0.
         14    1    1    2    0    0  0.11047970196E-01  0.44051339129E-02 -0.19844221973E-01  0.23135600186E-01  0.00000000000E+00 0. -1.
     999901    1    3    3    0    0 -0.73883108959E-01 -0.43838339509E-02  0.12984687221E+00  0.89260189447E+00  0.88000000000E+00 0.  1.
        -11    1    4    4    0    0  0.29257388494E-01  0.97593532554E-02 -0.51686766698E-01  0.60191550322E-01  0.51100000000E-03 0. -1.
         11    1    4    4    0    0  0.33577750268E-01 -0.97806532174E-02 -0.58315883535E-01  0.68000955022E-01  0.51100000000E-03 0.  1.
</event>
<event>
 8    1  0.1094829E+005  0.1043930E+01  0.7957747E-01            NaN
         13   -1    0    0    0    0  0.00000000000E+00  0.00000000000E+00  0.74505805969E-08  0.10566000000E+00  0.10566000000E+00 0.  1.
     999900   -1    0    0    0    0 -0.00000000000E+00 -0.00000000000E+00 -0.74505805969E-08  0.93827000000E+00  0.93827000000E+00 0.  1.
     999902    2    1    2    0    0  0.15607863868E-01 -0.93342533690E-02 -0.15970852830E-01  0.10197266564E+01  0.10194393812E+01 0.  0.
     999903    2    3    3    0    0  0.10866020788E-01  0.12713796701E+00 -0.48664052077E-02  0.12912547701E+00  0.19172215584E-01 0.  0.
         14    1    1    2    0    0 -0.15607863868E-01  0.93342533690E-02  0.15970852830E-01  0.24203343583E-01  0.00000000000E+00 0.  1.
     999901    1    3    3    0    0  0.47418430797E-02 -0.13647222038E+00 -0.11104447622E-01  0.89060117941E+00  0.88000000000E+00 0.  1.
        -11    1    4    4    0    0  0.24148036937E-02  0.17498908948E-01  0.59077151404E-02  0.18633446016E-01  0.51100000000E-03 0. -1.
         11    1    4    4    0    0  0.84512170943E-02  0.10963905806E+00 -0.10774120348E-01  0.11049203099E+00  0.51100000000E-03 0.  1.
</event>
<event>
 8    1  0.1094829E+005  0.1043930E+01  0.7957747E-01            NaN
         13   -1    0    0    0    0  0.00000000000E+00  0.00000000000E+00  0.74505805969E-08  0.10566000000E+00  0.10566000000E+00 0.  1.
     999900   -1    0    0    0    0 -0.00000000000E+00 -0.00000000000E+00 -0.74505805969E-08  0.93827000000E+00  0.93827000000E+00 0.  1.
     999902    2    1    2    0    0 -0.18834411177E-01 -0.11182102480E-01 -0.98540430314E-02  0.10199117439E+01  0.10196288976E+01 0.  0.
     999903    2    3    3    0    0  0.11433649087E+00 -0.54767173494E-01  0.55580894909E-02  0.12869253331E+00  0.21414932488E-01 0.  0.
         14    1    1    2    0    0  0.18834411177E-01  0.11182102480E-01  0.98540430314E-02  0.24018256063E-01  0.00000000000E+00 0.  1.
     999901    1    3    3    0    0 -0.13317090205E+00  0.43585071014E-01 -0.15412132522E-01  0.89121921063E+00  0.88000000000E+00 0.  1.
        -11    1    4    4    0    0  0.20681725634E-01 -0.12475889883E-01  0.92378773191E-02  0.25864668989E-01  0.51100000000E-03 0. -1.
         11    1    4    4    0    0  0.93654765234E-01 -0.42291283612E-01 -0.36797878282E-02  0.10282786432E+00  0.51100000000E-03 0.  1.
</event>
<event>
 8    1  0.1094829E+005  0.1043930E+01  0.7957747E-01            NaN
         13   -1    0    0    0    0  0.00000000000E+00  0.00000000000E+00  0.74505805969E-08  0.10566000000E+00  0.10566000000E+00 0. -1.
     999900   -1    0    0    0    0 -0.00000000000E+00 -0.00000000000E+00 -0.74505805969E-08  0.93827000000E+00  0.93827000000E+00 0.  1.
     999902    2    1    2    0    0  0.16884590212E-01 -0.15908191566E-01  0.49796777157E-02  0.10202032822E+01  0.10199273405E+01 0.  0.
     999903    2    3    3    0    0 -0.93246130683E-01 -0.26115423206E-03  0.87004606790E-01  0.12941616151E+00  0.21996185334E-01 0.  0.
         14    1    1    2    0    0 -0.16884590212E-01  0.15908191566E-01 -0.49796777157E-02  0.23726717761E-01  0.00000000000E+00 0.  1.
     999901    1    3    3    0    0  0.11013072090E+00 -0.15647037334E-01 -0.82024929074E-01  0.89078712073E+00  0.88000000000E+00 0.  1.
        -11    1    4    4    0    0 -0.78663444834E-01 -0.82919127814E-02  0.73415263805E-01  0.10792013460E+00  0.51100000000E-03 0. -1.
         11    1    4    4    0    0 -0.14582685850E-01  0.80307585494E-02  0.13589342985E-01  0.21496026917E-01  0.51100000000E-03 0.  1.
</event>
<event>
 8    1  0.1094829E+005  0.1043930E+01  0.7957747E-01            NaN
         13   -1    0    0    0    0  0.00000000000E+00  0.00000000000E+00  0.74505805969E-08  0.10566000000E+00  0.10566000000E+00 0.  1.
     999900   -1    0    0    0    0 -0.00000000000E+00 -0.00000000000E+00 -0.74505805969E-08  0.93827000000E+00  0.93827000000E+00 0.  1.
     999902    2    1    2    0    0  0.81084253361E-05 -0.23943003144E-01 -0.15109235327E-02  0.10199393694E+01  0.10196571811E+01 0.  0.
     999903    2    3    3    0    0  0.12006351585E-01  0.49687399464E-01  0.11665223932E+00  0.12891303588E+00  0.19945820009E-01 0.  0.
         14    1    1    2    0    0 -0.81084253361E-05  0.23943003144E-01  0.15109235327E-02  0.23990630572E-01  0.00000000000E+00 0.  1.
     999901    1    3    3    0    0 -0.11998243159E-01 -0.73630402608E-01 -0.11816316286E+00  0.89102633355E+00  0.88000000000E+00 0. -1.
        -11    1    4    4    0    0  0.15533797804E-01  0.28607961005E-01  0.58405777929E-01  0.66867109430E-01  0.51100000000E-03 0.  1.
         11    1    4    4    0    0 -0.35274462192E-02  0.21079438459E-01  0.58246461394E-01  0.62045926446E-01  0.51100000000E-03 0. -1.
</event>
<event>
 8    1  0.1094829E+005  0.1043930E+01  0.7957747E-01            NaN
         13   -1    0    0    0    0  0.00000000000E+00  0.00000000000E+00  0.74505805969E-08  0.10566000000E+00  0.10566000000E+00 0.  1.
     999900   -1    0    0    0    0 -0.00000000000E+00 -0.00000000000E+00 -0.74505805969E-08  0.93827000000E+00  0.93827000000E+00 0.  1.
     999902    2    1    2    0    0  0.17635505680E-01 -0.54700998580E-02  0.14701533193E-01  0.10203277092E+01  0.10200546878E+01 0.  0.
     999903    2    3    3    0    0 -0.11423347302E+00  0.42595840860E-01 -0.33235142369E-01  0.12791654439E+00  0.19858892799E-01 0.  0.
         14    1    1    2    0    0 -0.17635505680E-01  0.54700998580E-02 -0.14701533193E-01  0.23602290805E-01  0.00000000000E+00 0. -1.
     999901    1    3    3    0    0  0.13186897870E+00 -0.48065940718E-01  0.47936675562E-01  0.89241116480E+00  0.88000000000E+00 0. -1.
        -11    1    4    4    0    0 -0.51847769137E-01  0.15406449574E-01 -0.52953472711E-02  0.54349348448E-01  0.51100000000E-03 0.  1.
         11    1    4    4    0    0 -0.62385703886E-01  0.27189391287E-01 -0.27939795098E-01  0.73567195943E-01  0.51100000000E-03 0. -1.
</event>
<event>
 8    1  0.1094829E+005  0.1043930E+01  0.7957747E-01            NaN
         13   -1    0    0    0    0  0.00000000000E+00  0.00000000000E+00  0.74505805969E-08  0.10566000000E+00  0.10566000000E+00 0.  1.
     999900   -1    0    0    0    0 -0.00000000000E+00 -0.00000000000E+00 -0.74505805969E-08  0.93827000000E+00  0.93827000000E+00 0.  1.
     999902    2    1    2    0    0  0.13195830923E-01  0.19382306472E-01  0.33525009655E-02  0.10202436533E+01  0.10199686608E+01 0.  0.
     999903    2    3    3    0    0 -0.93500403986E-01 -0.43314591198E-01  0.74511381375E-01  0.12874010658E+00  0.20089542871E-01 0.  0.
         14    1    1    2    0    0 -0.13195830923E-01 -0.19382306472E-01 -0.33525009655E-02  0.23686346713E-01  0.00000000000E+00 0. -1.
     999901    1    3    3    0    0  0.10669623491E+00  0.62696897670E-01 -0.71158880409E-01  0.89150354670E+00  0.88000000000E+00 0.  1.
        -11    1    4    4    0    0 -0.20824250171E-01 -0.19246621610E-02  0.10426179523E-01  0.23373490541E-01  0.51100000000E-03 0.  1.
         11    1    4    4    0    0 -0.72676153815E-01 -0.41389929037E-01  0.64085201852E-01  0.10536661604E+00  0.51100000000E-03 0. -1.
</event>
<event>
 8    1  0.1094829E+005  0.1043930E+01  0.7957747E-01            NaN
         13   -1    0    0    0    0  0.00000000000E+00  0.00000000000E+00  0.74505805969E-08  0.10566000000E+00  0.10566000000E+00 0. -1.
     999900   -1    0    0    0    0 -0.00000000000E+00 -0.00000000000E+00 -0.74505805969E-08  0.93827000000E+00  0.93827000000E+00 0.  1.
     999902    2    1    2    0    0  0.22563834122E-02 -0.13037488249E-01 -0.23433767286E-01  0.10170188719E+01  0.10166627646E+01 0.  0.
     999903    2    3    3    0    0  0.97053558382E-01 -0.35526934070E-01 -0.76322017506E-01  0.13006371714E+00  0.20247565819E-01 0.  0.
         14    1    1    2    0    0 -0.22563834122E-02  0.13037488249E-01  0.23433767286E-01  0.26911128092E-01  0.00000000000E+00 0. -1.
     999901    1    3    3    0    0 -0.94797174970E-01  0.22489445821E-01  0.52888250219E-01  0.88695515477E+00  0.88000000000E+00 0. -1.
        -11    1    4    4    0    0  0.58099663253E-01 -0.30679929831E-01 -0.52869358115E-01  0.84334210811E-01  0.51100000000E-03 0.  1.
         11    1    4    4    0    0  0.38953895129E-01 -0.48470042392E-02 -0.23452659390E-01  0.45729506331E-01  0.51100000000E-03 0. -1.
</event>
<event>
 8    1  0.1094829E+005  0.1043930E+01  0.7957747E-01            NaN
         13   -1    0    0    0    0  0.00000000000E+00  0.00000000000E+00  0.74505805969E-08  0.10566000000E+00  0.10566000000E+00 0.  1.
     999900   -1    0    0    0    0 -0.00000000000E+00 -0.00000000000E+00 -0.74505805969E-08  0.93827000000E+00  0.93827000000E+00 0.  1.
     999902    2    1    2    0    0  0.15029191907E-01  0.23541732921E-02 -0.18473186886E-01  0.10199993215E+01  0.10197185584E+01 0.  0.
     999903    2    3    3    0    0  0.31498495802E-01  0.21135846778E-01  0.12124444940E+00  0.12862678032E+00  0.20143307735E-01 0.  0.
         14    1    1    2    0    0 -0.15029191907E-01 -0.23541732921E-02  0.18473186886E-01  0.23930678532E-01  0.00000000000E+00 0.  1.
     999901    1    3    3    0    0 -0.16469303895E-01 -0.18781673486E-01 -0.13971763629E+00  0.89137254115E+00  0.88000000000E+00 0.  1.
        -11    1    4    4    0    0  0.70305585421E-02 -0.56197303067E-04  0.48424968136E-01  0.48935371374E-01  0.51100000000E-03 0.  1.
         11    1    4    4    0    0  0.24467937260E-01  0.21192044081E-01  0.72819481268E-01  0.79691408942E-01  0.51100000000E-03 0. -1.
</event>
<event>
 8    1  0.1094829E+005  0.1043930E+01  0.7957747E-01            NaN
         13   -1    0    0    0    0  0.00000000000E+00  0.00000000000E+00  0.74505805969E-08  0.10566000000E+00  0.10566000000E+00 0.  1.
     999900   -1    0    0    0    0 -0.00000000000E+00 -0.00000000000E+00 -0.74505805969E-08  0.93827000000E+00  0.93827000000E+00 0. -1.
     999902    2    1    2    0    0 -0.11670227204E-01  0.15596935770E-01 -0.11924429201E-01  0.10210903279E+01  0.10208348579E+01 0.  0.
     999903    2    3    3    0    0 -0.11099265907E+00 -0.69057080714E-02  0.67800446637E-01  0.13163691697E+00  0.19087120568E-01 0.  0.
         14    1    1    2    0    0  0.11670227204E-01 -0.15596935770E-01  0.11924429201E-01  0.22839672068E-01  0.00000000000E+00 0.  1.
     999901    1    3    3    0    0  0.99322431870E-01  0.22502643841E-01 -0.79724875838E-01  0.88945341097E+00  0.88000000000E+00 0. -1.
        -11    1    4    4    0    0 -0.98556843290E-01 -0.43551946903E-02  0.52515484899E-01  0.11176115763E+00  0.51100000000E-03 0. -1.
         11    1    4    4    0    0 -0.12435815784E-01 -0.25505133812E-02  0.15284961739E-01  0.19875759333E-01  0.51100000000E-03 0.  1.
</event>
<event>
 8    1  0.1094829E+005  0.1043930E+01  0.7957747E-01            NaN
         13   -1    0    0    0    0  0.00000000000E+00  0.00000000000E+00  0.74505805969E-08  0.10566000000E+00  0.10566000000E+00 0.  1.
     999900   -1    0    0    0    0 -0.00000000000E+00 -0.00000000000E+00 -0.74505805969E-08  0.93827000000E+00  0.93827000000E+00 0. -1.
     999902    2    1    2    0    0 -0.19553952098E-01  0.13117546794E-01  0.30239917864E-02  0.10201903369E+01  0.10199140905E+01 0.  0.
     999903    2    3    3    0    0  0.85790276991E-01 -0.11763911612E-01  0.93397419336E-01  0.12896429939E+00  0.20257130494E-01 0.  0.
         14    1    1    2    0    0  0.19553952098E-01 -0.13117546794E-01 -0.30239917864E-02  0.23739663074E-01  0.00000000000E+00 0. -1.
     999901    1    3    3    0    0 -0.10534422909E+00  0.24881458406E-01 -0.90373427550E-01  0.89122603754E+00  0.88000000000E+00 0.  1.
        -11    1    4    4    0    0  0.68734053742E-01 -0.14227304034E-01  0.64570223564E-01  0.95374845824E-01  0.51100000000E-03 0. -1.
         11    1    4    4    0    0  0.17056223249E-01  0.24633924217E-02  0.28827195772E-01  0.33589453566E-01  0.51100000000E-03 0.  1.
</event>
<event>
 8    1  0.1094829E+005  0.1043930E+01  0.7957747E-01            NaN
         13   -1    0    0    0    0  0.00000000000E+00  0.00000000000E+00  0.74505805969E-08  0.10566000000E+00  0.10566000000E+00 0. -1.
     999900   -1    0    0    0    0 -0.00000000000E+00 -0.00000000000E+00 -0.74505805969E-08  0.93827000000E+00  0.93827000000E+00 0.  1.
     999902    2    1    2    0    0  0.19178076903E-01 -0.12032531154E-01 -0.33811585225E-02  0.10210386769E+01  0.10207820370E+01 0.  0.
     999903    2    3    3    0    0 -0.33803515601E-01 -0.11047057863E+00 -0.60894864676E-01  0.13210396349E+00  0.19920999347E-01 0.  0.
         14    1    1    2    0    0 -0.19178076903E-01  0.12032531154E-01  0.33811585225E-02  0.22891323086E-01  0.00000000000E+00 0. -1.
     999901    1    3    3    0    0  0.52981592504E-01  0.98438047480E-01  0.57513706153E-01  0.88893471342E+00  0.88000000000E+00 0. -1.
        -11    1    4    4    0    0 -0.33126880007E-01 -0.10677175034E+00 -0.53817174557E-01  0.12407314878E+00  0.51100000000E-03 0.  1.
         11    1    4    4    0    0 -0.67663559365E-03 -0.36988282913E-02 -0.70776901185E-02  0.80308147076E-02  0.51100000000E-03 0. -1.
</event>
<event>
 8    1  0.1094829E+005  0.1043930E+01  0.7957747E-01            NaN
         13   -1    0    0    0    0  0.00000000000E+00  0.00000000000E+00  0.74505805969E-08  0.10566000000E+00  0.10566000000E+00 0. -1.
     999900   -1    0    0    0    0 -0.00000000000E+00 -0.00000000000E+00 -0.74505805969E-08  0.93827000000E+00  0.93827000000E+00 0. -1.
     999902    2    1    2    0    0 -0.15632609194E-01  0.13864835410E-02 -0.15911454693E-01  0.10215810583E+01  0.10213365671E+01 0.  0.
     999903    2    3    3    0    0 -0.16991945968E-01  0.45574998151E-01  0.11904019269E+00  0.13019650614E+00  0.20365560390E-01 0.  0.
         14    1    1    2    0    0  0.15632609194E-01 -0.13864835410E-02  0.15911454693E-01  0.22348941749E-01  0.00000000000E+00 0. -1.
     999901    1    3    3    0    0  0.13593367736E-02 -0.44188514610E-01 -0.13495164738E+00  0.89138455212E+00  0.88000000000E+00 0. -1.
        -11    1    4    4    0    0  0.27065410677E-02  0.76754473341E-02  0.34829012695E-01  0.35770925381E-01  0.51100000000E-03 0.  1.
         11    1    4    4    0    0 -0.19698487035E-01  0.37899550817E-01  0.84211179995E-01  0.94425580754E-01  0.51100000000E-03 0. -1.
</event>
<event>
 8    1  0.1094829E+005  0.1043930E+01  0.7957747E-01            NaN
         13   -1    0    0    0    0  0.00000000000E+00  0.00000000000E+00  0.74505805969E-08  0.10566000000E+00  0.10566000000E+00 0. -1.
     999900   -1    0    0    0    0 -0.00000000000E+00 -0.00000000000E+00 -0.74505805969E-08  0.93827000000E+00  0.93827000000E+00 0.  1.
     999902    2    1    2    0    0  0.22318248791E-01  0.62838016219E-02  0.69804441823E-02  0.10197160166E+01  0.10194284857E+01 0.  0.
     999903    2    3    3    0    0  0.17052753742E-01  0.56655939301E-01  0.11581783476E+00  0.13156588554E+00  0.19877613527E-01 0.  0.
         14    1    1    2    0    0 -0.22318248791E-01 -0.62838016219E-02 -0.69804441823E-02  0.24213983417E-01  0.00000000000E+00 0. -1.
     999901    1    3    3    0    0  0.52654950495E-02 -0.50372137679E-01 -0.10883739058E+00  0.88815013105E+00  0.88000000000E+00 0.  1.
        -11    1    4    4    0    0 -0.77485236407E-03  0.22094914072E-01  0.29300930731E-01  0.36709553072E-01  0.51100000000E-03 0. -1.
         11    1    4    4    0    0  0.17827606106E-01  0.34561025229E-01  0.86516904031E-01  0.94856332463E-01  0.51100000000E-03 0.  1.
</event>
<event>
 8    1  0.1094829E+005  0.1043930E+01  0.7957747E-01            NaN
         13   -1    0    0    0    0  0.00000000000E+00  0.00000000000E+00  0.74505805969E-08  0.10566000000E+00  0.10566000000E+00 0.  1.
     999900   -1    0    0    0    0 -0.00000000000E+00 -0.00000000000E+00 -0.74505805969E-08  0.93827000000E+00  0.93827000000E+00 0. -1.
     999902    2    1    2    0    0  0.86890277839E-02 -0.21689756757E-01  0.75161001335E-02  0.10193854178E+01  0.10190898849E+01 0.  0.
     999903    2    3    3    0    0  0.33490538844E-01  0.25584349427E-01  0.12179458351E+00  0.13039187016E+00  0.19797578210E-01 0.  0.
         14    1    1    2    0    0 -0.86890277839E-02  0.21689756757E-01 -0.75161001335E-02  0.24544582156E-01  0.00000000000E+00 0.  1.
     999901    1    3    3    0    0 -0.24801511060E-01 -0.47274106184E-01 -0.11427848338E+00  0.88899354769E+00  0.88000000000E+00 0. -1.
        -11    1    4    4    0    0  0.10081369289E-01  0.18983478828E-01  0.45739421182E-01  0.50540698909E-01  0.51100000000E-03 0.  1.
         11    1    4    4    0    0  0.23409169556E-01  0.66008705993E-02  0.76055162328E-01  0.79851171248E-01  0.51100000000E-03 0. -1.
</event>
<event>
 8    1  0.1094829E+005  0.1043930E+01  0.7957747E-01            NaN
         13   -1    0    0    0    0  0.00000000000E+00  0.00000000000E+00  0.74505805969E-08  0.10566000000E+00  0.10566000000E+00 0.  1.
     999900   -1    0    0    0    0 -0.00000000000E+00 -0.00000000000E+00 -0.74505805969E-08  0.93827000000E+00  0.93827000000E+00 0. -1.
     999902    2    1    2    0    0 -0.27577534566E-02  0.64202347393E-02  0.22602557091E-01  0.10202720160E+01  0.10199976895E+01 0.  0.
     999903    2    3    3    0    0 -0.81466849947E-01 -0.96057272655E-01 -0.23949601715E-01  0.12961839937E+00  0.19065643504E-01 0.  0.
         14    1    1    2    0    0  0.27577534566E-02 -0.64202347393E-02 -0.22602557091E-01  0.23657983965E-01  0.00000000000E+00 0. -1.
     999901    1    3    3    0    0  0.78709096491E-01  0.10247750739E+00  0.46552158806E-01  0.89065361667E+00  0.88000000000E+00 0.  1.
        -11    1    4    4    0    0 -0.30871139751E-01 -0.50961135255E-01 -0.99479269528E-02  0.60409328317E-01  0.51100000000E-03 0.  1.
         11    1    4    4    0    0 -0.50595710197E-01 -0.45096137400E-01 -0.14001674762E-01  0.69209071052E-01  0.51100000000E-03 0. -1.
</event>
<event>
 8    1  0.1094829E+005  0.1043930E+01  0.7957747E-01            NaN
         13   -1    0    0    0    0  0.00000000000E+00  0.00000000000E+00  0.74505805969E-08  0.10566000000E+00  0.10566000000E+00 0. -1.
     999900   -1    0    0    0    0 -0.00000000000E+00 -0.00000000000E+00 -0.74505805969E-08  0.93827000000E+00  0.93827000000E+00 0. -1.
     999902    2    1    2    0    0 -0.62705731289E-02 -0.15779479108E-02 -0.22506165759E-01  0.10205133926E+01  0.10202446995E+01 0.  0.
     999903    2    3    3    0    0 -0.36669321938E-01  0.88259445685E-02 -0.12695424275E+00  0.13375427888E+00  0.18716059837E-01 0.  0.
         14    1    1    2    0    0  0.62705731289E-02  0.15779479108E-02  0.22506165759E-01  0.23416607443E-01  0.00000000000E+00 0. -1.
     999901    1    3    3    0    0  0.30398748809E-01 -0.10403892479E-01  0.10444807699E+00  0.88675911368E+00  0.88000000000E+00 0.  1.
        -11    1    4    4    0    0 -0.20007302390E-01 -0.38454417852E-02 -0.49789944888E-01  0.53799435912E-01  0.51100000000E-03 0.  1.
         11    1    4    4    0    0 -0.16662019548E-01  0.12671386354E-01 -0.77164297865E-01  0.79954842965E-01  0.51100000000E-03 0. -1.
</event>
<event>
 8    1  0.1230555E+005  0.1043930E+01  0.7957747E-01            NaN
         13   -1    0    0    0    0  0.00000000000E+00  0.00000000000E+00  0.74505805969E-08  0.10566000000E+00  0.10566000000E+00 0. -1.
     999900   -1    0    0    0    0 -0.00000000000E+00 -0.00000000000E+00 -0.74505805969E-08  0.93827000000E+00  0.93827000000E+00 0.  1.
     999902    2    1    2    0    0  0.78724630619E-02 -0.22621459431E-01 -0.92864723255E-03  0.10199598417E+01  0.10196781405E+01 0.  0.
     999903    2    3    3    0    0 -0.56358966525E-01 -0.32943862941E-01 -0.11147553486E+00  0.13066076779E+00  0.19591073325E-01 0.  0.
         14    1    1    2    0    0 -0.78724630619E-02  0.22621459431E-01  0.92864723255E-03  0.23970158263E-01  0.00000000000E+00 0. -1.
     999901    1    3    3    0    0  0.64231429587E-01  0.10322403510E-01  0.11054688763E+00  0.88929907395E+00  0.88000000000E+00 0. -1.
        -11    1    4    4    0    0 -0.34266059149E-01 -0.14206685481E-01 -0.46251996466E-01  0.59291660628E-01  0.51100000000E-03 0. -1.
         11    1    4    4    0    0 -0.22092907375E-01 -0.18737177460E-01 -0.65223538393E-01  0.71369107161E-01  0.51100000000E-03 0.  1.
</event>
<event>
 8    1  0.1094829E+005  0.1043930E+01  0.7957747E-01            NaN
         13   -1    0    0    0    0  0.00000000000E+00  0.00000000000E+00  0.74505805969E-08  0.10566000000E+00  0.10566000000E+00 0.  1.
     999900   -1    0    0    0    0 -0.00000000000E+00 -0.00000000000E+00 -0.74505805969E-08  0.93827000000E+00  0.93827000000E+00 0. -1.
     999902    2    1    2    0    0  0.16974202027E-01 -0.15562819773E-01 -0.59217681232E-02  0.10201520221E+01  0.10198748727E+01 0.  0.
     999903    2    3    3    0    0 -0.56282598111E-01 -0.11646705327E+00  0.10381449536E-01  0.13121219402E+00  0.19405154378E-01 0.  0.
         14    1    1    2    0    0 -0.16974202027E-01  0.15562819773E-01  0.59217681232E-02  0.23777977867E-01  0.00000000000E+00 0.  1.
     999901    1    3    3    0    0  0.73256800138E-01  0.10090423350E+00 -0.16303217659E-01  0.88893982812E+00  0.88000000000E+00 0.  1.
        -11    1    4    4    0    0 -0.22091184862E-01 -0.51376455069E-01 -0.48087604653E-02  0.56133286758E-01  0.51100000000E-03 0. -1.
         11    1    4    4    0    0 -0.34191413249E-01 -0.65090598203E-01  0.15190210001E-01  0.75078907259E-01  0.51100000000E-03 0.  1.
</event>
<event>
 8    1  0.1094829E+005  0.1043930E+01  0.7957747E-01            NaN
         13   -1    0    0    0    0  0.00000000000E+00  0.00000000000E+00  0.74505805969E-08  0.10566000000E+00  0.10566000000E+00 0. -1.
     999900   -1    0    0    0    0 -0.00000000000E+00 -0.00000000000E+00 -0.74505805969E-08  0.93827000000E+00  0.93827000000E+00 0. -1.
     999902    2    1    2    0    0  0.20283232319E-01 -0.43440966099E-02  0.16734801396E-01  0.10172779032E+01  0.10169287084E+01 0.  0.
     999903    2    3    3    0    0  0.14747903260E-02  0.78841960330E-01  0.10056565533E+00  0.12918934359E+00  0.18926324261E-01 0.  0.
         14    1    1    2    0    0 -0.20283232319E-01  0.43440966099E-02 -0.16734801396E-01  0.26652096848E-01  0.00000000000E+00 0.  1.
     999901    1    3    3    0    0  0.18808441993E-01 -0.83186056940E-01 -0.83830853930E-01  0.88808855956E+00  0.88000000000E+00 0.  1.
        -11    1    4    4    0    0 -0.13167909488E-02  0.48828519810E-01  0.47370963598E-01  0.68045775758E-01  0.51100000000E-03 0. -1.
         11    1    4    4    0    0  0.27915812747E-02  0.30013440520E-01  0.53194691727E-01  0.61143567829E-01  0.51100000000E-03 0.  1.
</event>
<event>
 8    1  0.1094829E+005  0.1043930E+01  0.7957747E-01            NaN
         13   -1    0    0    0    0  0.00000000000E+00  0.00000000000E+00  0.74505805969E-08  0.10566000000E+00  0.10566000000E+00 0. -1.
     999900   -1    0    0    0    0 -0.00000000000E+00 -0.00000000000E+00 -0.74505805969E-08  0.93827000000E+00  0.93827000000E+00 0. -1.
     999902    2    1    2    0    0 -0.19109253848E-02 -0.23019100008E-01  0.55525553900E-02  0.10201737067E+01  0.10198970685E+01 0.  0.
     999903    2    3    3    0    0 -0.55117121772E-01  0.15540722197E-01 -0.11454250738E+00  0.12958930118E+00  0.19849176924E-01 0.  0.
         14    1    1    2    0    0  0.19109253848E-02  0.23019100008E-01 -0.55525553900E-02  0.23756293321E-01  0.00000000000E+00 0.  1.
     999901    1    3    3    0    0  0.53206196387E-01 -0.38559822205E-01  0.12009506277E+00  0.89058440550E+00  0.88000000000E+00 0.  1.
        -11    1    4    4    0    0 -0.19968177790E-01  0.25154525547E-02 -0.60931433470E-01  0.64171304580E-01  0.51100000000E-03 0. -1.
         11    1    4    4    0    0 -0.35148943982E-01  0.13025269642E-01 -0.53611073906E-01  0.65417996596E-01  0.51100000000E-03 0.  1.
</event>
<event>
 8    1  0.1094829E+005  0.1043930E+01  0.7957747E-01            NaN
         13   -1    0    0    0    0  0.00000000000E+00  0.00000000000E+00  0.74505805969E-08  0.10566000000E+00  0.10566000000E+00 0.  1.
     999900   -1    0    0    0    0 -0.00000000000E+00 -0.00000000000E+00 -0.74505805969E-08  0.93827000000E+00  0.93827000000E+00 0. -1.
     999902    2    1    2    0    0  0.15234436576E-01 -0.16954759699E-01 -0.91886879801E-02  0.10193539157E+01  0.10190576144E+01 0.  0.
     999903    2    3    3    0    0  0.64625393194E-01  0.10865342844E+00 -0.16595907619E-01  0.12903276551E+00  0.19799532021E-01 0.  0.
         14    1    1    2    0    0 -0.15234436576E-01  0.16954759699E-01  0.91886879801E-02  0.24576084331E-01  0.00000000000E+00 0.  1.
     999901    1    3    3    0    0 -0.49390956618E-01 -0.12560818814E+00  0.74072196386E-02  0.89032115016E+00  0.88000000000E+00 0.  1.
        -11    1    4    4    0    0  0.19904877353E-01  0.24674023551E-01 -0.11580983901E-01  0.33754879496E-01  0.51100000000E-03 0. -1.
         11    1    4    4    0    0  0.44720515841E-01  0.83979404886E-01 -0.50149237179E-02  0.95277886012E-01  0.51100000000E-03 0.  1.
</event>
<event>
 8    1  0.1094829E+005  0.1043930E+01  0.7957747E-01            NaN
         13   -1    0    0    0    0  0.00000000000E+00  0.00000000000E+00  0.74505805969E-08  0.10566000000E+00  0.10566000000E+00 0. -1.
     999900   -1    0    0    0    0 -0.00000000000E+00 -0.00000000000E+00 -0.74505805969E-08  0.93827000000E+00  0.93827000000E+00 0.  1.
     999902    2    1    2    0    0  0.17553705285E-01 -0.14161613212E-01 -0.96692316528E-02  0.10193906867E+01  0.10190952822E+01 0.  0.
     999903    2    3    3    0    0  0.11148853040E+00 -0.20687756922E-02 -0.67004150190E-01  0.13245366468E+00  0.24908731431E-01 0.  0.
         14    1    1    2    0    0 -0.17553705285E-01  0.14161613212E-01  0.96692316528E-02  0.24539313331E-01  0.00000000000E+00 0.  1.
     999901    1    3    3    0    0 -0.93934825114E-01 -0.12092837520E-01  0.57334918537E-01  0.88693702199E+00  0.88000000000E+00 0. -1.
        -11    1    4    4    0    0  0.40119761048E-01  0.96869531327E-02 -0.17670090648E-01  0.44899059144E-01  0.51100000000E-03 0.  1.
         11    1    4    4    0    0  0.71368769351E-01 -0.11755728825E-01 -0.49334059541E-01  0.87554605537E-01  0.51100000000E-03 0. -1.
</event>
<event>
 8    1  0.1094829E+005  0.1043930E+01  0.7957747E-01            NaN
         13   -1    0    0    0    0  0.00000000000E+00  0.00000000000E+00  0.74505805969E-08  0.10566000000E+00  0.10566000000E+00 0. -1.
     999900   -1    0    0    0    0 -0.00000000000E+00 -0.00000000000E+00 -0.74505805969E-08  0.93827000000E+00  0.93827000000E+00 0.  1.
     999902    2    1    2    0    0  0.33419411647E-02 -0.19413599585E-01 -0.18298785746E-01  0.10170431635E+01  0.10166877074E+01 0.  0.
     999903    2    3    3    0    0 -0.11972070323E+00 -0.34898283341E-01  0.17840816935E-01  0.12761061359E+00  0.20377364671E-01 0.  0.
         14    1    1    2    0    0 -0.33419411647E-02  0.19413599585E-01  0.18298785746E-01  0.26886836544E-01  0.00000000000E+00 0. -1.
     999901    1    3    3    0    0  0.12306264439E+00  0.15484683757E-01 -0.36139602681E-01  0.88943254986E+00  0.88000000000E+00 0.  1.
        -11    1    4    4    0    0 -0.48182135761E-01 -0.22565610499E-01  0.16562937856E-02  0.53232785140E-01  0.51100000000E-03 0.  1.
         11    1    4    4    0    0 -0.71538567466E-01 -0.12332672842E-01  0.16184523149E-01  0.74377828451E-01  0.51100000000E-03 0. -1.
</event>
<event>
 8    1  0.1094829E+005  0.1043930E+01  0.7957747E-01            NaN
         13   -1    0    0    0    0  0.00000000000E+00  0.00000000000E+00  0.74505805969E-08  0.10566000000E+00  0.10566000000E+00 0. -1.
     999900   -1    0    0    0    0 -0.00000000000E+00 -0.00000000000E+00 -0.74505805969E-08  0.93827000000E+00  0.93827000000E+00 0.  1.
     999902    2    1    2    0    0  0.84680421556E-02 -0.21179969824E-01 -0.40306746889E-02  0.10207665547E+01  0.10205037060E+01 0.  0.
     999903    2    3    3    0    0 -0.41431035553E-01 -0.12396715806E+00  0.17293231917E-01  0.13312370253E+00  0.18397753089E-01 0.  0.
         14    1    1    2    0    0 -0.84680421556E-02  0.21179969824E-01  0.40306746889E-02  0.23163445300E-01  0.00000000000E+00 0.  1.
     999901    1    3    3    0    0  0.49899077708E-01  0.10278718824E+00 -0.21323906606E-01  0.88764285217E+00  0.88000000000E+00 0. -1.
        -11    1    4    4    0    0 -0.10389361628E-01 -0.18225240223E-01 -0.25738735568E-02  0.21141999960E-01  0.51100000000E-03 0.  1.
         11    1    4    4    0    0 -0.31041673925E-01 -0.10574191784E+00  0.19867105474E-01  0.11198170257E+00  0.51100000000E-03 0. -1.
</event>
<event>
 8    1  0.1094829E+005  0.1043930E+01  0.7957747E-01            NaN
         13   -1    0    0    0    0  0.00000000000E+00  0.00000000000E+00  0.74505805969E-08  0.10566000000E+00  0.10566000000E+00 0. -1.
     999900   -1    0    0    0    0 -0.00000000000E+00 -0.00000000000E+00 -0.74505805969E-08  0.93827000000E+00  0.93827000000E+00 0. -1.
     999902    2    1    2    0    0  0.30384167445E-02  0.19706258944E-01  0.13075386690E-01  0.10200860415E+01  0.10198073337E+01 0.  0.
     999903    2    3    3    0    0  0.63498407358E-01 -0.86221485477E-01  0.70562186917E-01  0.12981595348E+00  0.20173429547E-01 0.  0.
         14    1    1    2    0    0 -0.30384167445E-02 -0.19706258944E-01 -0.13075386690E-01  0.23843958459E-01  0.00000000000E+00 0.  1.
     999901    1    3    3    0    0 -0.60459990613E-01  0.10592774442E+00 -0.57486800227E-01  0.89027008807E+00  0.88000000000E+00 0. -1.
        -11    1    4    4    0    0  0.29833460162E-01 -0.32047485061E-01  0.39057261505E-01  0.58675441552E-01  0.51100000000E-03 0. -1.
         11    1    4    4    0    0  0.33664947196E-01 -0.54174000416E-01  0.31504925411E-01  0.71140511925E-01  0.51100000000E-03 0.  1.
</event>
<event>
 8    1  0.1094829E+005  0.1043930E+01  0.7957747E-01            NaN
         13   -1    0    0    0    0  0.00000000000E+00  0.00000000000E+00  0.74505805969E-08  0.10566000000E+00  0.10566000000E+00 0.  1.
     999900   -1    0    0    0    0 -0.00000000000E+00 -0.00000000000E+00 -0.74505805969E-08  0.93827000000E+00  0.93827000000E+00 0. -1.
     999902    2    1    2    0    0  0.34399441261E-02 -0.22179593584E-01  0.65841643062E-02  0.10205394291E+01  0.10202713402E+01 0.  0.
     999903    2    3    3    0    0 -0.12257277284E+00 -0.46191290991E-02  0.39993799722E-01  0.13076205330E+00  0.21302337280E-01 0.  0.
         14    1    1    2    0    0 -0.34399441261E-02  0.22179593584E-01 -0.65841643062E-02  0.23390570894E-01  0.00000000000E+00 0. -1.
     999901    1    3    3    0    0  0.12601271696E+00 -0.17560464485E-01 -0.33409635416E-01  0.88977737580E+00  0.88000000000E+00 0. -1.
        -11    1    4    4    0    0 -0.49387396697E-01 -0.68801399718E-02  0.66608146934E-02  0.50309828581E-01  0.51100000000E-03 0.  1.
         11    1    4    4    0    0 -0.73185376141E-01  0.22610108727E-02  0.33332985029E-01  0.80452224723E-01  0.51100000000E-03 0. -1.
</event>
<event>
 8    1  0.1138981E+005  0.1043930E+01  0.7957747E-01            NaN
         13   -1    0    0    0    0  0.00000000000E+00  0.00000000000E+00  0.74505805969E-08  0.10566000000E+00  0.10566000000E+00 0.  1.
     999900   -1    0    0    0    0 -0.00000000000E+00 -0.00000000000E+00 -0.74505805969E-08  0.93827000000E+00  0.93827000000E+00 0.  1.
     999902    2    1    2    0    0  0.17134218877E-01 -0.12282288138E-01  0.10218575941E-01  0.10205023379E+01  0.10202333881E+01 0.  0.
     999903    2    3    3    0    0  0.89515707213E-01  0.41015066458E-01 -0.84178607865E-01  0.13090101359E+00  0.18807972299E-01 0.  0.
         14    1    1    2    0    0 -0.17134218877E-01  0.12282288138E-01 -0.10218575941E-01  0.23427662126E-01  0.00000000000E+00 0. -1.
     999901    1    3    3    0    0 -0.72381488336E-01 -0.53297354595E-01  0.94397183806E-01  0.88960132429E+00  0.88000000000E+00 0. -1.
        -11    1    4    4    0    0  0.46646341567E-01  0.31474119415E-01 -0.49317741815E-01  0.74826480295E-01  0.51100000000E-03 0.  1.
         11    1    4    4    0    0  0.42869365646E-01  0.95409470427E-02 -0.34860866050E-01  0.56074533294E-01  0.51100000000E-03 0. -1.
</event>
<event>
 8    1  0.1094829E+005  0.1043930E+01  0.7957747E-01            NaN
         13   -1    0    0    0    0  0.00000000000E+00  0.00000000000E+00  0.74505805969E-08  0.10566000000E+00  0.10566000000E+00 0. -1.
     999900   -1    0    0    0    0 -0.00000000000E+00 -0.00000000000E+00 -0.74505805969E-08  0.93827000000E+00  0.93827000000E+00 0. -1.
     999902    2    1    2    0    0  0.17601658613E-01  0.17131828265E-01 -0.37986213620E-02  0.10190754743E+01  0.10187723371E+01 0.  0.
     999903    2    3    3    0    0 -0.33374720522E-01 -0.64238379499E-01 -0.10438637711E+00  0.12815595009E+00  0.16940792355E-01 0.  0.
         14    1    1    2    0    0 -0.17601658613E-01 -0.17131828265E-01  0.37986213620E-02  0.24854525742E-01  0.00000000000E+00 0. -1.
     999901    1    3    3    0    0  0.50976379135E-01  0.81370207763E-01  0.10058775575E+00  0.89091952417E+00  0.88000000000E+00 0.  1.
        -11    1    4    4    0    0 -0.18919436106E-01 -0.41106418805E-01 -0.78141289800E-01  0.90299529468E-01  0.51100000000E-03 0. -1.
         11    1    4    4    0    0 -0.14455284417E-01 -0.23131960693E-01 -0.26245087313E-01  0.37856420619E-01  0.51100000000E-03 0.  1.
</event>
<event>
 8    1  0.1094829E+005  0.1043930E+01  0.7957747E-01            NaN
         13   -1    0    0    0    0  0.00000000000E+00  0.00000000000E+00  0.74505805969E-08  0.10566000000E+00  0.10566000000E+00 0. -1.
     999900   -1    0    0    0    0 -0.00000000000E+00 -0.00000000000E+00 -0.74505805969E-08  0.93827000000E+00  0.93827000000E+00 0.  1.
     999902    2    1    2    0    0 -0.15775447032E-01  0.50572640539E-02  0.16400709621E-01  0.10206185452E+01  0.10203522876E+01 0.  0.
     999903    2    3    3    0    0  0.36282449500E-01  0.10728658460E+00 -0.60432021749E-01  0.12985251128E+00  0.19565736820E-01 0.  0.
         14    1    1    2    0    0  0.15775447032E-01 -0.50572640539E-02 -0.16400709621E-01  0.23311454799E-01  0.00000000000E+00 0. -1.
     999901    1    3    3    0    0 -0.52057896532E-01 -0.10222932055E+00  0.76832731370E-01  0.89076603392E+00  0.88000000000E+00 0. -1.
        -11    1    4    4    0    0  0.11450317675E-01  0.20271874827E-01 -0.20175658836E-01  0.30811962196E-01  0.51100000000E-03 0. -1.
         11    1    4    4    0    0  0.24832131826E-01  0.87014709773E-01 -0.40256362913E-01  0.99040549089E-01  0.51100000000E-03 0.  1.
</event>
<event>
 8    1  0.1094829E+005  0.1043930E+01  0.7957747E-01            NaN
         13   -1    0    0    0    0  0.00000000000E+00  0.00000000000E+00  0.74505805969E-08  0.10566000000E+00  0.10566000000E+00 0.  1.
     999900   -1    0    0    0    0 -0.00000000000E+00 -0.00000000000E+00 -0.74505805969E-08  0.93827000000E+00  0.93827000000E+00 0. -1.
     999902    2    1    2    0    0 -0.56814522034E-02  0.21279639495E-01 -0.13608261263E-01  0.10180401037E+01  0.10177108460E+01 0.  0.
     999903    2    3    3    0    0  0.90797881153E-01 -0.41353953567E-01  0.70103388032E-01  0.12661491391E+00  0.34094672813E-01 0.  0.
         14    1    1    2    0    0  0.56814522034E-02 -0.21279639495E-01  0.13608261263E-01  0.25889896307E-01  0.00000000000E+00 0. -1.
     999901    1    3    3    0    0 -0.96479333357E-01  0.62633593062E-01 -0.83711649296E-01  0.89142518978E+00  0.88000000000E+00 0.  1.
        -11    1    4    4    0    0  0.24863063930E-01 -0.10103998094E-01  0.38884606553E-01  0.47249724584E-01  0.51100000000E-03 0.  1.
         11    1    4    4    0    0  0.65934817223E-01 -0.31249955473E-01  0.31218781479E-01  0.79365189330E-01  0.51100000000E-03 0. -1.
</event>
<event>
 8    1  0.1094829E+005  0.1043930E+01  0.7957747E-01            NaN
         13   -1    0    0    0    0  0.00000000000E+00  0.00000000000E+00  0.74505805969E-08  0.10566000000E+00  0.10566000000E+00 0. -1.
     999900   -1    0    0    0    0 -0.00000000000E+00 -0.00000000000E+00 -0.74505805969E-08  0.93827000000E+00  0.93827000000E+00 0.  1.
     999902    2    1    2    0    0 -0.54972863600E-02  0.97297749450E-02 -0.21042899176E-01  0.10201037060E+01  0.10198254158E+01 0.  0.
     999903    2    3    3    0    0 -0.23417057217E-01  0.11343620010E+00 -0.61580062973E-01  0.13290620692E+00  0.21350073052E-01 0.  0.
         14    1    1    2    0    0  0.54972863600E-02 -0.97297749450E-02  0.21042899176E-01  0.23826293953E-01  0.00000000000E+00 0. -1.
     999901    1    3    3    0    0  0.17919770857E-01 -0.10370642516E+00  0.40537163797E-01  0.88719749913E+00  0.88000000000E+00 0.  1.
        -11    1    4    4    0    0 -0.18613736456E-02  0.47819796374E-01 -0.17435978545E-01  0.50935960832E-01  0.51100000000E-03 0. -1.
         11    1    4    4    0    0 -0.21555683571E-01  0.65616403731E-01 -0.44144084428E-01  0.81970246089E-01  0.51100000000E-03 0.  1.
</event>
<event>
 8    1  0.1094829E+005  0.1043930E+01  0.7957747E-01            NaN
         13   -1    0    0    0    0  0.00000000000E+00  0.00000000000E+00  0.74505805969E-08  0.10566000000E+00  0.10566000000E+00 0.  1.
     999900   -1    0    0    0    0 -0.00000000000E+00 -0.00000000000E+00 -0.74505805969E-08  0.93827000000E+00  0.93827000000E+00 0. -1.
     999902    2    1    2    0    0  0.23368617411E-01  0.59830642203E-03 -0.23501133364E-02  0.10204358883E+01  0.10201653929E+01 0.  0.
     999903    2    3    3    0    0 -0.82855685472E-01  0.47786691407E-01  0.83683342555E-01  0.12863316254E+00  0.19873504810E-01 0.  0.
         14    1    1    2    0    0 -0.23368617411E-01 -0.59830642203E-03  0.23501133364E-02  0.23494111666E-01  0.00000000000E+00 0. -1.
     999901    1    3    3    0    0  0.10622430288E+00 -0.47188384985E-01 -0.86033455891E-01  0.89180272579E+00  0.88000000000E+00 0.  1.
        -11    1    4    4    0    0 -0.27060553007E-01  0.12632196181E-01  0.38337833801E-01  0.48599347022E-01  0.51100000000E-03 0.  1.
         11    1    4    4    0    0 -0.55795132465E-01  0.35154495226E-01  0.45345508753E-01  0.80033815518E-01  0.51100000000E-03 0. -1.
</event>
<event>
 8    1  0.1094829E+005  0.1043930E+01  0.7957747E-01            NaN
         13   -1    0    0    0    0  0.00000000000E+00  0.00000000000E+00  0.74505805969E-08  0.10566000000E+00  0.10566000000E+00 0.  1.
     999900   -1    0    0    0    0 -0.00000000000E+00 -0.00000000000E+00 -0.74505805969E-08  0.93827000000E+00  0.93827000000E+00 0. -1.
     999902    2    1    2    0    0  0.12762178174E-01 -0.19164874356E-01 -0.53819520765E-02  0.10202840488E+01  0.10200100045E+01 0.  0.
     999903    2    3    3    0    0  0.61361225217E-01 -0.91079015025E-01  0.71756923778E-01  0.13265579486E+00  0.19695605104E-01 0.  0.
         14    1    1    2    0    0 -0.12762178174E-01  0.19164874356E-01  0.53819520765E-02  0.23645951218E-01  0.00000000000E+00 0.  1.
     999901    1    3    3    0    0 -0.48599047043E-01  0.71914140669E-01 -0.77138875855E-01  0.88762825393E+00  0.88000000000E+00 0. -1.
        -11    1    4    4    0    0  0.23296319057E-01 -0.38712954018E-01  0.18504003398E-01  0.48826944950E-01  0.51100000000E-03 0.  1.
         11    1    4    4    0    0  0.38064906160E-01 -0.52366061008E-01  0.53252920380E-01  0.83828849905E-01  0.51100000000E-03 0. -1.
</event>
<event>
 8    1  0.1094829E+005  0.1043930E+01  0.7957747E-01            NaN
         13   -1    0    0    0    0  0.00000000000E+00  0.00000000000E+00  0.74505805969E-08  0.10566000000E+00  0.10566000000E+00 0. -1.
     999900   -1    0    0    0    0 -0.00000000000E+00 -0.00000000000E+00 -0.74505805969E-08  0.93827000000E+00  0.93827000000E+00 0. -1.
     999902    2    1    2    0    0 -0.22330380158E-01 -0.60914693589E-02  0.60554416182E-02  0.10200046944E+01  0.10197240589E+01 0.  0.
     999903    2    3    3    0    0 -0.73881115205E-01 -0.12265820805E-01 -0.10597039144E+00  0.13138475975E+00  0.20575754923E-01 0.  0.
         14    1    1    2    0    0  0.22330380158E-01  0.60914693589E-02 -0.60554416182E-02  0.23925305644E-01  0.00000000000E+00 0. -1.
     999901    1    3    3    0    0  0.51550735047E-01  0.61743514462E-02  0.11202583305E+00  0.88861993460E+00  0.88000000000E+00 0.  1.
        -11    1    4    4    0    0 -0.38050737850E-01 -0.10767496441E-01 -0.39731328264E-01  0.56059229367E-01  0.51100000000E-03 0. -1.
         11    1    4    4    0    0 -0.35830377355E-01 -0.14983243638E-02 -0.66239063172E-01  0.75325530388E-01  0.51100000000E-03 0.  1.
</event>
<event>
 8    1  0.1094829E+005  0.1043930E+01  0.7957747E-01            NaN
         13   -1    0    0    0    0  0.00000000000E+00  0.00000000000E+00  0.74505805969E-08  0.10566000000E+00  0.10566000000E+00 0.  1.
     999900   -1    0    0    0    0 -0.00000000000E+00 -0.00000000000E+00 -0.74505805969E-08  0.93827000000E+00  0.93827000000E+00 0.  1.
     999902    2    1    2    0    0  0.22486322686E-01  0.35141490263E-02  0.48979033532E-02  0.10206496777E+01  0.10203841390E+01 0.  0.
     999903    2    3    3    0    0 -0.11193631193E+00 -0.53235740695E-01 -0.25411758248E-01  0.12812031104E+00  0.20131433805E-01 0.  0.
         14    1    1    2    0    0 -0.22486322686E-01 -0.35141490263E-02 -0.48979033532E-02  0.23280322347E-01  0.00000000000E+00 0. -1.
     999901    1    3    3    0    0  0.13442263462E+00  0.56749889721E-01  0.30309661601E-01  0.89252936661E+00  0.88000000000E+00 0. -1.
        -11    1    4    4    0    0 -0.11339256570E-01  0.78004467409E-03 -0.28635444982E-02  0.11732357706E-01  0.51100000000E-03 0.  1.
         11    1    4    4    0    0 -0.10059705536E+00 -0.54015785369E-01 -0.22548213750E-01  0.11638795333E+00  0.51100000000E-03 0. -1.
</event>
<event>
 8    1  0.1094829E+005  0.1043930E+01  0.7957747E-01            NaN
         13   -1    0    0    0    0  0.00000000000E+00  0.00000000000E+00  0.74505805969E-08  0.10566000000E+00  0.10566000000E+00 0.  1.
     999900   -1    0    0    0    0 -0.00000000000E+00 -0.00000000000E+00 -0.74505805969E-08  0.93827000000E+00  0.93827000000E+00 0. -1.
     999902    2    1    2    0    0 -0.10930337588E-01 -0.10477246374E-01  0.19437821982E-01  0.10192911304E+01  0.10189932947E+01 0.  0.
     999903    2    3    3    0    0 -0.10440937416E+00  0.44908809327E-01 -0.58252971630E-01  0.12921146832E+00  0.19597864008E-01 0.  0.
         14    1    1    2    0    0  0.10930337588E-01  0.10477246374E-01 -0.19437821982E-01  0.24638869592E-01  0.00000000000E+00 0. -1.
     999901    1    3    3    0    0  0.93479036576E-01 -0.55386055702E-01  0.77690793613E-01  0.89007966209E+00  0.88000000000E+00 0.  1.
        -11    1    4    4    0    0 -0.19309204224E-01  0.41836264966E-02 -0.33230670953E-02  0.20041257305E-01  0.51100000000E-03 0.  1.
         11    1    4    4    0    0 -0.85100169940E-01  0.40725182831E-01 -0.54929904535E-01  0.10917021102E+00  0.51100000000E-03 0. -1.
</event>
<event>
 8    1  0.1094829E+005  0.1043930E+01  0.7957747E-01            NaN
         13   -1    0    0    0    0  0.00000000000E+00  0.00000000000E+00  0.74505805969E-08  0.10566000000E+00  0.10566000000E+00 0.  1.
     999900   -1    0    0    0    0 -0.00000000000E+00 -0.00000000000E+00 -0.74505805969E-08  0.93827000000E+00  0.93827000000E+00 0.  1.
     999902    2    1    2    0    0  0.19978618299E-01 -0.14276990748E-01 -0.66000165810E-02  0.10185028910E+01  0.10181854453E+01 0.  0.
     999903    2    3    3    0    0 -0.72701094065E-01  0.99548932470E-01  0.16720701832E-01  0.12604016023E+00  0.20275627900E-01 0.  0.
         14    1    1    2    0    0 -0.19978618299E-01  0.14276990748E-01  0.66000165810E-02  0.25427109015E-01  0.00000000000E+00 0.  1.
     999901    1    3    3    0    0  0.92679712365E-01 -0.11382592322E+00 -0.23320718413E-01  0.89246273076E+00  0.88000000000E+00 0.  1.
        -11    1    4    4    0    0 -0.30146576590E-01  0.47445389215E-01 -0.18616364220E-02  0.56245958513E-01  0.51100000000E-03 0.  1.
         11    1    4    4    0    0 -0.42554517476E-01  0.52103543255E-01  0.18582338254E-01  0.69794201717E-01  0.51100000000E-03 0. -1.
</event>
<event>
 8    1  0.1094829E+005  0.1043930E+01  0.7957747E-01            NaN
         13   -1    0    0    0    0  0.00000000000E+00  0.00000000000E+00  0.74505805969E-08  0.10566000000E+00  0.10566000000E+00 0. -1.
     999900   -1    0    0    0    0 -0.00000000000E+00 -0.00000000000E+00 -0.74505805969E-08  0.93827000000E+00  0.93827000000E+00 0.  1.
     999902    2    1    2    0    0  0.17054920236E-01  0.94178001020E-02 -0.13880439267E-01  0.10200086318E+01  0.10197280898E+01 0.  0.
     999903    2    3    3    0    0 -0.10887631873E+00  0.63001672514E-01 -0.22748655444E-01  0.12938606662E+00  0.19999734765E-01 0.  0.
         14    1    1    2    0    0 -0.17054920236E-01 -0.94178001020E-02  0.13880439267E-01  0.23921368214E-01  0.00000000000E+00 0. -1.
     999901    1    3    3    0    0  0.12593123896E+00 -0.53583872412E-01  0.88682161774E-02  0.89062256517E+00  0.88000000000E+00 0.  1.
        -11    1    4    4    0    0 -0.68046700302E-01  0.27999926470E-01 -0.12572012766E-01  0.74650290893E-01  0.51100000000E-03 0. -1.
         11    1    4    4    0    0 -0.40829618426E-01  0.35001746044E-01 -0.10176642678E-01  0.54735775725E-01  0.51100000000E-03 0.  1.
</event>
<event>
 8    1  0.1094829E+005  0.1043930E+01  0.7957747E-01            NaN
         13   -1    0    0    0    0  0.00000000000E+00  0.00000000000E+00  0.74505805969E-08  0.10566000000E+00  0.10566000000E+00 0. -1.
     999900   -1    0    0    0    0 -0.00000000000E+00 -0.00000000000E+00 -0.74505805969E-08  0.93827000000E+00  0.93827000000E+00 0. -1.
     999902    2    1    2    0    0  0.18175119450E-01  0.79537448557E-02  0.12479421527E-01  0.10204921463E+01  0.10202229598E+01 0.  0.
     999903    2    3    3    0    0 -0.22601843845E-01  0.12716667788E+00 -0.10822092886E-01  0.13121297489E+00  0.20433300678E-01 0.  0.
         14    1    1    2    0    0 -0.18175119450E-01 -0.79537448557E-02 -0.12479421527E-01  0.23437853697E-01  0.00000000000E+00 0.  1.
     999901    1    3    3    0    0  0.40776963295E-01 -0.11921293302E+00  0.23301514414E-01  0.88927917141E+00  0.88000000000E+00 0.  1.
        -11    1    4    4    0    0 -0.16303749649E-01  0.10386828236E+00 -0.16463591832E-01  0.10642247558E+00  0.51100000000E-03 0.  1.
         11    1    4    4    0    0 -0.62980941958E-02  0.23298395523E-01  0.56414989458E-02  0.24790499305E-01  0.51100000000E-03 0. -1.
</event>
<event>
 8    1  0.1094829E+005  0.1043930E+01  0.7957747E-01            NaN
         13   -1    0    0    0    0  0.00000000000E+00  0.00000000000E+00  0.74505805969E-08  0.10566000000E+00  0.10566000000E+00 0. -1.
     999900   -1    0    0    0    0 -0.00000000000E+00 -0.00000000000E+00 -0.74505805969E-08  0.93827000000E+00  0.93827000000E+00 0.  1.
     999902    2    1    2    0    0 -0.57997431263E-02  0.12794036241E-01 -0.19414325112E-01  0.10199666863E+01  0.10196851479E+01 0.  0.
     999903    2    3    3    0    0 -0.64969977215E-01  0.45939778690E-01 -0.10490928535E+00  0.13322594343E+00  0.20288731965E-01 0.  0.
         14    1    1    2    0    0  0.57997431263E-02 -0.12794036241E-01  0.19414325112E-01  0.23963313694E-01  0.00000000000E+00 0. -1.
     999901    1    3    3    0    0  0.59170234089E-01 -0.33145742448E-01  0.85494960242E-01  0.88674074287E+00  0.88000000000E+00 0.  1.
        -11    1    4    4    0    0 -0.42116195695E-01  0.25521535601E-01 -0.78991879530E-01  0.93086523578E-01  0.51100000000E-03 0.  1.
         11    1    4    4    0    0 -0.22853781521E-01  0.20418243088E-01 -0.25917405823E-01  0.40139419854E-01  0.51100000000E-03 0. -1.
</event>
<event>
 8    1  0.1094829E+005  0.1043930E+01  0.7957747E-01            NaN
         13   -1    0    0    0    0  0.00000000000E+00  0.00000000000E+00  0.74505805969E-08  0.10566000000E+00  0.10566000000E+00 0. -1.
     999900   -1    0    0    0    0 -0.00000000000E+00 -0.00000000000E+00 -0.74505805969E-08  0.93827000000E+00  0.93827000000E+00 0.  1.
     999902    2    1    2    0    0 -0.72743356808E-04  0.23551841648E-01  0.30135608958E-03  0.10203761181E+01  0.10201042285E+01 0.  0.
     999903    2    3    3    0    0  0.71061008577E-01 -0.80508898559E-01 -0.69331022073E-01  0.12867139321E+00  0.14771158463E-01 0.  0.
         14    1    1    2    0    0  0.72743356808E-04 -0.23551841648E-01 -0.30135608958E-03  0.23553881890E-01  0.00000000000E+00 0. -1.
     999901    1    3    3    0    0 -0.71133751934E-01  0.10406074021E+00  0.69632378162E-01  0.89170472490E+00  0.88000000000E+00 0. -1.
        -11    1    4    4    0    0  0.49962095790E-01 -0.63582314465E-01 -0.57025961776E-01  0.98950205487E-01  0.51100000000E-03 0. -1.
         11    1    4    4    0    0  0.21098912787E-01 -0.16926584094E-01 -0.12305060297E-01  0.29721187725E-01  0.51100000000E-03 0.  1.
</event>
<event>
 8    1  0.1094829E+005  0.1043930E+01  0.7957747E-01            NaN
         13   -1    0    0    0    0  0.00000000000E+00  0.00000000000E+00  0.74505805969E-08  0.10566000000E+00  0.10566000000E+00 0.  1.
     999900   -1    0    0    0    0 -0.00000000000E+00 -0.00000000000E+00 -0.74505805969E-08  0.93827000000E+00  0.93827000000E+00 0. -1.
     999902    2    1    2    0    0  0.22222403421E-02 -0.91575519042E-02  0.19021390682E-01  0.10227023668E+01  0.10224820383E+01 0.  0.
     999903    2    3    3    0    0 -0.83650313031E-01 -0.50984874503E-01 -0.85253573200E-01  0.13141291411E+00  0.20108454745E-01 0.  0.
         14    1    1    2    0    0 -0.22222403421E-02  0.91575519042E-02 -0.19021390682E-01  0.21227633229E-01  0.00000000000E+00 0. -1.
     999901    1    3    3    0    0  0.85872553374E-01  0.41827322599E-01  0.10427496388E+00  0.89128945266E+00  0.88000000000E+00 0.  1.
        -11    1    4    4    0    0 -0.69647853045E-01 -0.32630504578E-01 -0.65621805408E-01  0.10110418255E+00  0.51100000000E-03 0. -1.
         11    1    4    4    0    0 -0.14002459986E-01 -0.18354369925E-01 -0.19631767792E-01  0.30308731558E-01  0.51100000000E-03 0.  1.
</event>
<event>
 8    1  0.1094829E+005  0.1043930E+01  0.7957747E-01            NaN
         13   -1    0    0    0    0  0.00000000000E+00  0.00000000000E+00  0.74505805969E-08  0.10566000000E+00  0.10566000000E+00 0. -1.
     999900   -1    0    0    0    0 -0.00000000000E+00 -0.00000000000E+00 -0.74505805969E-08  0.93827000000E+00  0.93827000000E+00 0.  1.
     999902    2    1    2    0    0  0.14761697654E-01 -0.16140395798E-01  0.79197162844E-02  0.10206675410E+01  0.10204024143E+01 0.  0.
     999903    2    3    3    0    0  0.60920233214E-01  0.40358513541E-01 -0.10606384987E+00  0.13032210772E+00  0.19855152475E-01 0.  0.
         14    1    1    2    0    0 -0.14761697654E-01  0.16140395798E-01 -0.79197162844E-02  0.23262459030E-01  0.00000000000E+00 0.  1.
     999901    1    3    3    0    0 -0.46158535560E-01 -0.56498909338E-01  0.11398356616E+00  0.89034543325E+00  0.88000000000E+00 0. -1.
        -11    1    4    4    0    0  0.16695340467E-01  0.22361090283E-01 -0.36546023967E-01  0.45985059974E-01  0.51100000000E-03 0.  1.
         11    1    4    4    0    0  0.44224892746E-01  0.17997423258E-01 -0.69517825905E-01  0.84337047743E-01  0.51100000000E-03 0. -1.
</event>
<event>
 8    1  0.1094829E+005  0.1043930E+01  0.7957747E-01            NaN
         13   -1    0    0    0    0  0.00000000000E+00  0.00000000000E+00  0.74505805969E-08  0.10566000000E+00  0.10566000000E+00 0.  1.
     999900   -1    0    0    0    0 -0.00000000000E+00 -0.00000000000E+00 -0.74505805969E-08  0.93827000000E+00  0.93827000000E+00 0. -1.
     999902    2    1    2    0    0 -0.10700048915E-01  0.66758980572E-02  0.20765199911E-01  0.10196348937E+01  0.10193454097E+01 0.  0.
     999903    2    3    3    0    0 -0.47165748829E-01 -0.40051353272E-01 -0.10951476939E+00  0.12807106893E+00  0.24083089918E-01 0.  0.
         14    1    1    2    0    0  0.10700048915E-01 -0.66758980572E-02 -0.20765199911E-01  0.24295106277E-01  0.00000000000E+00 0. -1.
     999901    1    3    3    0    0  0.36465699914E-01  0.46727251329E-01  0.13027996930E+00  0.89156382480E+00  0.88000000000E+00 0.  1.
        -11    1    4    4    0    0 -0.82341707856E-02  0.20591983384E-02 -0.20339103995E-01  0.22045002578E-01  0.51100000000E-03 0. -1.
         11    1    4    4    0    0 -0.38931578044E-01 -0.42110551610E-01 -0.89175665393E-01  0.10602606635E+00  0.51100000000E-03 0.  1.
</event>
<event>
 8    1  0.1094829E+005  0.1043930E+01  0.7957747E-01            NaN
         13   -1    0    0    0    0  0.00000000000E+00  0.00000000000E+00  0.74505805969E-08  0.10566000000E+00  0.10566000000E+00 0. -1.
     999900   -1    0    0    0    0 -0.00000000000E+00 -0.00000000000E+00 -0.74505805969E-08  0.93827000000E+00  0.93827000000E+00 0. -1.
     999902    2    1    2    0    0 -0.16356323565E-01 -0.15850717166E-01 -0.20624292812E-02  0.10210601909E+01  0.10208040386E+01 0.  0.
     999903    2    3    3    0    0 -0.66280335195E-01  0.16956990919E-01  0.11082630160E+00  0.13183996044E+00  0.20461761111E-01 0.  0.
         14    1    1    2    0    0  0.16356323565E-01  0.15850717166E-01  0.20624292812E-02  0.22869809133E-01  0.00000000000E+00 0.  1.
     999901    1    3    3    0    0  0.49924011630E-01 -0.32807708086E-01 -0.11288873088E+00  0.88922023043E+00  0.88000000000E+00 0. -1.
        -11    1    4    4    0    0 -0.19954379777E-01 -0.37571583052E-02  0.26018851084E-01  0.33008108754E-01  0.51100000000E-03 0.  1.
         11    1    4    4    0    0 -0.46325955419E-01  0.20714149224E-01  0.84807450513E-01  0.98831851683E-01  0.51100000000E-03 0. -1.
</event>
<event>
 8    1  0.1094829E+005  0.1043930E+01  0.7957747E-01            NaN
         13   -1    0    0    0    0  0.00000000000E+00  0.00000000000E+00  0.74505805969E-08  0.10566000000E+00  0.10566000000E+00 0. -1.
     999900   -1    0    0    0    0 -0.00000000000E+00 -0.00000000000E+00 -0.74505805969E-08  0.93827000000E+00  0.93827000000E+00 0.  1.
     999902    2    1    2    0    0  0.15215813537E-01 -0.45061591663E-02  0.23433852792E-01  0.10156285529E+01  0.10152341531E+01 0.  0.
     999903    2    3    3    0    0 -0.51831481061E-01 -0.68738813971E-01  0.91851246505E-01  0.12810271472E+00  0.23709218850E-01 0.  0.
         14    1    1    2    0    0 -0.15215813537E-01  0.45061591663E-02 -0.23433852792E-01  0.28301447113E-01  0.00000000000E+00 0.  1.
     999901    1    3    3    0    0  0.67047294597E-01  0.64232654804E-01 -0.68417393713E-01  0.88752583817E+00  0.88000000000E+00 0.  1.
        -11    1    4    4    0    0 -0.26322662857E-01 -0.33045074892E-01  0.62031432316E-01  0.75053442764E-01  0.51100000000E-03 0. -1.
         11    1    4    4    0    0 -0.25508818204E-01 -0.35693739079E-01  0.29819814188E-01  0.53049271954E-01  0.51100000000E-03 0.  1.
</event>
<event>
 8    1  0.1094829E+005  0.1043930E+01  0.7957747E-01            NaN
         13   -1    0    0    0    0  0.00000000000E+00  0.00000000000E+00  0.74505805969E-08  0.10566000000E+00  0.10566000000E+00 0. -1.
     999900   -1    0    0    0    0 -0.00000000000E+00 -0.00000000000E+00 -0.74505805969E-08  0.93827000000E+00  0.93827000000E+00 0.  1.
     999902    2    1    2    0    0  0.44794709201E-02 -0.19242513535E-01  0.91396792882E-02  0.10221613592E+01  0.10219295330E+01 0.  0.
     999903    2    3    3    0    0  0.13611153138E-02  0.45682121581E-01 -0.12047179365E+00  0.13029586128E+00  0.19361031318E-01 0.  0.
         14    1    1    2    0    0 -0.44794709201E-02  0.19242513535E-01 -0.91396792882E-02  0.21768640848E-01  0.00000000000E+00 0.  1.
     999901    1    3    3    0    0  0.31183556063E-02 -0.64924635116E-01  0.12961147294E+00  0.89186549788E+00  0.88000000000E+00 0. -1.
        -11    1    4    4    0    0 -0.82386969858E-02  0.27690759135E-01 -0.62968928589E-01  0.69282042104E-01  0.51100000000E-03 0.  1.
         11    1    4    4    0    0  0.95998122996E-02  0.17991362446E-01 -0.57502865059E-01  0.61013819171E-01  0.51100000000E-03 0. -1.
</event>
<event>
 8    1  0.1094829E+005  0.1043930E+01  0.7957747E-01            NaN
         13   -1    0    0    0    0  0.00000000000E+00  0.00000000000E+00  0.74505805969E-08  0.10566000000E+00  0.10566000000E+00 0.  1.
     999900   -1    0    0    0    0 -0.00000000000E+00 -0.00000000000E+00 -0.74505805969E-08  0.93827000000E+00  0.93827000000E+00 0. -1.
     999902    2    1    2    0    0  0.33140176825E-02 -0.21776375856E-01 -0.21441541684E-01  0.10131902380E+01  0.10127238150E+01 0.  0.
     999903    2    3    3    0    0 -0.84793521445E-01  0.73511760051E-01  0.41249877096E-01  0.12146551517E+00  0.21410251543E-01 0.  0.
         14    1    1    2    0    0 -0.33140176825E-02  0.21776375856E-01  0.21441541684E-01  0.30739762009E-01  0.00000000000E+00 0. -1.
     999901    1    3    3    0    0  0.88107539127E-01 -0.95288135906E-01 -0.62691418780E-01  0.89172472282E+00  0.88000000000E+00 0. -1.
        -11    1    4    4    0    0 -0.51846304962E-01  0.52719984450E-01  0.35696217001E-01  0.82109178097E-01  0.51100000000E-03 0. -1.
         11    1    4    4    0    0 -0.32947216483E-01  0.20791775601E-01  0.55536600945E-02  0.39356337076E-01  0.51100000000E-03 0.  1.
</event>
<event>
 8    1  0.1094829E+005  0.1043930E+01  0.7957747E-01            NaN
         13   -1    0    0    0    0  0.00000000000E+00  0.00000000000E+00  0.74505805969E-08  0.10566000000E+00  0.10566000000E+00 0. -1.
     999900   -1    0    0    0    0 -0.00000000000E+00 -0.00000000000E+00 -0.74505805969E-08  0.93827000000E+00  0.93827000000E+00 0.  1.
     999902    2    1    2    0    0  0.16261430084E-01 -0.88341919503E-02  0.17024411239E-01  0.10187842721E+01  0.10184739002E+01 0.  0.
     999903    2    3    3    0    0 -0.12008048058E+00 -0.30593478150E-01  0.25042695877E-01  0.12798301699E+00  0.19930712478E-01 0.  0.
         14    1    1    2    0    0 -0.16261430084E-01  0.88341919503E-02 -0.17024411239E-01  0.25145727944E-01  0.00000000000E+00 0.  1.
     999901    1    3    3    0    0  0.13634191066E+00  0.21759286199E-01 -0.80182846376E-02  0.89080125507E+00  0.88000000000E+00 0.  1.
        -11    1    4    4    0    0 -0.95859951821E-01 -0.30942062319E-01  0.24861034734E-01  0.10375390958E+00  0.51100000000E-03 0. -1.
         11    1    4    4    0    0 -0.24220528757E-01  0.34858416969E-03  0.18166114273E-03  0.24229107412E-01  0.51100000000E-03 0.  1.
</event>
<event>
 8    1  0.1094829E+005  0.1043930E+01  0.7957747E-01            NaN
         13   -1    0    0    0    0  0.00000000000E+00  0.00000000000E+00  0.74505805969E-08  0.10566000000E+00  0.10566000000E+00 0.  1.
     999900   -1    0    0    0    0 -0.00000000000E+00 -0.00000000000E+00 -0.74505805969E-08  0.93827000000E+00  0.93827000000E+00 0. -1.
     999902    2    1    2    0    0  0.16735774281E-01  0.15764252527E-01 -0.48964169065E-02  0.10204231351E+01  0.10201523425E+01 0.  0.
     999903    2    3    3    0    0 -0.54607774732E-01 -0.11384186073E+00  0.30384825604E-02  0.12803834747E+00  0.21038244492E-01 0.  0.
         14    1    1    2    0    0 -0.16735774281E-01 -0.15764252527E-01  0.48964169065E-02  0.23506864892E-01  0.00000000000E+00 0.  1.
     999901    1    3    3    0    0  0.71343549014E-01  0.12960611325E+00 -0.79348994669E-02  0.89238478764E+00  0.88000000000E+00 0. -1.
        -11    1    4    4    0    0 -0.37598090622E-01 -0.60858798752E-01  0.88659521384E-02  0.72085199815E-01  0.51100000000E-03 0.  1.
         11    1    4    4    0    0 -0.17009684110E-01 -0.52983061975E-01 -0.58274695779E-02  0.55953147655E-01  0.51100000000E-03 0. -1.
</event>
<event>
 8    1  0.1094829E+005  0.1043930E+01  0.7957747E-01            NaN
         13   -1    0    0    0    0  0.00000000000E+00  0.00000000000E+00  0.74505805969E-08  0.10566000000E+00  0.10566000000E+00 0. -1.
     999900   -1    0    0    0    0 -0.00000000000E+00 -0.00000000000E+00 -0.74505805969E-08  0.93827000000E+00  0.93827000000E+00 0.  1.
     999902    2    1    2    0    0 -0.17111564608E-01  0.10585996377E-01  0.11848367781E-01  0.10205793516E+01  0.10203121876E+01 0.  0.
     999903    2    3    3    0    0 -0.11592221131E+00 -0.45067663536E-01 -0.38849431589E-01  0.13185490574E+00  0.20183767309E-01 0.  0.
         14    1    1    2    0    0  0.17111564608E-01 -0.10585996377E-01 -0.11848367781E-01  0.23350648421E-01  0.00000000000E+00 0.  1.
     999901    1    3    3    0    0  0.98810646700E-01  0.55653659913E-01  0.50697799371E-01  0.88872444583E+00  0.88000000000E+00 0. -1.
        -11    1    4    4    0    0 -0.92640214624E-01 -0.30616527802E-01 -0.37123737307E-01  0.10439355408E+00  0.51100000000E-03 0. -1.
         11    1    4    4    0    0 -0.23281996684E-01 -0.14451135735E-01 -0.17256942819E-02  0.27461351667E-01  0.51100000000E-03 0.  1.
</event>
<event>
 7    1  0.1094829E+005  0.1043930E+01  0.7957747E-01            NaN
         13   -1    0    0    0    0  0.00000000000E+00  0.00000000000E+00  0.74505805969E-08  0.10566000000E+00  0.10566000000E+00 0. -1.
     999900   -1    0    0    0    0 -0.00000000000E+00 -0.00000000000E+00 -0.74505805969E-08  0.93827000000E+00  0.93827000000E+00 0. -1.
     999903    2    1    2    0    0 -0.34997703899E-01  0.12701523904E-01  0.10622535251E+00  0.11459761296E+00  0.21508588809E-01 0.  0.
         14    1    1    2    0    0 -0.26232962797E-02 -0.40423452978E-01 -0.15740457377E-01  0.43459167416E-01  0.00000000000E+00 0.  1.
     999901    1    1    2    0    0  0.37621000178E-01  0.27721929074E-01 -0.90484895130E-01  0.88587321963E+00  0.88000000000E+00 0. -1.
        -11    1    3    3    0    0 -0.29282562251E-02  0.89322578887E-02  0.37488627375E-01  0.38652531857E-01  0.51100000000E-03 0.  1.
         11    1    3    3    0    0 -0.32069447674E-01  0.37692660152E-02  0.68736725132E-01  0.75945081099E-01  0.51100000000E-03 0. -1.
</event>
<event>
 8    1  0.1094829E+005  0.1043930E+01  0.7957747E-01            NaN
         13   -1    0    0    0    0  0.00000000000E+00  0.00000000000E+00  0.74505805969E-08  0.10566000000E+00  0.10566000000E+00 0.  1.
     999900   -1    0    0    0    0 -0.00000000000E+00 -0.00000000000E+00 -0.74505805969E-08  0.93827000000E+00  0.93827000000E+00 0.  1.
     999902    2    1    2    0    0  0.55806197997E-02 -0.95194921821E-02 -0.22773722818E-01  0.10186237458E+01  0.10183093484E+01 0.  0.
     999903    2    3    3    0    0  0.82527764533E-02 -0.12835584489E+00  0.45364307038E-02  0.13021220627E+00  0.19781512139E-01 0.  0.
         14    1    1    2    0    0 -0.55806197997E-02  0.95194921821E-02  0.22773722818E-01  0.25306254163E-01  0.00000000000E+00 0.  1.
     999901    1    3    3    0    0 -0.26721566536E-02  0.11883635271E+00 -0.27310153522E-01  0.88841153956E+00  0.88000000000E+00 0.  1.
        -11    1    4    4    0    0  0.14743219717E-01 -0.81940472878E-01  0.23232192849E-02  0.83290228069E-01  0.51100000000E-03 0. -1.
         11    1    4    4    0    0 -0.64904432637E-02 -0.46415372011E-01  0.22132114189E-02  0.46921978203E-01  0.51100000000E-03 0.  1.
</event>
<event>
 8    1  0.1094829E+005  0.1043930E+01  0.7957747E-01            NaN
         13   -1    0    0    0    0  0.00000000000E+00  0.00000000000E+00  0.74505805969E-08  0.10566000000E+00  0.10566000000E+00 0.  1.
     999900   -1    0    0    0    0 -0.00000000000E+00 -0.00000000000E+00 -0.74505805969E-08  0.93827000000E+00  0.93827000000E+00 0. -1.
     999902    2    1    2    0    0 -0.79691803915E-02 -0.31641127052E-02 -0.22797161360E-01  0.10195736864E+01  0.10192827243E+01 0.  0.
     999903    2    3    3    0    0 -0.81894830018E-01 -0.28395581175E-01 -0.98697274761E-01  0.13285927022E+00  0.19933926467E-01 0.  0.
         14    1    1    2    0    0  0.79691803915E-02  0.31641127052E-02  0.22797161360E-01  0.24356313584E-01  0.00000000000E+00 0.  1.
     999901    1    3    3    0    0  0.73925649626E-01  0.25231468470E-01  0.75900113401E-01  0.88671441620E+00  0.88000000000E+00 0.  1.
        -11    1    4    4    0    0 -0.40395999511E-01 -0.53573666435E-02 -0.54065251065E-01  0.67704140550E-01  0.51100000000E-03 0.  1.
         11    1    4    4    0    0 -0.41498830506E-01 -0.23038214532E-01 -0.44632023696E-01  0.65155129671E-01  0.51100000000E-03 0. -1.
</event>
<event>
 8    1  0.1094829E+005  0.1043930E+01  0.7957747E-01            NaN
         13   -1    0    0    0    0  0.00000000000E+00  0.00000000000E+00  0.74505805969E-08  0.10566000000E+00  0.10566000000E+00 0. -1.
     999900   -1    0    0    0    0 -0.00000000000E+00 -0.00000000000E+00 -0.74505805969E-08  0.93827000000E+00  0.93827000000E+00 0. -1.
     999902    2    1    2    0    0 -0.14983872824E-01  0.38705889326E-02  0.18063554005E-01  0.10201436618E+01  0.10198663151E+01 0.  0.
     999903    2    3    3    0    0  0.58805077780E-01 -0.10085261906E+00  0.54615033165E-01  0.13011682500E+00  0.17840918042E-01 0.  0.
         14    1    1    2    0    0  0.14983872824E-01 -0.38705889326E-02 -0.18063554005E-01  0.23786338238E-01  0.00000000000E+00 0.  1.
     999901    1    3    3    0    0 -0.73788950604E-01  0.10472320799E+00 -0.36551479160E-01  0.89002683676E+00  0.88000000000E+00 0.  1.
        -11    1    4    4    0    0  0.47339570090E-01 -0.82132974224E-01  0.36262000929E-01  0.10149903538E+00  0.51100000000E-03 0. -1.
         11    1    4    4    0    0  0.11465507690E-01 -0.18719644837E-01  0.18353032236E-01  0.28617789619E-01  0.51100000000E-03 0.  1.
</event>
<event>
 8    1  0.1094829E+005  0.1043930E+01  0.7957747E-01            NaN
         13   -1    0    0    0    0  0.00000000000E+00  0.00000000000E+00  0.74505805969E-08  0.10566000000E+00  0.10566000000E+00 0. -1.
     999900   -1    0    0    0    0 -0.00000000000E+00 -0.00000000000E+00 -0.74505805969E-08  0.93827000000E+00  0.93827000000E+00 0. -1.
     999902    2    1    2    0    0  0.19056661516E-01  0.13331625385E-01 -0.72620073372E-02  0.10195655724E+01  0.10192744140E+01 0.  0.
     999903    2    3    3    0    0 -0.53213017739E-01 -0.76618957350E-01 -0.86291772374E-01  0.12852139970E+00  0.19219529630E-01 0.  0.
         14    1    1    2    0    0 -0.19056661516E-01 -0.13331625385E-01  0.72620073372E-02  0.24364427637E-01  0.00000000000E+00 0.  1.
     999901    1    3    3    0    0  0.72269679255E-01  0.89950582735E-01  0.79029765036E-01  0.89104417266E+00  0.88000000000E+00 0. -1.
        -11    1    4    4    0    0 -0.26704075116E-01 -0.42994187074E-01 -0.59031809448E-01  0.77760037279E-01  0.51100000000E-03 0. -1.
         11    1    4    4    0    0 -0.26508942623E-01 -0.33624770276E-01 -0.27259962925E-01  0.50761362421E-01  0.51100000000E-03 0.  1.
</event>
<event>
 8    1  0.1094829E+005  0.1043930E+01  0.7957747E-01            NaN
         13   -1    0    0    0    0  0.00000000000E+00  0.00000000000E+00  0.74505805969E-08  0.10566000000E+00  0.10566000000E+00 0.  1.
     999900   -1    0    0    0    0 -0.00000000000E+00 -0.00000000000E+00 -0.74505805969E-08  0.93827000000E+00  0.93827000000E+00 0.  1.
     999902    2    1    2    0    0  0.23057823613E-01 -0.17479233387E-02  0.28723851951E-02  0.10206283034E+01  0.10203622713E+01 0.  0.
     999903    2    3    3    0    0  0.99792512508E-01  0.77525134571E-01 -0.36776671036E-01  0.13285328811E+00  0.18132307795E-01 0.  0.
         14    1    1    2    0    0 -0.23057823613E-01  0.17479233387E-02 -0.28723851951E-02  0.23301696558E-01  0.00000000000E+00 0.  1.
     999901    1    3    3    0    0 -0.76734688895E-01 -0.79273057910E-01  0.39649056231E-01  0.88777501533E+00  0.88000000000E+00 0.  1.
        -11    1    4    4    0    0  0.64415903891E-01  0.56458823918E-01 -0.17679915335E-01  0.87463409490E-01  0.51100000000E-03 0.  1.
         11    1    4    4    0    0  0.35376608618E-01  0.21066310653E-01 -0.19096755701E-01  0.45389878619E-01  0.51100000000E-03 0. -1.
</event>
<event>
 8    1  0.1094829E+005  0.1043930E+01  0.7957747E-01            NaN
         13   -1    0    0    0    0  0.00000000000E+00  0.00000000000E+00  0.74505805969E-08  0.10566000000E+00  0.10566000000E+00 0. -1.
     999900   -1    0    0    0    0 -0.00000000000E+00 -0.00000000000E+00 -0.74505805969E-08  0.93827000000E+00  0.93827000000E+00 0.  1.
     999902    2    1    2    0    0  0.31994589576E-03 -0.85252105507E-02  0.22928718284E-01  0.10194655829E+01  0.10191720007E+01 0.  0.
     999903    2    3    3    0    0  0.57486293099E-01 -0.91402292540E-01 -0.67527919148E-01  0.12911789510E+00  0.21268709288E-01 0.  0.
         14    1    1    2    0    0 -0.31994589576E-03  0.85252105507E-02 -0.22928718284E-01  0.24464417068E-01  0.00000000000E+00 0.  1.
     999901    1    3    3    0    0 -0.57166347204E-01  0.82877081990E-01  0.90456637432E-01  0.89034768783E+00  0.88000000000E+00 0. -1.
        -11    1    4    4    0    0  0.46914141675E-01 -0.56338271498E-01 -0.47722022197E-01  0.87479083489E-01  0.51100000000E-03 0. -1.
         11    1    4    4    0    0  0.10572151424E-01 -0.35064021042E-01 -0.19805896951E-01  0.41638811612E-01  0.51100000000E-03 0.  1.
</event>
<event>
 8    1  0.1094829E+005  0.1043930E+01  0.7957747E-01            NaN
         13   -1    0    0    0    0  0.00000000000E+00  0.00000000000E+00  0.74505805969E-08  0.10566000000E+00  0.10566000000E+00 0.  1.
     999900   -1    0    0    0    0 -0.00000000000E+00 -0.00000000000E+00 -0.74505805969E-08  0.93827000000E+00  0.93827000000E+00 0.  1.
     999902    2    1    2    0    0  0.10592498814E-01 -0.11184475661E-01  0.24702521538E-01  0.10148180077E+01  0.10144003552E+01 0.  0.
     999903    2    3    3    0    0  0.52266083627E-01 -0.77522057599E-01  0.86909314495E-01  0.12915043599E+00  0.19626340900E-01 0.  0.
         14    1    1    2    0    0 -0.10592498814E-01  0.11184475661E-01 -0.24702521538E-01  0.29111992327E-01  0.00000000000E+00 0. -1.
     999901    1    3    3    0    0 -0.41673584813E-01  0.66337581938E-01 -0.62206792957E-01  0.88566757169E+00  0.88000000000E+00 0.  1.
        -11    1    4    4    0    0  0.30325135045E-01 -0.60356409395E-01  0.58511091999E-01  0.89366207140E-01  0.51100000000E-03 0.  1.
         11    1    4    4    0    0  0.21940948582E-01 -0.17165648204E-01  0.28398222496E-01  0.39784228846E-01  0.51100000000E-03 0. -1.
</event>
<event>
 8    1  0.1136619E+005  0.1043930E+01  0.7957747E-01            NaN
         13   -1    0    0    0    0  0.00000000000E+00  0.00000000000E+00  0.74505805969E-08  0.10566000000E+00  0.10566000000E+00 0.  1.
     999900   -1    0    0    0    0 -0.00000000000E+00 -0.00000000000E+00 -0.74505805969E-08  0.93827000000E+00  0.93827000000E+00 0. -1.
     999902    2    1    2    0    0 -0.11321276096E-01 -0.20422254440E-01  0.28323912377E-02  0.10204084735E+01  0.10201373391E+01 0.  0.
     999903    2    3    3    0    0 -0.49416973325E-01 -0.74055196298E-01 -0.95806552086E-01  0.13245722724E+00  0.20971701716E-01 0.  0.
         14    1    1    2    0    0  0.11321276096E-01  0.20422254440E-01 -0.28323912377E-02  0.23521526502E-01  0.00000000000E+00 0.  1.
     999901    1    3    3    0    0  0.38095697229E-01  0.53632941858E-01  0.98638943324E-01  0.88795124626E+00  0.88000000000E+00 0. -1.
        -11    1    4    4    0    0 -0.26525361429E-01 -0.22750401166E-01 -0.42327206974E-01  0.54891065970E-01  0.51100000000E-03 0.  1.
         11    1    4    4    0    0 -0.22891611896E-01 -0.51304795132E-01 -0.53479345112E-01  0.77566161265E-01  0.51100000000E-03 0. -1.
</event>
<event>
 8    1  0.1094829E+005  0.1043930E+01  0.7957747E-01            NaN
         13   -1    0    0    0    0  0.00000000000E+00  0.00000000000E+00  0.74505805969E-08  0.10566000000E+00  0.10566000000E+00 0. -1.
     999900   -1    0    0    0    0 -0.00000000000E+00 -0.00000000000E+00 -0.74505805969E-08  0.93827000000E+00  0.93827000000E+00 0.  1.
     999902    2    1    2    0    0 -0.13578649822E-01  0.19882275661E-01 -0.55358898978E-02  0.10192251281E+01  0.10189256750E+01 0.  0.
     999903    2    3    3    0    0  0.10790285831E+00 -0.19337486454E-01 -0.63171043415E-01  0.12814838763E+00  0.20358372066E-01 0.  0.
         14    1    1    2    0    0  0.13578649822E-01 -0.19882275661E-01  0.55358898978E-02  0.24704871856E-01  0.00000000000E+00 0.  1.
     999901    1    3    3    0    0 -0.12148150813E+00  0.39219762115E-01  0.57635153517E-01  0.89107674051E+00  0.88000000000E+00 0. -1.
        -11    1    4    4    0    0  0.48566809979E-01  0.11006085296E-02 -0.30924147879E-01  0.57589151875E-01  0.51100000000E-03 0. -1.
         11    1    4    4    0    0  0.59336048331E-01 -0.20438094984E-01 -0.32246895536E-01  0.70559235759E-01  0.51100000000E-03 0.  1.
</event>
<event>
 8    1  0.1339460E+005  0.1043930E+01  0.7957747E-01            NaN
         13   -1    0    0    0    0  0.00000000000E+00  0.00000000000E+00  0.74505805969E-08  0.10566000000E+00  0.10566000000E+00 0. -1.
     999900   -1    0    0    0    0 -0.00000000000E+00 -0.00000000000E+00 -0.74505805969E-08  0.93827000000E+00  0.93827000000E+00 0. -1.
     999902    2    1    2    0    0 -0.98018909960E-02 -0.19166102907E-01  0.89266940955E-02  0.10206254417E+01  0.10203593435E+01 0.  0.
     999903    2    3    3    0    0  0.11853743826E+00 -0.49797926195E-01 -0.11324627624E-01  0.13055836110E+00  0.19654026049E-01 0.  0.
         14    1    1    2    0    0  0.98018909960E-02  0.19166102907E-01 -0.89266940955E-02  0.23304558250E-01  0.00000000000E+00 0.  1.
     999901    1    3    3    0    0 -0.12833932925E+00  0.30631823288E-01  0.20251321720E-01  0.89006708065E+00  0.88000000000E+00 0. -1.
        -11    1    4    4    0    0  0.65877577403E-01 -0.20940826875E-01  0.15424629369E-02  0.69144875064E-01  0.51100000000E-03 0.  1.
         11    1    4    4    0    0  0.52659860852E-01 -0.28857099321E-01 -0.12867090561E-01  0.61413486033E-01  0.51100000000E-03 0. -1.
</event>
<event>
 8    1  0.1094829E+005  0.1043930E+01  0.7957747E-01            NaN
         13   -1    0    0    0    0  0.00000000000E+00  0.00000000000E+00  0.74505805969E-08  0.10566000000E+00  0.10566000000E+00 0.  1.
     999900   -1    0    0    0    0 -0.00000000000E+00 -0.00000000000E+00 -0.74505805969E-08  0.93827000000E+00  0.93827000000E+00 0.  1.
     999902    2    1    2    0    0  0.26138890715E-01 -0.72286621453E-02  0.10481963225E-01  0.10148548092E+01  0.10144382274E+01 0.  0.
     999903    2    3    3    0    0  0.78328746822E-01  0.94626155142E-01  0.26873142056E-01  0.12729249840E+00  0.19791729854E-01 0.  0.
         14    1    1    2    0    0 -0.26138890715E-01  0.72286621453E-02 -0.10481963225E-01  0.29075190752E-01  0.00000000000E+00 0. -1.
     999901    1    3    3    0    0 -0.52189856107E-01 -0.10185481729E+00 -0.16391178832E-01  0.88756231084E+00  0.88000000000E+00 0.  1.
        -11    1    4    4    0    0  0.46452494844E-01  0.57700737676E-01  0.25978515962E-01  0.78500661260E-01  0.51100000000E-03 0.  1.
         11    1    4    4    0    0  0.31876251978E-01  0.36925417466E-01  0.89462609390E-03  0.48791837145E-01  0.51100000000E-03 0. -1.
</event>
<event>
 8    1  0.1094829E+005  0.1043930E+01  0.7957747E-01            NaN
         13   -1    0    0    0    0  0.00000000000E+00  0.00000000000E+00  0.74505805969E-08  0.10566000000E+00  0.10566000000E+00 0.  1.
     999900   -1    0    0    0    0 -0.00000000000E+00 -0.00000000000E+00 -0.74505805969E-08  0.93827000000E+00  0.93827000000E+00 0. -1.
     999902    2    1    2    0    0  0.42558035652E-02 -0.12516436674E-01 -0.12373485681E-02  0.10306520452E+01  0.10305665113E+01 0.  0.
     999903    2    3    3    0    0  0.13265347300E+00 -0.45797530324E-02  0.41848029730E-01  0.14025589617E+00  0.17393699463E-01 0.  0.
         14    1    1    2    0    0 -0.42558035652E-02  0.12516436674E-01  0.12373485681E-02  0.13277954755E-01  0.00000000000E+00 0.  1.
     999901    1    3    3    0    0 -0.12839766944E+00 -0.79366836411E-02 -0.43085378298E-01  0.89039614907E+00  0.88000000000E+00 0. -1.
        -11    1    4    4    0    0  0.42543529734E-01 -0.44000433921E-02  0.21510949427E-01  0.47877911090E-01  0.51100000000E-03 0. -1.
         11    1    4    4    0    0  0.90109943268E-01 -0.17970964034E-03  0.20337080303E-01  0.92377985081E-01  0.51100000000E-03 0.  1.
</event>
<event>
 8    1  0.1094829E+005  0.1043930E+01  0.7957747E-01            NaN
         13   -1    0    0    0    0  0.00000000000E+00  0.00000000000E+00  0.74505805969E-08  0.10566000000E+00  0.10566000000E+00 0.  1.
     999900   -1    0    0    0    0 -0.00000000000E+00 -0.00000000000E+00 -0.74505805969E-08  0.93827000000E+00  0.93827000000E+00 0.  1.
     999902    2    1    2    0    0  0.50505599482E-02 -0.22925970231E-01 -0.28186295978E-02  0.10202856996E+01  0.10200116940E+01 0.  0.
     999903    2    3    3    0    0 -0.38464805916E-01 -0.12576221000E+00  0.68885217556E-02  0.13317628809E+00  0.19819112468E-01 0.  0.
         14    1    1    2    0    0 -0.50505599482E-02  0.22925970231E-01  0.28186295978E-02  0.23644300363E-01  0.00000000000E+00 0.  1.
     999901    1    3    3    0    0  0.43515365864E-01  0.10283623977E+00 -0.97071513533E-02  0.88710941155E+00  0.88000000000E+00 0.  1.
        -11    1    4    4    0    0 -0.37913335212E-01 -0.96387147616E-01  0.40707769696E-02  0.10365681627E+00  0.51100000000E-03 0.  1.
         11    1    4    4    0    0 -0.55147070372E-03 -0.29375062381E-01  0.28177447860E-02  0.29519471819E-01  0.51100000000E-03 0. -1.
</event>
<event>
 8    1  0.1094829E+005  0.1043930E+01  0.7957747E-01            NaN
         13   -1    0    0    0    0  0.00000000000E+00  0.00000000000E+00  0.74505805969E-08  0.10566000000E+00  0.10566000000E+00 0.  1.
     999900   -1    0    0    0    0 -0.00000000000E+00 -0.00000000000E+00 -0.74505805969E-08  0.93827000000E+00  0.93827000000E+00 0. -1.
     999902    2    1    2    0    0 -0.29979472643E-03  0.23608637810E-01  0.27316050259E-02  0.10201619685E+01  0.10198850536E+01 0.  0.
     999903    2    3    3    0    0  0.10596711883E+00 -0.61658971880E-01  0.35089497192E-01  0.12908943756E+00  0.20048715442E-01 0.  0.
         14    1    1    2    0    0  0.29979472643E-03 -0.23608637810E-01 -0.27316050259E-02  0.23768031516E-01  0.00000000000E+00 0.  1.
     999901    1    3    3    0    0 -0.10626691355E+00  0.85267609690E-01 -0.32357892166E-01  0.89107253092E+00  0.88000000000E+00 0.  1.
        -11    1    4    4    0    0  0.71303338313E-01 -0.51715844882E-01  0.22801504554E-01  0.90988265164E-01  0.51100000000E-03 0.  1.
         11    1    4    4    0    0  0.34663780514E-01 -0.99431269970E-02  0.12287992638E-01  0.38101172398E-01  0.51100000000E-03 0. -1.
</event>
<event>
 8    1  0.1094829E+005  0.1043930E+01  0.7957747E-01            NaN
         13   -1    0    0    0    0  0.00000000000E+00  0.00000000000E+00  0.74505805969E-08  0.10566000000E+00  0.10566000000E+00 0. -1.
     999900   -1    0    0    0    0 -0.00000000000E+00 -0.00000000000E+00 -0.74505805969E-08  0.93827000000E+00  0.93827000000E+00 0. -1.
     999902    2    1    2    0    0 -0.55821883711E-02  0.96894450627E-02 -0.20612875313E-01  0.10204792686E+01  0.10202097828E+01 0.  0.
     999903    2    3    3    0    0  0.53938266526E-01  0.11743625982E+00 -0.16960759096E-01  0.13190434293E+00  0.20260222612E-01 0.  0.
         14    1    1    2    0    0  0.55821883711E-02 -0.96894450627E-02  0.20612875313E-01  0.23450731359E-01  0.00000000000E+00 0. -1.
     999901    1    3    3    0    0 -0.59520454897E-01 -0.10774681475E+00 -0.36521162170E-02  0.88857492571E+00  0.88000000000E+00 0.  1.
        -11    1    4    4    0    0  0.49156226367E-01  0.10778746389E+00 -0.21143834738E-01  0.12034032920E+00  0.51100000000E-03 0. -1.
         11    1    4    4    0    0  0.47820401593E-02  0.96487959231E-02  0.41830756421E-02  0.11564013736E-01  0.51100000000E-03 0.  1.
</event>
<event>
 8    1  0.1094829E+005  0.1043930E+01  0.7957747E-01            NaN
         13   -1    0    0    0    0  0.00000000000E+00  0.00000000000E+00  0.74505805969E-08  0.10566000000E+00  0.10566000000E+00 0.  1.
     999900   -1    0    0    0    0 -0.00000000000E+00 -0.00000000000E+00 -0.74505805969E-08  0.93827000000E+00  0.93827000000E+00 0.  1.
     999902    2    1    2    0    0  0.16126075570E-01  0.17607299305E-01 -0.44184947384E-02  0.10196485174E+01  0.10193593619E+01 0.  0.
     999903    2    3    3    0    0  0.74837266791E-01  0.10297482380E+00 -0.33964994258E-01  0.13307781302E+00  0.18752403728E-01 0.  0.
         14    1    1    2    0    0 -0.16126075570E-01 -0.17607299305E-01  0.44184947384E-02  0.24281482613E-01  0.00000000000E+00 0. -1.
     999901    1    3    3    0    0 -0.58711191221E-01 -0.85367524493E-01  0.29546499520E-01  0.88657070437E+00  0.88000000000E+00 0. -1.
        -11    1    4    4    0    0  0.32270648387E-01  0.60151733964E-01 -0.16713260578E-01  0.70279584848E-01  0.51100000000E-03 0. -1.
         11    1    4    4    0    0  0.42566618405E-01  0.42823089834E-01 -0.17251733680E-01  0.62798228170E-01  0.51100000000E-03 0.  1.
</event>
<event>
 8    1  0.1094829E+005  0.1043930E+01  0.7957747E-01            NaN
         13   -1    0    0    0    0  0.00000000000E+00  0.00000000000E+00  0.74505805969E-08  0.10566000000E+00  0.10566000000E+00 0. -1.
     999900   -1    0    0    0    0 -0.00000000000E+00 -0.00000000000E+00 -0.74505805969E-08  0.93827000000E+00  0.93827000000E+00 0. -1.
     999902    2    1    2    0    0  0.56625413482E-02 -0.42958779925E-03 -0.22813228870E-01  0.10204205906E+01  0.10201497387E+01 0.  0.
     999903    2    3    3    0    0  0.53002411090E-01  0.58631295553E-01  0.99596891603E-01  0.12872922648E+00  0.20119357162E-01 0.  0.
         14    1    1    2    0    0 -0.56625413482E-02  0.42958779925E-03  0.22813228870E-01  0.23509409428E-01  0.00000000000E+00 0. -1.
     999901    1    3    3    0    0 -0.47339869742E-01 -0.59060883352E-01 -0.12241012047E+00  0.89169136410E+00  0.88000000000E+00 0. -1.
        -11    1    4    4    0    0  0.44277316798E-01  0.57538440655E-01  0.86291083688E-01  0.11277218266E+00  0.51100000000E-03 0.  1.
         11    1    4    4    0    0  0.87250942916E-02  0.10928548980E-02  0.13305807914E-01  0.15957043820E-01  0.51100000000E-03 0. -1.
</event>
<event>
 8    1  0.1094829E+005  0.1043930E+01  0.7957747E-01            NaN
         13   -1    0    0    0    0  0.00000000000E+00  0.00000000000E+00  0.74505805969E-08  0.10566000000E+00  0.10566000000E+00 0.  1.
     999900   -1    0    0    0    0 -0.00000000000E+00 -0.00000000000E+00 -0.74505805969E-08  0.93827000000E+00  0.93827000000E+00 0. -1.
     999902    2    1    2    0    0  0.17841957090E-01  0.20165329562E-02  0.11537650119E-01  0.10225871040E+01  0.10223643510E+01 0.  0.
     999903    2    3    3    0    0 -0.82295567160E-01  0.98591317972E-01 -0.17372793350E-01  0.13118931034E+00  0.20396392930E-01 0.  0.
         14    1    1    2    0    0 -0.17841957090E-01 -0.20165329562E-02 -0.11537650119E-01  0.21342895966E-01  0.00000000000E+00 0. -1.
     999901    1    3    3    0    0  0.10013752425E+00 -0.96574785016E-01  0.28910443469E-01  0.89139779370E+00  0.88000000000E+00 0.  1.
        -11    1    4    4    0    0 -0.35103668549E-01  0.57614572500E-01 -0.11077656833E-01  0.68371646988E-01  0.51100000000E-03 0.  1.
         11    1    4    4    0    0 -0.47191898611E-01  0.40976745472E-01 -0.62951365176E-02  0.62817663350E-01  0.51100000000E-03 0. -1.
</event>
<event>
 7    1  0.1094829E+005  0.1043930E+01  0.7957747E-01            NaN
         13   -1    0    0    0    0  0.00000000000E+00  0.00000000000E+00  0.74505805969E-08  0.10566000000E+00  0.10566000000E+00 0.  1.
     999900   -1    0    0    0    0 -0.00000000000E+00 -0.00000000000E+00 -0.74505805969E-08  0.93827000000E+00  0.93827000000E+00 0. -1.
     999903    2    1    2    0    0 -0.27381648945E-01  0.11919789515E-01 -0.90359278168E-01  0.97251224844E-01  0.20029116343E-01 0.  0.
         14    1    1    2    0    0 -0.40579298024E-01 -0.16774733014E-01  0.45010321624E-01  0.62880840870E-01  0.00000000000E+00 0.  1.
     999901    1    1    2    0    0  0.67960946969E-01  0.48549434988E-02  0.45348956545E-01  0.88379793429E+00  0.88000000000E+00 0.  1.
        -11    1    3    3    0    0 -0.29236966485E-01  0.63365593665E-02 -0.78347056331E-01  0.83865812765E-01  0.51100000000E-03 0. -1.
         11    1    3    3    0    0  0.18553175403E-02  0.55832301488E-02 -0.12012221837E-01  0.13385412079E-01  0.51100000000E-03 0.  1.
</event>
<event>
 7    1  0.1094829E+005  0.1043930E+01  0.7957747E-01            NaN
         13   -1    0    0    0    0  0.00000000000E+00  0.00000000000E+00  0.74505805969E-08  0.10566000000E+00  0.10566000000E+00 0.  1.
     999900   -1    0    0    0    0 -0.00000000000E+00 -0.00000000000E+00 -0.74505805969E-08  0.93827000000E+00  0.93827000000E+00 0. -1.
     999903    2    1    2    0    0  0.12394683603E-01  0.56673445082E-03  0.10333216965E+00  0.10602939217E+00  0.20266853508E-01 0.  0.
         14    1    1    2    0    0 -0.47023870858E-01 -0.17145095438E-01 -0.16922327226E-01  0.52835252311E-01  0.00000000000E+00 0. -1.
     999901    1    1    2    0    0  0.34629187255E-01  0.16578360987E-01 -0.86409842423E-01  0.88506535551E+00  0.88000000000E+00 0. -1.
        -11    1    3    3    0    0 -0.16710131574E-02  0.74707092846E-02  0.43841411496E-01  0.44507687708E-01  0.51100000000E-03 0.  1.
         11    1    3    3    0    0  0.14065696761E-01 -0.69039748338E-02  0.59490758153E-01  0.61521704467E-01  0.51100000000E-03 0. -1.
</event>
<event>
 8    1  0.1094829E+005  0.1043930E+01  0.7957747E-01            NaN
         13   -1    0    0    0    0  0.00000000000E+00  0.00000000000E+00  0.74505805969E-08  0.10566000000E+00  0.10566000000E+00 0.  1.
     999900   -1    0    0    0    0 -0.00000000000E+00 -0.00000000000E+00 -0.74505805969E-08  0.93827000000E+00  0.93827000000E+00 0.  1.
     999902    2    1    2    0    0  0.22116327198E-01  0.16110146115E-03 -0.11905513921E-01  0.10188122942E+01  0.10185026223E+01 0.  0.
     999903    2    3    3    0    0 -0.12534649546E-01  0.12319750059E-01 -0.12675441462E+00  0.13059002872E+00  0.26041894968E-01 0.  0.
         14    1    1    2    0    0 -0.22116327198E-01 -0.16110146115E-03  0.11905513921E-01  0.25117705789E-01  0.00000000000E+00 0.  1.
     999901    1    3    3    0    0  0.34650976743E-01 -0.12158648598E-01  0.11484890070E+00  0.88822226549E+00  0.88000000000E+00 0. -1.
        -11    1    4    4    0    0 -0.20397554171E-01  0.89266490529E-02 -0.79379193445E-01  0.82444300910E-01  0.51100000000E-03 0. -1.
         11    1    4    4    0    0  0.78629046254E-02  0.33931010063E-02 -0.47375221177E-01  0.48145727808E-01  0.51100000000E-03 0.  1.
</event>
<event>
 8    1  0.1094829E+005  0.1043930E+01  0.7957747E-01            NaN
         13   -1    0    0    0    0  0.00000000000E+00  0.00000000000E+00  0.74505805969E-08  0.10566000000E+00  0.10566000000E+00 0.  1.
     999900   -1    0    0    0    0 -0.00000000000E+00 -0.00000000000E+00 -0.74505805969E-08  0.93827000000E+00  0.93827000000E+00 0.  1.
     999902    2    1    2    0    0 -0.11510515860E-01  0.18935301539E-01 -0.81470374308E-02  0.10203204291E+01  0.10200472372E+01 0.  0.
     999903    2    3    3    0    0 -0.82501851927E-01 -0.97873273368E-01  0.44689172660E-02  0.12967842734E+00  0.20267957078E-01 0.  0.
         14    1    1    2    0    0  0.11510515860E-01 -0.18935301539E-01  0.81470374308E-02  0.23609570912E-01  0.00000000000E+00 0.  1.
     999901    1    3    3    0    0  0.70991336067E-01  0.11680857491E+00 -0.12615954697E-01  0.89064200175E+00  0.88000000000E+00 0.  1.
        -11    1    4    4    0    0 -0.14921721850E-01 -0.31586251567E-01  0.11918699965E-02  0.34957556353E-01  0.51100000000E-03 0. -1.
         11    1    4    4    0    0 -0.67580130077E-01 -0.66287021801E-01  0.32770472694E-02  0.94720870985E-01  0.51100000000E-03 0.  1.
</event>
<event>
 8    1  0.1094829E+005  0.1043930E+01  0.7957747E-01            NaN
         13   -1    0    0    0    0  0.00000000000E+00  0.00000000000E+00  0.74505805969E-08  0.10566000000E+00  0.10566000000E+00 0. -1.
     999900   -1    0    0    0    0 -0.00000000000E+00 -0.00000000000E+00 -0.74505805969E-08  0.93827000000E+00  0.93827000000E+00 0.  1.
     999902    2    1    2    0    0 -0.20043189029E-01  0.95039068896E-02  0.80803489468E-02  0.10203218296E+01  0.10200486705E+01 0.  0.
     999903    2    3    3    0    0 -0.38642632946E-01 -0.12079734975E+00  0.23009166772E-01  0.13040766156E+00  0.19785945759E-01 0.  0.
         14    1    1    2    0    0  0.20043189029E-01 -0.95039068896E-02 -0.80803489468E-02  0.23608170444E-01  0.00000000000E+00 0. -1.
     999901    1    3    3    0    0  0.18599443917E-01  0.13030125664E+00 -0.14928817826E-01  0.88991416800E+00  0.88000000000E+00 0.  1.
        -11    1    4    4    0    0  0.21768303589E-02 -0.64694019635E-02  0.25150974577E-02  0.72923650758E-02  0.51100000000E-03 0.  1.
         11    1    4    4    0    0 -0.40819463305E-01 -0.11432794779E+00  0.20494069315E-01  0.12311529648E+00  0.51100000000E-03 0. -1.
</event>
<event>
 8    1  0.1094829E+005  0.1043930E+01  0.7957747E-01            NaN
         13   -1    0    0    0    0  0.00000000000E+00  0.00000000000E+00  0.74505805969E-08  0.10566000000E+00  0.10566000000E+00 0.  1.
     999900   -1    0    0    0    0 -0.00000000000E+00 -0.00000000000E+00 -0.74505805969E-08  0.93827000000E+00  0.93827000000E+00 0.  1.
     999902    2    1    2    0    0  0.12699757427E-01 -0.19839004977E-01  0.21312734412E-02  0.10202781019E+01  0.10200039181E+01 0.  0.
     999903    2    3    3    0    0 -0.83572536807E-01 -0.92800051621E-01 -0.34804768754E-01  0.13125845073E+00  0.20522925464E-01 0.  0.
         14    1    1    2    0    0 -0.12699757427E-01  0.19839004977E-01 -0.21312734412E-02  0.23651898099E-01  0.00000000000E+00 0.  1.
     999901    1    3    3    0    0  0.96272294233E-01  0.72961046644E-01  0.36936042195E-01  0.88901965118E+00  0.88000000000E+00 0. -1.
        -11    1    4    4    0    0 -0.48672246833E-01 -0.40331550342E-01 -0.12698817097E-01  0.64475907449E-01  0.51100000000E-03 0. -1.
         11    1    4    4    0    0 -0.34900289974E-01 -0.52468501279E-01 -0.22105951657E-01  0.66782543276E-01  0.51100000000E-03 0.  1.
</event>
<event>
 8    1  0.1094829E+005  0.1043930E+01  0.7957747E-01            NaN
         13   -1    0    0    0    0  0.00000000000E+00  0.00000000000E+00  0.74505805969E-08  0.10566000000E+00  0.10566000000E+00 0.  1.
     999900   -1    0    0    0    0 -0.00000000000E+00 -0.00000000000E+00 -0.74505805969E-08  0.93827000000E+00  0.93827000000E+00 0.  1.
     999902    2    1    2    0    0  0.14209925047E-01  0.12278197258E-01 -0.14514139913E-01  0.10201952922E+01  0.10199191624E+01 0.  0.
     999903    2    3    3    0    0 -0.11591881149E+00 -0.42192612748E-01  0.25776675198E-01  0.12804961630E+00  0.22690963438E-01 0.  0.
         14    1    1    2    0    0 -0.14209925047E-01 -0.12278197258E-01  0.14514139913E-01  0.23734707817E-01  0.00000000000E+00 0.  1.
     999901    1    3    3    0    0  0.13012873654E+00  0.54470810006E-01 -0.40290815111E-01  0.89214567588E+00  0.88000000000E+00 0.  1.
        -11    1    4    4    0    0 -0.51041035259E-01 -0.15144662982E-01  0.18341391989E-03  0.53243242377E-01  0.51100000000E-03 0.  1.
         11    1    4    4    0    0 -0.64877776234E-01 -0.27047949766E-01  0.25593261278E-01  0.74806373922E-01  0.51100000000E-03 0. -1.
</event>
<event>
 8    1  0.1094829E+005  0.1043930E+01  0.7957747E-01            NaN
         13   -1    0    0    0    0  0.00000000000E+00  0.00000000000E+00  0.74505805969E-08  0.10566000000E+00  0.10566000000E+00 0.  1.
     999900   -1    0    0    0    0 -0.00000000000E+00 -0.00000000000E+00 -0.74505805969E-08  0.93827000000E+00  0.93827000000E+00 0. -1.
     999902    2    1    2    0    0 -0.89946144825E-02  0.18570014349E-01 -0.10812634998E-01  0.10206349018E+01  0.10203690221E+01 0.  0.
     999903    2    3    3    0    0 -0.64917185187E-01 -0.10458454369E+00 -0.36702736904E-01  0.12992469282E+00  0.19523503700E-01 0.  0.
         14    1    1    2    0    0  0.89946144825E-02 -0.18570014349E-01  0.10812634998E-01  0.23295098159E-01  0.00000000000E+00 0.  1.
     999901    1    3    3    0    0  0.55922570704E-01  0.12315455804E+00  0.25890101906E-01  0.89071020902E+00  0.88000000000E+00 0.  1.
        -11    1    4    4    0    0 -0.22670669223E-01 -0.23055069619E-01 -0.46813084214E-02  0.32675239061E-01  0.51100000000E-03 0.  1.
         11    1    4    4    0    0 -0.42246515964E-01 -0.81529474070E-01 -0.32021428483E-01  0.97249453758E-01  0.51100000000E-03 0. -1.
</event>
<event>
 8    1  0.1094829E+005  0.1043930E+01  0.7957747E-01            NaN
         13   -1    0    0    0    0  0.00000000000E+00  0.00000000000E+00  0.74505805969E-08  0.10566000000E+00  0.10566000000E+00 0.  1.
     999900   -1    0    0    0    0 -0.00000000000E+00 -0.00000000000E+00 -0.74505805969E-08  0.93827000000E+00  0.93827000000E+00 0. -1.
     999902    2    1    2    0    0  0.14525905279E-01 -0.14718172373E-02  0.19585860598E-01  0.10195010396E+01  0.10192083181E+01 0.  0.
     999903    2    3    3    0    0  0.16432982306E-01 -0.54554962139E-01  0.11792932827E+00  0.13243120310E+00  0.19606383816E-01 0.  0.
         14    1    1    2    0    0 -0.14525905279E-01  0.14718172373E-02 -0.19585860598E-01  0.24428960386E-01  0.00000000000E+00 0. -1.
     999901    1    3    3    0    0 -0.19070770275E-02  0.53083144902E-01 -0.98343467676E-01  0.88706983651E+00  0.88000000000E+00 0. -1.
        -11    1    4    4    0    0  0.65669166788E-02 -0.75820411731E-02  0.36987124531E-01  0.38326495341E-01  0.51100000000E-03 0.  1.
         11    1    4    4    0    0  0.98660656276E-02 -0.46972920966E-01  0.80942203743E-01  0.94104707761E-01  0.51100000000E-03 0. -1.
</event>
<event>
 8    1  0.1094829E+005  0.1043930E+01  0.7957747E-01            NaN
         13   -1    0    0    0    0  0.00000000000E+00  0.00000000000E+00  0.74505805969E-08  0.10566000000E+00  0.10566000000E+00 0.  1.
     999900   -1    0    0    0    0 -0.00000000000E+00 -0.00000000000E+00 -0.74505805969E-08  0.93827000000E+00  0.93827000000E+00 0. -1.
     999902    2    1    2    0    0 -0.17028516108E-01  0.13509357902E-01  0.65976784640E-02  0.10212143122E+01  0.10209616393E+01 0.  0.
     999903    2    3    3    0    0 -0.73636266434E-01 -0.10665015988E+00 -0.27272332603E-02  0.13119762634E+00  0.20219372329E-01 0.  0.
         14    1    1    2    0    0  0.17028516108E-01 -0.13509357902E-01 -0.65976784640E-02  0.22715687814E-01  0.00000000000E+00 0. -1.
     999901    1    3    3    0    0  0.56607750326E-01  0.12015951779E+00  0.93249117243E-02  0.89001668585E+00  0.88000000000E+00 0.  1.
        -11    1    4    4    0    0 -0.43794095900E-01 -0.46208856966E-01 -0.38024031081E-02  0.63780096333E-01  0.51100000000E-03 0. -1.
         11    1    4    4    0    0 -0.29842170535E-01 -0.60441302918E-01  0.10751698478E-02  0.67417530004E-01  0.51100000000E-03 0.  1.
</event>
<event>
 8    1  0.1094829E+005  0.1043930E+01  0.7957747E-01            NaN
         13   -1    0    0    0    0  0.00000000000E+00  0.00000000000E+00  0.74505805969E-08  0.10566000000E+00  0.10566000000E+00 0.  1.
     999900   -1    0    0    0    0 -0.00000000000E+00 -0.00000000000E+00 -0.74505805969E-08  0.93827000000E+00  0.93827000000E+00 0. -1.
     999902    2    1    2    0    0 -0.10592739996E-01  0.17786890279E-01 -0.10174018268E-01  0.10208629184E+01  0.10206022770E+01 0.  0.
     999903    2    3    3    0    0 -0.42176045000E-01  0.69624590729E-01  0.10115257918E+00  0.13177447304E+00  0.22500334809E-01 0.  0.
         14    1    1    2    0    0  0.10592739996E-01 -0.17786890279E-01  0.10174018268E-01  0.23067081613E-01  0.00000000000E+00 0.  1.
     999901    1    3    3    0    0  0.31583305004E-01 -0.51837700450E-01 -0.11132659744E+00  0.88908844534E+00  0.88000000000E+00 0. -1.
        -11    1    4    4    0    0 -0.38379451864E-01  0.45392927240E-01  0.64998151742E-01  0.88082467152E-01  0.51100000000E-03 0. -1.
         11    1    4    4    0    0 -0.37965931354E-02  0.24231663489E-01  0.36154427433E-01  0.43692005893E-01  0.51100000000E-03 0.  1.
</event>
<event>
 8    1  0.1094829E+005  0.1043930E+01  0.7957747E-01            NaN
         13   -1    0    0    0    0  0.00000000000E+00  0.00000000000E+00  0.74505805969E-08  0.10566000000E+00  0.10566000000E+00 0.  1.
     999900   -1    0    0    0    0 -0.00000000000E+00 -0.00000000000E+00 -0.74505805969E-08  0.93827000000E+00  0.93827000000E+00 0.  1.
     999902    2    1    2    0    0  0.19667642177E-01  0.52359734980E-02  0.51819759949E-03  0.10235707246E+01  0.10233682270E+01 0.  0.
     999903    2    3    3    0    0  0.22545977931E-01 -0.12059620703E+00  0.47938748650E-01  0.13335123976E+00  0.20800558953E-01 0.  0.
         14    1    1    2    0    0 -0.19667642177E-01 -0.52359734980E-02 -0.51819759949E-03  0.20359275430E-01  0.00000000000E+00 0.  1.
     999901    1    3    3    0    0 -0.28783357536E-02  0.12583218053E+00 -0.47420551051E-01  0.89021948481E+00  0.88000000000E+00 0. -1.
        -11    1    4    4    0    0  0.24392416190E-01 -0.81031189253E-01  0.29098022479E-01  0.89487427232E-01  0.51100000000E-03 0.  1.
         11    1    4    4    0    0 -0.18464382597E-02 -0.39565017777E-01  0.18840726171E-01  0.43863812529E-01  0.51100000000E-03 0. -1.
</event>
<event>
 8    1  0.1094829E+005  0.1043930E+01  0.7957747E-01            NaN
         13   -1    0    0    0    0  0.00000000000E+00  0.00000000000E+00  0.74505805969E-08  0.10566000000E+00  0.10566000000E+00 0. -1.
     999900   -1    0    0    0    0 -0.00000000000E+00 -0.00000000000E+00 -0.74505805969E-08  0.93827000000E+00  0.93827000000E+00 0. -1.
     999902    2    1    2    0    0  0.19841157356E-01  0.89926097900E-02 -0.81715348719E-02  0.10206638757E+01  0.10203986646E+01 0.  0.
     999903    2    3    3    0    0 -0.98990140428E-03 -0.63423639395E-01  0.11114698991E+00  0.12942038683E+00  0.19298839947E-01 0.  0.
         14    1    1    2    0    0 -0.19841157356E-01 -0.89926097900E-02  0.81715348719E-02  0.23266124263E-01  0.00000000000E+00 0.  1.
     999901    1    3    3    0    0  0.20831058761E-01  0.72416249185E-01 -0.11931852478E+00  0.89124348890E+00  0.88000000000E+00 0. -1.
        -11    1    4    4    0    0  0.35563479067E-02 -0.37089436551E-01  0.80814574474E-01  0.88991743901E-01  0.51100000000E-03 0. -1.
         11    1    4    4    0    0 -0.45462493110E-02 -0.26334202844E-01  0.30332415436E-01  0.40428642933E-01  0.51100000000E-03 0.  1.
</event>
<event>
 8    1  0.1094829E+005  0.1043930E+01  0.7957747E-01            NaN
         13   -1    0    0    0    0  0.00000000000E+00  0.00000000000E+00  0.74505805969E-08  0.10566000000E+00  0.10566000000E+00 0.  1.
     999900   -1    0    0    0    0 -0.00000000000E+00 -0.00000000000E+00 -0.74505805969E-08  0.93827000000E+00  0.93827000000E+00 0.  1.
     999902    2    1    2    0    0 -0.11915864779E-01  0.95459560358E-03  0.22754709900E-01  0.10182263834E+01  0.10179019068E+01 0.  0.
     999903    2    3    3    0    0  0.85572557727E-01  0.10586194764E-01 -0.89246096976E-01  0.12573495988E+00  0.20240656007E-01 0.  0.
         14    1    1    2    0    0  0.11915864779E-01 -0.95459560358E-03 -0.22754709900E-01  0.25703616649E-01  0.00000000000E+00 0. -1.
     999901    1    3    3    0    0 -0.97488422506E-01 -0.96315991605E-02  0.11200080688E+00  0.89249142347E+00  0.88000000000E+00 0. -1.
        -11    1    4    4    0    0  0.54102314933E-01  0.12617349806E-02 -0.66782076749E-01  0.85957892902E-01  0.51100000000E-03 0. -1.
         11    1    4    4    0    0  0.31470242794E-01  0.93244597834E-02 -0.22464020227E-01  0.39777066980E-01  0.51100000000E-03 0.  1.
</event>
<event>
 8    1  0.1094829E+005  0.1043930E+01  0.7957747E-01            NaN
         13   -1    0    0    0    0  0.00000000000E+00  0.00000000000E+00  0.74505805969E-08  0.10566000000E+00  0.10566000000E+00 0. -1.
     999900   -1    0    0    0    0 -0.00000000000E+00 -0.00000000000E+00 -0.74505805969E-08  0.93827000000E+00  0.93827000000E+00 0.  1.
     999902    2    1    2    0    0 -0.23259014767E-01  0.33570340846E-02  0.10495448540E-02  0.10204065438E+01  0.10201353644E+01 0.  0.
     999903    2    3    3    0    0  0.64948522401E-01  0.45849791999E-01 -0.99934152589E-01  0.12923657618E+00  0.19868159981E-01 0.  0.
         14    1    1    2    0    0  0.23259014767E-01 -0.33570340846E-02 -0.10495448540E-02  0.23523456170E-01  0.00000000000E+00 0.  1.
     999901    1    3    3    0    0 -0.88207537168E-01 -0.42492757915E-01  0.10098369744E+00  0.89116996765E+00  0.88000000000E+00 0. -1.
        -11    1    4    4    0    0  0.30823619653E-01  0.14303474126E-01 -0.54600079320E-01  0.64312632378E-01  0.51100000000E-03 0. -1.
         11    1    4    4    0    0  0.34124902747E-01  0.31546317873E-01 -0.45334073269E-01  0.64923943803E-01  0.51100000000E-03 0.  1.
</event>
<event>
 8    1  0.1094829E+005  0.1043930E+01  0.7957747E-01            NaN
         13   -1    0    0    0    0  0.00000000000E+00  0.00000000000E+00  0.74505805969E-08  0.10566000000E+00  0.10566000000E+00 0. -1.
     999900   -1    0    0    0    0 -0.00000000000E+00 -0.00000000000E+00 -0.74505805969E-08  0.93827000000E+00  0.93827000000E+00 0. -1.
     999902    2    1    2    0    0 -0.23398934832E-01  0.49058382758E-02 -0.34296970821E-02  0.10197775628E+01  0.10194915092E+01 0.  0.
     999903    2    3    3    0    0  0.14581279904E-01  0.11982686204E+00 -0.46755374717E-01  0.13043710338E+00  0.16021307166E-01 0.  0.
         14    1    1    2    0    0  0.23398934832E-01 -0.49058382758E-02  0.34296970821E-02  0.24152437197E-01  0.00000000000E+00 0.  1.
     999901    1    3    3    0    0 -0.37980214737E-01 -0.11492102377E+00  0.43325677635E-01  0.88934045942E+00  0.88000000000E+00 0.  1.
        -11    1    4    4    0    0  0.28243335677E-02  0.65317556060E-01 -0.18642816943E-01  0.67986584958E-01  0.51100000000E-03 0. -1.
         11    1    4    4    0    0  0.11756946337E-01  0.54509305985E-01 -0.28112557774E-01  0.62450518426E-01  0.51100000000E-03 0.  1.
</event>
<event>
 8    1  0.1094829E+005  0.1043930E+01  0.7957747E-01            NaN
         13   -1    0    0    0    0  0.00000000000E+00  0.00000000000E+00  0.74505805969E-08  0.10566000000E+00  0.10566000000E+00 0.  1.
     999900   -1    0    0    0    0 -0.00000000000E+00 -0.00000000000E+00 -0.74505805969E-08  0.93827000000E+00  0.93827000000E+00 0. -1.
     999902    2    1    2    0    0  0.49858637543E-02  0.21581565054E-01  0.95569151242E-02  0.10198062065E+01  0.10195208391E+01 0.  0.
     999903    2    3    3    0    0  0.68780470246E-01  0.71442794184E-01  0.85913424322E-01  0.13279650501E+00  0.20468740465E-01 0.  0.
         14    1    1    2    0    0 -0.49858637543E-02 -0.21581565054E-01 -0.95569151242E-02  0.24123793529E-01  0.00000000000E+00 0. -1.
     999901    1    3    3    0    0 -0.63794606491E-01 -0.49861229130E-01 -0.76356509198E-01  0.88700970146E+00  0.88000000000E+00 0. -1.
        -11    1    4    4    0    0  0.34127330562E-01  0.23812495371E-01  0.27784196907E-01  0.50039308007E-01  0.51100000000E-03 0. -1.
         11    1    4    4    0    0  0.34653139684E-01  0.47630298813E-01  0.58129227415E-01  0.82757197003E-01  0.51100000000E-03 0.  1.
</event>
<event>
 8    1  0.1094829E+005  0.1043930E+01  0.7957747E-01            NaN
         13   -1    0    0    0    0  0.00000000000E+00  0.00000000000E+00  0.74505805969E-08  0.10566000000E+00  0.10566000000E+00 0. -1.
     999900   -1    0    0    0    0 -0.00000000000E+00 -0.00000000000E+00 -0.74505805969E-08  0.93827000000E+00  0.93827000000E+00 0. -1.
     999902    2    1    2    0    0 -0.17169230924E-01 -0.25453367769E-03 -0.15586267894E-02  0.10266882891E+01  0.10265435044E+01 0.  0.
     999903    2    3    3    0    0 -0.10333522905E+00 -0.67901531357E-01  0.57703231250E-01  0.13791797941E+00  0.20072833004E-01 0.  0.
         14    1    1    2    0    0  0.17169230924E-01  0.25453367769E-03  0.15586267894E-02  0.17241710918E-01  0.00000000000E+00 0.  1.
     999901    1    3    3    0    0  0.86165998129E-01  0.67646997679E-01 -0.59261858040E-01  0.88877030967E+00  0.88000000000E+00 0.  1.
        -11    1    4    4    0    0 -0.87274749546E-01 -0.63474146717E-01  0.44830802082E-01  0.11685850909E+00  0.51100000000E-03 0.  1.
         11    1    4    4    0    0 -0.16060479507E-01 -0.44273846400E-02  0.12872429168E-01  0.21059470326E-01  0.51100000000E-03 0. -1.
</event>
<event>
 7    1  0.1094829E+005  0.1043930E+01  0.7957747E-01            NaN
         13   -1    0    0    0    0  0.00000000000E+00  0.00000000000E+00  0.74505805969E-08  0.10566000000E+00  0.10566000000E+00 0.  1.
     999900   -1    0    0    0    0 -0.00000000000E+00 -0.00000000000E+00 -0.74505805969E-08  0.93827000000E+00  0.93827000000E+00 0. -1.
     999902    2    1    2    0    0 -0.45555202631E-02  0.14498361195E-01  0.17461775491E-01  0.10207811589E+01  0.10205186453E+01 0.  0.
         14    1    1    2    0    0  0.45555202631E-02 -0.14498361195E-01 -0.17461775491E-01  0.23148841127E-01  0.00000000000E+00 0. -1.
     999901    1    3    3    0    0 -0.10033212501E+00  0.15660096735E-01  0.93838318547E-01  0.89079593845E+00  0.88000000000E+00 0.  1.
        -11    1    3    3    0    0  0.73212628575E-01 -0.18621570303E-01 -0.63462567325E-01  0.98664129428E-01  0.51100000000E-03 0.  1.
         11    1    3    3    0    0  0.22563976172E-01  0.17459834763E-01 -0.12913975732E-01  0.31321090991E-01  0.51100000000E-03 0. -1.
</event>
<event>
 8    1  0.1094829E+005  0.1043930E+01  0.7957747E-01            NaN
         13   -1    0    0    0    0  0.00000000000E+00  0.00000000000E+00  0.74505805969E-08  0.10566000000E+00  0.10566000000E+00 0.  1.
     999900   -1    0    0    0    0 -0.00000000000E+00 -0.00000000000E+00 -0.74505805969E-08  0.93827000000E+00  0.93827000000E+00 0.  1.
     999902    2    1    2    0    0 -0.18038553564E-01 -0.16138491823E-01  0.38484413090E-02  0.10194218211E+01  0.10191271748E+01 0.  0.
     999903    2    3    3    0    0 -0.46976247014E-01  0.11690895643E+00  0.17930635666E-01  0.12883924671E+00  0.20089099559E-01 0.  0.
         14    1    1    2    0    0  0.18038553564E-01  0.16138491823E-01 -0.38484413090E-02  0.24508178910E-01  0.00000000000E+00 0.  1.
     999901    1    3    3    0    0  0.28937693450E-01 -0.13304744825E+00 -0.14082194357E-01  0.89058257438E+00  0.88000000000E+00 0. -1.
        -11    1    4    4    0    0 -0.15582171844E-01  0.34634852565E-01 -0.36938390170E-02  0.38161271719E-01  0.51100000000E-03 0. -1.
         11    1    4    4    0    0 -0.31394075170E-01  0.82274103864E-01  0.21624474683E-01  0.90677974992E-01  0.51100000000E-03 0.  1.
</event>
<event>
 8    1  0.1094829E+005  0.1043930E+01  0.7957747E-01            NaN
         13   -1    0    0    0    0  0.00000000000E+00  0.00000000000E+00  0.74505805969E-08  0.10566000000E+00  0.10566000000E+00 0.  1.
     999900   -1    0    0    0    0 -0.00000000000E+00 -0.00000000000E+00 -0.74505805969E-08  0.93827000000E+00  0.93827000000E+00 0.  1.
     999902    2    1    2    0    0  0.18637200578E-01 -0.25846661025E-02 -0.13804906374E-01  0.10205933082E+01  0.10203264671E+01 0.  0.
     999903    2    3    3    0    0 -0.61721175553E-01  0.93595910036E-01  0.59683590916E-01  0.12868034660E+00  0.20659203475E-01 0.  0.
         14    1    1    2    0    0 -0.18637200578E-01  0.25846661025E-02  0.13804906374E-01  0.23336691802E-01  0.00000000000E+00 0.  1.
     999901    1    3    3    0    0  0.80358376131E-01 -0.96180576139E-01 -0.73488497290E-01  0.89191296160E+00  0.88000000000E+00 0.  1.
        -11    1    4    4    0    0 -0.30696163954E-01  0.59334098548E-01  0.26937980842E-01  0.72032670816E-01  0.51100000000E-03 0. -1.
         11    1    4    4    0    0 -0.31025011598E-01  0.34261811488E-01  0.32745610074E-01  0.56647675780E-01  0.51100000000E-03 0.  1.
</event>
<event>
 8    1  0.1094829E+005  0.1043930E+01  0.7957747E-01            NaN
         13   -1    0    0    0    0  0.00000000000E+00  0.00000000000E+00  0.74505805969E-08  0.10566000000E+00  0.10566000000E+00 0.  1.
     999900   -1    0    0    0    0 -0.00000000000E+00 -0.00000000000E+00 -0.74505805969E-08  0.93827000000E+00  0.93827000000E+00 0. -1.
     999902    2    1    2    0    0  0.22479426381E-02  0.21191015637E-01 -0.79558074245E-02  0.10211834121E+01  0.10209300436E+01 0.  0.
     999903    2    3    3    0    0 -0.10309699464E+00 -0.13042280430E-01 -0.78133653575E-01  0.13146749987E+00  0.19487029485E-01 0.  0.
         14    1    1    2    0    0 -0.22479426381E-02 -0.21191015637E-01  0.79558074245E-02  0.22746587912E-01  0.00000000000E+00 0.  1.
     999901    1    3    3    0    0  0.10534493728E+00  0.34233296067E-01  0.70177846150E-01  0.88971591222E+00  0.88000000000E+00 0.  1.
        -11    1    4    4    0    0 -0.88494694303E-01 -0.78621718278E-02 -0.58179167206E-01  0.10619887609E+00  0.51100000000E-03 0. -1.
         11    1    4    4    0    0 -0.14602300336E-01 -0.51801086021E-02 -0.19954486369E-01  0.25268623774E-01  0.51100000000E-03 0.  1.
</event>
<event>
 8    1  0.1094829E+005  0.1043930E+01  0.7957747E-01            NaN
         13   -1    0    0    0    0  0.00000000000E+00  0.00000000000E+00  0.74505805969E-08  0.10566000000E+00  0.10566000000E+00 0. -1.
     999900   -1    0    0    0    0 -0.00000000000E+00 -0.00000000000E+00 -0.74505805969E-08  0.93827000000E+00  0.93827000000E+00 0. -1.
     999902    2    1    2    0    0  0.86811998287E-02  0.21750333415E-01  0.52705161021E-02  0.10199254468E+01  0.10196429269E+01 0.  0.
     999903    2    3    3    0    0 -0.10524027113E+00 -0.49079873257E-01 -0.49962223953E-01  0.12804783452E+00  0.20388120940E-01 0.  0.
         14    1    1    2    0    0 -0.86811998287E-02 -0.21750333415E-01 -0.52705161021E-02  0.24004553196E-01  0.00000000000E+00 0. -1.
     999901    1    3    3    0    0  0.11392147096E+00  0.70830206673E-01  0.55232740055E-01  0.89187761229E+00  0.88000000000E+00 0.  1.
        -11    1    4    4    0    0 -0.92051802544E-01 -0.35839443946E-01 -0.37931106062E-01  0.10581601968E+00  0.51100000000E-03 0. -1.
         11    1    4    4    0    0 -0.13188468589E-01 -0.13240429311E-01 -0.12031117891E-01  0.22231814833E-01  0.51100000000E-03 0.  1.
</event>
<event>
 8    1  0.1094829E+005  0.1043930E+01  0.7957747E-01            NaN
         13   -1    0    0    0    0  0.00000000000E+00  0.00000000000E+00  0.74505805969E-08  0.10566000000E+00  0.10566000000E+00 0. -1.
     999900   -1    0    0    0    0 -0.00000000000E+00 -0.00000000000E+00 -0.74505805969E-08  0.93827000000E+00  0.93827000000E+00 0. -1.
     999902    2    1    2    0    0 -0.12037198958E-01  0.42676400656E-02 -0.20945631622E-01  0.10193978498E+01  0.10191026198E+01 0.  0.
     999903    2    3    3    0    0  0.10067268662E+00 -0.49170120783E-01 -0.62253860528E-01  0.12964199429E+00  0.19463117058E-01 0.  0.
         14    1    1    2    0    0  0.12037198958E-01 -0.42676400656E-02  0.20945631622E-01  0.24532150223E-01  0.00000000000E+00 0. -1.
     999901    1    3    3    0    0 -0.11270988557E+00  0.53437760849E-01  0.41308228906E-01  0.88975585548E+00  0.88000000000E+00 0.  1.
        -11    1    4    4    0    0  0.35757611077E-01 -0.27372838762E-01 -0.28510117163E-01  0.53300721885E-01  0.51100000000E-03 0. -1.
         11    1    4    4    0    0  0.64915075539E-01 -0.21797282021E-01 -0.33743743365E-01  0.76341272410E-01  0.51100000000E-03 0.  1.
</event>
<event>
 8    1  0.1094829E+005  0.1043930E+01  0.7957747E-01            NaN
         13   -1    0    0    0    0  0.00000000000E+00  0.00000000000E+00  0.74505805969E-08  0.10566000000E+00  0.10566000000E+00 0.  1.
     999900   -1    0    0    0    0 -0.00000000000E+00 -0.00000000000E+00 -0.74505805969E-08  0.93827000000E+00  0.93827000000E+00 0. -1.
     999902    2    1    2    0    0  0.87067644922E-02  0.97124879351E-02  0.23743993146E-01  0.10168390904E+01  0.10164781446E+01 0.  0.
     999903    2    3    3    0    0  0.15947809551E-01 -0.11635044924E+00 -0.39573078070E-01  0.12557406344E+00  0.20274546400E-01 0.  0.
         14    1    1    2    0    0 -0.87067644922E-02 -0.97124879351E-02 -0.23743993146E-01  0.27090909551E-01  0.00000000000E+00 0. -1.
     999901    1    3    3    0    0 -0.72410450591E-02  0.12606293718E+00  0.63317071216E-01  0.89126502701E+00  0.88000000000E+00 0.  1.
        -11    1    4    4    0    0  0.59187675803E-02 -0.44861549137E-01 -0.49907698769E-02  0.45527566436E-01  0.51100000000E-03 0.  1.
         11    1    4    4    0    0  0.10029041971E-01 -0.71488900108E-01 -0.34582308193E-01  0.80046497003E-01  0.51100000000E-03 0. -1.
</event>
<event>
 8    1  0.1094829E+005  0.1043930E+01  0.7957747E-01            NaN
         13   -1    0    0    0    0  0.00000000000E+00  0.00000000000E+00  0.74505805969E-08  0.10566000000E+00  0.10566000000E+00 0. -1.
     999900   -1    0    0    0    0 -0.00000000000E+00 -0.00000000000E+00 -0.74505805969E-08  0.93827000000E+00  0.93827000000E+00 0. -1.
     999902    2    1    2    0    0 -0.23593600908E-01  0.99665914909E-02 -0.30868730533E-02  0.10181323308E+01  0.10178054447E+01 0.  0.
     999903    2    3    3    0    0 -0.21465070804E-01  0.11819526440E+00  0.45918845548E-01  0.13014610529E+00  0.19964933101E-01 0.  0.
         14    1    1    2    0    0  0.23593600908E-01 -0.99665914909E-02  0.30868730533E-02  0.25797669177E-01  0.00000000000E+00 0.  1.
     999901    1    3    3    0    0 -0.21285301037E-02 -0.10822867291E+00 -0.49005718602E-01  0.88798622553E+00  0.88000000000E+00 0. -1.
        -11    1    4    4    0    0 -0.17556651183E-01  0.56876506763E-01  0.30065515684E-01  0.66688600051E-01  0.51100000000E-03 0.  1.
         11    1    4    4    0    0 -0.39084196208E-02  0.61318757640E-01  0.15853329864E-01  0.63457505239E-01  0.51100000000E-03 0. -1.
</event>
<event>
 8    1  0.1094829E+005  0.1043930E+01  0.7957747E-01            NaN
         13   -1    0    0    0    0  0.00000000000E+00  0.00000000000E+00  0.74505805969E-08  0.10566000000E+00  0.10566000000E+00 0. -1.
     999900   -1    0    0    0    0 -0.00000000000E+00 -0.00000000000E+00 -0.74505805969E-08  0.93827000000E+00  0.93827000000E+00 0. -1.
     999902    2    1    2    0    0  0.68897518388E-02  0.11699280205E-02  0.22515250452E-01  0.10203551423E+01  0.10200827626E+01 0.  0.
     999903    2    3    3    0    0  0.50773032410E-02 -0.68986370642E-01  0.11190609713E+00  0.13304690124E+00  0.19839481154E-01 0.  0.
         14    1    1    2    0    0 -0.68897518388E-02 -0.11699280205E-02 -0.22515250452E-01  0.23574857686E-01  0.00000000000E+00 0.  1.
     999901    1    3    3    0    0  0.18124485978E-02  0.70156298662E-01 -0.89390846675E-01  0.88730824108E+00  0.88000000000E+00 0. -1.
        -11    1    4    4    0    0 -0.61281636078E-02 -0.33947379981E-01  0.45127912744E-01  0.56804653211E-01  0.51100000000E-03 0. -1.
         11    1    4    4    0    0  0.11205466849E-01 -0.35038990661E-01  0.66778184383E-01  0.76242248028E-01  0.51100000000E-03 0.  1.
</event>
<event>
 8    1  0.1094829E+005  0.1043930E+01  0.7957747E-01            NaN
         13   -1    0    0    0    0  0.00000000000E+00  0.00000000000E+00  0.74505805969E-08  0.10566000000E+00  0.10566000000E+00 0. -1.
     999900   -1    0    0    0    0 -0.00000000000E+00 -0.00000000000E+00 -0.74505805969E-08  0.93827000000E+00  0.93827000000E+00 0. -1.
     999902    2    1    2    0    0 -0.17584032268E-03  0.34040979870E-02 -0.23636155204E-01  0.10200493251E+01  0.10197697480E+01 0.  0.
     999903    2    3    3    0    0  0.95532963779E-02 -0.12418107480E+00 -0.34702941918E-01  0.13072648931E+00  0.19311033627E-01 0.  0.
         14    1    1    2    0    0  0.17584032268E-03 -0.34040979870E-02  0.23636155204E-01  0.23880674943E-01  0.00000000000E+00 0. -1.
     999901    1    3    3    0    0 -0.97291367006E-02  0.12758517278E+00  0.11066786714E-01  0.88932283575E+00  0.88000000000E+00 0.  1.
        -11    1    4    4    0    0  0.85698071528E-02 -0.73873707585E-01 -0.11276154108E-01  0.75220868377E-01  0.51100000000E-03 0.  1.
         11    1    4    4    0    0  0.98348922509E-03 -0.50307367212E-01 -0.23426787810E-01  0.55505620931E-01  0.51100000000E-03 0. -1.
</event>
<event>
 8    1  0.1094829E+005  0.1043930E+01  0.7957747E-01            NaN
         13   -1    0    0    0    0  0.00000000000E+00  0.00000000000E+00  0.74505805969E-08  0.10566000000E+00  0.10566000000E+00 0.  1.
     999900   -1    0    0    0    0 -0.00000000000E+00 -0.00000000000E+00 -0.74505805969E-08  0.93827000000E+00  0.93827000000E+00 0. -1.
     999902    2    1    2    0    0 -0.20395365671E-03 -0.10084223360E-01 -0.21876223423E-01  0.10198405353E+01  0.10195559892E+01 0.  0.
     999903    2    3    3    0    0  0.77452900753E-01  0.91347060449E-01 -0.47223485093E-01  0.13025558937E+00  0.19829869620E-01 0.  0.
         14    1    1    2    0    0  0.20395365671E-03  0.10084223360E-01  0.21876223423E-01  0.24089464691E-01  0.00000000000E+00 0.  1.
     999901    1    3    3    0    0 -0.77656854410E-01 -0.10143128381E+00  0.25347261670E-01  0.88958494594E+00  0.88000000000E+00 0. -1.
        -11    1    4    4    0    0  0.25850935306E-01  0.36108231034E-01 -0.81199755005E-02  0.45147207308E-01  0.51100000000E-03 0. -1.
         11    1    4    4    0    0  0.51601965447E-01  0.55238829415E-01 -0.39103509593E-01  0.85108382059E-01  0.51100000000E-03 0.  1.
</event>
<event>
 8    1  0.1094829E+005  0.1043930E+01  0.7957747E-01            NaN
         13   -1    0    0    0    0  0.00000000000E+00  0.00000000000E+00  0.74505805969E-08  0.10566000000E+00  0.10566000000E+00 0. -1.
     999900   -1    0    0    0    0 -0.00000000000E+00 -0.00000000000E+00 -0.74505805969E-08  0.93827000000E+00  0.93827000000E+00 0.  1.
     999902    2    1    2    0    0  0.15707862947E-01  0.49520353605E-02  0.16280696815E-01  0.10207714011E+01  0.10205086637E+01 0.  0.
     999903    2    3    3    0    0  0.53065095016E-02 -0.49642115288E-02 -0.12732100682E+00  0.12901584641E+00  0.19535798116E-01 0.  0.
         14    1    1    2    0    0 -0.15707862947E-01 -0.49520353605E-02 -0.16280696815E-01  0.23158598864E-01  0.00000000000E+00 0. -1.
     999901    1    3    3    0    0  0.10401353446E-01  0.99162468893E-02  0.14360170363E+00  0.89175555473E+00  0.88000000000E+00 0. -1.
        -11    1    4    4    0    0  0.92757005830E-02 -0.94524342787E-02 -0.61018857871E-01  0.62441566861E-01  0.51100000000E-03 0.  1.
         11    1    4    4    0    0 -0.39691910813E-02  0.44882227499E-02 -0.66302148945E-01  0.66574279545E-01  0.51100000000E-03 0. -1.
</event>
<event>
 8    1  0.1094829E+005  0.1043930E+01  0.7957747E-01            NaN
         13   -1    0    0    0    0  0.00000000000E+00  0.00000000000E+00  0.74505805969E-08  0.10566000000E+00  0.10566000000E+00 0. -1.
     999900   -1    0    0    0    0 -0.00000000000E+00 -0.00000000000E+00 -0.74505805969E-08  0.93827000000E+00  0.93827000000E+00 0.  1.
     999902    2    1    2    0    0  0.18634131787E-01 -0.61788959311E-02 -0.18602741254E-01  0.10168842683E+01  0.10165245415E+01 0.  0.
     999903    2    3    3    0    0  0.19813645363E-02 -0.71199260798E-01 -0.10680674884E+00  0.12993167120E+00  0.20032399764E-01 0.  0.
         14    1    1    2    0    0 -0.18634131787E-01  0.61788959311E-02  0.18602741254E-01  0.27045731725E-01  0.00000000000E+00 0. -1.
     999901    1    3    3    0    0  0.16652767250E-01  0.65020364866E-01  0.88204007582E-01  0.88695259707E+00  0.88000000000E+00 0. -1.
        -11    1    4    4    0    0 -0.64476710744E-02 -0.57580593173E-01 -0.82307126783E-01  0.10065694915E+00  0.51100000000E-03 0. -1.
         11    1    4    4    0    0  0.84290356107E-02 -0.13618667624E-01 -0.24499622053E-01  0.29274722047E-01  0.51100000000E-03 0.  1.
</event>
<event>
 8    1  0.1094829E+005  0.1043930E+01  0.7957747E-01            NaN
         13   -1    0    0    0    0  0.00000000000E+00  0.00000000000E+00  0.74505805969E-08  0.10566000000E+00  0.10566000000E+00 0.  1.
     999900   -1    0    0    0    0 -0.00000000000E+00 -0.00000000000E+00 -0.74505805969E-08  0.93827000000E+00  0.93827000000E+00 0. -1.
     999902    2    1    2    0    0 -0.10222359154E-01  0.15514311755E-01 -0.28908197483E-02  0.10251271456E+01  0.10249546903E+01 0.  0.
     999903    2    3    3    0    0 -0.21719663570E-02  0.10599736854E+00  0.83046768964E-01  0.13628674283E+00  0.20908152974E-01 0.  0.
         14    1    1    2    0    0  0.10222359154E-01 -0.15514311755E-01  0.28908197483E-02  0.18802854430E-01  0.00000000000E+00 0. -1.
     999901    1    3    3    0    0 -0.80503927974E-02 -0.90483056784E-01 -0.85937588712E-01  0.88884040274E+00  0.88000000000E+00 0.  1.
        -11    1    4    4    0    0 -0.27441183669E-02  0.90603066671E-01  0.60523780927E-01  0.10899465608E+00  0.51100000000E-03 0. -1.
         11    1    4    4    0    0  0.57215200988E-03  0.15394301868E-01  0.22522988036E-01  0.27292086747E-01  0.51100000000E-03 0.  1.
</event>
<event>
 8    1  0.1094829E+005  0.1043930E+01  0.7957747E-01            NaN
         13   -1    0    0    0    0  0.00000000000E+00  0.00000000000E+00  0.74505805969E-08  0.10566000000E+00  0.10566000000E+00 0.  1.
     999900   -1    0    0    0    0 -0.00000000000E+00 -0.00000000000E+00 -0.74505805969E-08  0.93827000000E+00  0.93827000000E+00 0.  1.
     999902    2    1    2    0    0  0.15305108979E-01 -0.17352364821E-01 -0.67843639717E-02  0.10198182079E+01  0.10195331277E+01 0.  0.
     999903    2    3    3    0    0 -0.56650205210E-01  0.54084401637E-01 -0.10061685906E+00  0.12904028044E+00  0.19831121961E-01 0.  0.
         14    1    1    2    0    0 -0.15305108979E-01  0.17352364821E-01  0.67843639717E-02  0.24111792141E-01  0.00000000000E+00 0. -1.
     999901    1    3    3    0    0  0.71955314189E-01 -0.71436766458E-01  0.93832495088E-01  0.89077792742E+00  0.88000000000E+00 0. -1.
        -11    1    4    4    0    0 -0.38132167254E-01  0.24341437313E-01 -0.63811992944E-01  0.78222754454E-01  0.51100000000E-03 0.  1.
         11    1    4    4    0    0 -0.18518037957E-01  0.29742964324E-01 -0.36804866116E-01  0.50817525986E-01  0.51100000000E-03 0. -1.
</event>
<event>
 8    1  0.1094829E+005  0.1043930E+01  0.7957747E-01            NaN
         13   -1    0    0    0    0  0.00000000000E+00  0.00000000000E+00  0.74505805969E-08  0.10566000000E+00  0.10566000000E+00 0.  1.
     999900   -1    0    0    0    0 -0.00000000000E+00 -0.00000000000E+00 -0.74505805969E-08  0.93827000000E+00  0.93827000000E+00 0.  1.
     999902    2    1    2    0    0 -0.14303989432E-01 -0.16098762635E-02 -0.13485026385E-01  0.10242058587E+01  0.10240159174E+01 0.  0.
     999903    2    3    3    0    0  0.65643726118E-01 -0.11267647138E+00  0.17343038593E-01  0.13309543039E+00  0.20212041482E-01 0.  0.
         14    1    1    2    0    0  0.14303989432E-01  0.16098762635E-02  0.13485026385E-01  0.19724141347E-01  0.00000000000E+00 0.  1.
     999901    1    3    3    0    0 -0.79947715550E-01  0.11106659512E+00 -0.30828064979E-01  0.89111042827E+00  0.88000000000E+00 0.  1.
        -11    1    4    4    0    0  0.10185075559E-01 -0.94010018775E-02 -0.28066888068E-02  0.14151085594E-01  0.51100000000E-03 0. -1.
         11    1    4    4    0    0  0.55458650559E-01 -0.10327546950E+00  0.20149727400E-01  0.11894434479E+00  0.51100000000E-03 0.  1.
</event>
<event>
 8    1  0.1094829E+005  0.1043930E+01  0.7957747E-01            NaN
         13   -1    0    0    0    0  0.00000000000E+00  0.00000000000E+00  0.74505805969E-08  0.10566000000E+00  0.10566000000E+00 0.  1.
     999900   -1    0    0    0    0 -0.00000000000E+00 -0.00000000000E+00 -0.74505805969E-08  0.93827000000E+00  0.93827000000E+00 0.  1.
     999902    2    1    2    0    0 -0.19877991662E-01 -0.19964044498E-02  0.13023696536E-01  0.10200817956E+01  0.10198029872E+01 0.  0.
     999903    2    3    3    0    0 -0.40478033835E-01  0.66217594494E-01 -0.10273058553E+00  0.12964562986E+00  0.15204443208E-01 0.  0.
         14    1    1    2    0    0  0.19877991662E-01  0.19964044498E-02 -0.13023696536E-01  0.23848204433E-01  0.00000000000E+00 0.  1.
     999901    1    3    3    0    0  0.20600042174E-01 -0.68213998944E-01  0.11575428207E+00  0.89043616571E+00  0.88000000000E+00 0. -1.
        -11    1    4    4    0    0 -0.22246200104E-01  0.22933072265E-01 -0.45681128356E-01  0.55748056751E-01  0.51100000000E-03 0. -1.
         11    1    4    4    0    0 -0.18231833732E-01  0.43284522229E-01 -0.57049457176E-01  0.73897573105E-01  0.51100000000E-03 0.  1.
</event>
<event>
 8    1  0.1094829E+005  0.1043930E+01  0.7957747E-01            NaN
         13   -1    0    0    0    0  0.00000000000E+00  0.00000000000E+00  0.74505805969E-08  0.10566000000E+00  0.10566000000E+00 0.  1.
     999900   -1    0    0    0    0 -0.00000000000E+00 -0.00000000000E+00 -0.74505805969E-08  0.93827000000E+00  0.93827000000E+00 0. -1.
     999902    2    1    2    0    0 -0.46266199173E-02 -0.21524348081E-02 -0.21001323651E-01  0.10223176382E+01  0.10220891640E+01 0.  0.
     999903    2    3    3    0    0  0.29394774156E-01  0.10670529884E+00  0.66505100066E-01  0.13065355592E+00  0.19933634689E-01 0.  0.
         14    1    1    2    0    0  0.46266199173E-02  0.21524348081E-02  0.21001323651E-01  0.21612361799E-01  0.00000000000E+00 0.  1.
     999901    1    3    3    0    0 -0.34021394073E-01 -0.10885773365E+00 -0.87506423717E-01  0.89166408228E+00  0.88000000000E+00 0. -1.
        -11    1    4    4    0    0 -0.29464896889E-03  0.32637275585E-01  0.18202063809E-01  0.37374521048E-01  0.51100000000E-03 0.  1.
         11    1    4    4    0    0  0.29689423125E-01  0.74068023258E-01  0.48303036257E-01  0.93279034876E-01  0.51100000000E-03 0. -1.
</event>
<event>
 8    1  0.1094829E+005  0.1043930E+01  0.7957747E-01            NaN
         13   -1    0    0    0    0  0.00000000000E+00  0.00000000000E+00  0.74505805969E-08  0.10566000000E+00  0.10566000000E+00 0. -1.
     999900   -1    0    0    0    0 -0.00000000000E+00 -0.00000000000E+00 -0.74505805969E-08  0.93827000000E+00  0.93827000000E+00 0.  1.
     999902    2    1    2    0    0 -0.30199073336E-02 -0.22784993005E-01  0.31657566158E-02  0.10207287552E+01  0.10204650380E+01 0.  0.
     999903    2    3    3    0    0 -0.55531184372E-01 -0.90889598705E-01  0.77795183280E-01  0.13339272927E+00  0.19922301352E-01 0.  0.
         14    1    1    2    0    0  0.30199073336E-02  0.22784993005E-01 -0.31657566158E-02  0.23201244826E-01  0.00000000000E+00 0. -1.
     999901    1    3    3    0    0  0.52511277039E-01  0.68104605700E-01 -0.74629426664E-01  0.88733602590E+00  0.88000000000E+00 0.  1.
        -11    1    4    4    0    0 -0.25233358033E-01 -0.24256157907E-01  0.28526595300E-01  0.45156520176E-01  0.51100000000E-03 0. -1.
         11    1    4    4    0    0 -0.30297826340E-01 -0.66633440798E-01  0.49268587980E-01  0.88236209099E-01  0.51100000000E-03 0.  1.
</event>
<event>
 8    1  0.1094829E+005  0.1043930E+01  0.7957747E-01            NaN
         13   -1    0    0    0    0  0.00000000000E+00  0.00000000000E+00  0.74505805969E-08  0.10566000000E+00  0.10566000000E+00 0.  1.
     999900   -1    0    0    0    0 -0.00000000000E+00 -0.00000000000E+00 -0.74505805969E-08  0.93827000000E+00  0.93827000000E+00 0. -1.
     999902    2    1    2    0    0  0.14198636980E-02  0.44022478005E-02  0.23495752120E-01  0.10199832640E+01  0.10197021196E+01 0.  0.
     999903    2    3    3    0    0 -0.79636748640E-01  0.70343377581E-01 -0.70172952319E-01  0.12886473471E+00  0.19790758249E-01 0.  0.
         14    1    1    2    0    0 -0.14198636980E-02 -0.44022478005E-02 -0.23495752120E-01  0.23946736026E-01  0.00000000000E+00 0. -1.
     999901    1    3    3    0    0  0.81056612338E-01 -0.65941129781E-01  0.93668704439E-01  0.89111852926E+00  0.88000000000E+00 0.  1.
        -11    1    4    4    0    0 -0.76662845910E-01  0.61539829684E-01 -0.67251092046E-01  0.11911050786E+00  0.51100000000E-03 0.  1.
         11    1    4    4    0    0 -0.29739027299E-02  0.88035478972E-02 -0.29218602726E-02  0.97542268519E-02  0.51100000000E-03 0. -1.
</event>
<event>
 8    1  0.1094829E+005  0.1043930E+01  0.7957747E-01            NaN
         13   -1    0    0    0    0  0.00000000000E+00  0.00000000000E+00  0.74505805969E-08  0.10566000000E+00  0.10566000000E+00 0. -1.
     999900   -1    0    0    0    0 -0.00000000000E+00 -0.00000000000E+00 -0.74505805969E-08  0.93827000000E+00  0.93827000000E+00 0.  1.
     999902    2    1    2    0    0 -0.42591211233E-02  0.25759162665E-01 -0.20341996973E-02  0.10177419771E+01  0.10174049928E+01 0.  0.
     999903    2    3    3    0    0  0.71971477816E-01  0.89124901937E-01 -0.59368808014E-01  0.13032235910E+00  0.18333579936E-01 0.  0.
         14    1    1    2    0    0  0.42591211233E-02 -0.25759162665E-01  0.20341996973E-02  0.26188022880E-01  0.00000000000E+00 0. -1.
     999901    1    3    3    0    0 -0.76230598939E-01 -0.63365739271E-01  0.57334608317E-01  0.88741961802E+00  0.88000000000E+00 0. -1.
        -11    1    4    4    0    0  0.12131841553E-01  0.94830844748E-02 -0.14159493870E-01  0.20925172837E-01  0.51100000000E-03 0.  1.
         11    1    4    4    0    0  0.59839636263E-01  0.79641817462E-01 -0.45209314144E-01  0.10939718627E+00  0.51100000000E-03 0. -1.
</event>
<event>
 8    1  0.1094829E+005  0.1043930E+01  0.7957747E-01            NaN
         13   -1    0    0    0    0  0.00000000000E+00  0.00000000000E+00  0.74505805969E-08  0.10566000000E+00  0.10566000000E+00 0. -1.
     999900   -1    0    0    0    0 -0.00000000000E+00 -0.00000000000E+00 -0.74505805969E-08  0.93827000000E+00  0.93827000000E+00 0. -1.
     999902    2    1    2    0    0 -0.21276697488E-01 -0.19746480357E-02  0.10265107376E-01  0.10202241037E+01  0.10199486518E+01 0.  0.
     999903    2    3    3    0    0 -0.14168172017E-01  0.41364265306E-01 -0.12023735041E+00  0.12951669716E+00  0.20144847168E-01 0.  0.
         14    1    1    2    0    0  0.21276697488E-01  0.19746480357E-02 -0.10265107376E-01  0.23705896319E-01  0.00000000000E+00 0. -1.
     999901    1    3    3    0    0 -0.71085254705E-02 -0.43338913342E-01  0.13050245778E+00  0.89070740652E+00  0.88000000000E+00 0.  1.
        -11    1    4    4    0    0  0.10311867869E-03  0.33855241108E-02 -0.34428072800E-01  0.34598059551E-01  0.51100000000E-03 0. -1.
         11    1    4    4    0    0 -0.14271290696E-01  0.37978741196E-01 -0.85809277608E-01  0.94918637609E-01  0.51100000000E-03 0.  1.
</event>
<event>
 8    1  0.1094829E+005  0.1043930E+01  0.7957747E-01            NaN
         13   -1    0    0    0    0  0.00000000000E+00  0.00000000000E+00  0.74505805969E-08  0.10566000000E+00  0.10566000000E+00 0. -1.
     999900   -1    0    0    0    0 -0.00000000000E+00 -0.00000000000E+00 -0.74505805969E-08  0.93827000000E+00  0.93827000000E+00 0. -1.
     999902    2    1    2    0    0  0.17179597721E-01  0.78586278839E-02 -0.40308190686E-03  0.10250339929E+01  0.10248598087E+01 0.  0.
     999903    2    3    3    0    0  0.53982623813E-01  0.12036137874E+00 -0.29893844831E-01  0.13661909162E+00  0.19239258602E-01 0.  0.
         14    1    1    2    0    0 -0.17179597721E-01 -0.78586278839E-02  0.40308190686E-03  0.18896007120E-01  0.00000000000E+00 0.  1.
     999901    1    3    3    0    0 -0.36803026092E-01 -0.11250275085E+00  0.29490762924E-01  0.88841490126E+00  0.88000000000E+00 0.  1.
        -11    1    4    4    0    0  0.35642902591E-01  0.98416342559E-01 -0.22258545410E-01  0.10701353631E+00  0.51100000000E-03 0.  1.
         11    1    4    4    0    0  0.18339721221E-01  0.21945036178E-01 -0.76352994209E-02  0.29605555316E-01  0.51100000000E-03 0. -1.
</event>
<event>
 8    1  0.1094829E+005  0.1043930E+01  0.7957747E-01            NaN
         13   -1    0    0    0    0  0.00000000000E+00  0.00000000000E+00  0.74505805969E-08  0.10566000000E+00  0.10566000000E+00 0.  1.
     999900   -1    0    0    0    0 -0.00000000000E+00 -0.00000000000E+00 -0.74505805969E-08  0.93827000000E+00  0.93827000000E+00 0.  1.
     999902    2    1    2    0    0  0.10595698478E-01  0.17462942738E-01 -0.10362654774E-01  0.10210256814E+01  0.10207687467E+01 0.  0.
     999903    2    3    3    0    0  0.41489795951E-02  0.95643714672E-01 -0.91460041651E-01  0.13382188328E+00  0.19453098431E-01 0.  0.
         14    1    1    2    0    0 -0.10595698478E-01 -0.17462942738E-01  0.10362654774E-01  0.22904318573E-01  0.00000000000E+00 0. -1.
     999901    1    3    3    0    0  0.64467188833E-02 -0.78180771934E-01  0.81097386876E-01  0.88720379814E+00  0.88000000000E+00 0. -1.
        -11    1    4    4    0    0  0.37979573938E-02  0.69403227033E-01 -0.53704023898E-01  0.87838577554E-01  0.51100000000E-03 0.  1.
         11    1    4    4    0    0  0.35102220126E-03  0.26240487639E-01 -0.37756017753E-01  0.45983305728E-01  0.51100000000E-03 0. -1.
</event>
<event>
 8    1  0.1094829E+005  0.1043930E+01  0.7957747E-01            NaN
         13   -1    0    0    0    0  0.00000000000E+00  0.00000000000E+00  0.74505805969E-08  0.10566000000E+00  0.10566000000E+00 0. -1.
     999900   -1    0    0    0    0 -0.00000000000E+00 -0.00000000000E+00 -0.74505805969E-08  0.93827000000E+00  0.93827000000E+00 0.  1.
     999902    2    1    2    0    0 -0.21474561664E-01 -0.79796166268E-02  0.39086690377E-02  0.10206897596E+01  0.10204251450E+01 0.  0.
     999903    2    3    3    0    0  0.19679077351E-01  0.21579277131E-01  0.12587749219E+00  0.13083373528E+00  0.20479061514E-01 0.  0.
         14    1    1    2    0    0  0.21474561664E-01  0.79796166268E-02 -0.39086690377E-02  0.23240240399E-01  0.00000000000E+00 0.  1.
     999901    1    3    3    0    0 -0.41153639014E-01 -0.29558893758E-01 -0.12196882315E+00  0.88985602432E+00  0.88000000000E+00 0.  1.
        -11    1    4    4    0    0  0.96089284801E-02  0.23342412264E-01  0.95334295924E-01  0.98620934985E-01  0.51100000000E-03 0. -1.
         11    1    4    4    0    0  0.10070148871E-01 -0.17631351327E-02  0.30543196263E-01  0.32212800293E-01  0.51100000000E-03 0.  1.
</event>
<event>
 8    1  0.1094829E+005  0.1043930E+01  0.7957747E-01            NaN
         13   -1    0    0    0    0  0.00000000000E+00  0.00000000000E+00  0.74505805969E-08  0.10566000000E+00  0.10566000000E+00 0. -1.
     999900   -1    0    0    0    0 -0.00000000000E+00 -0.00000000000E+00 -0.74505805969E-08  0.93827000000E+00  0.93827000000E+00 0. -1.
     999902    2    1    2    0    0 -0.39422549535E-02 -0.15429791024E-01 -0.17996014335E-01  0.10198992622E+01  0.10196161183E+01 0.  0.
     999903    2    3    3    0    0  0.15722443922E-01 -0.12829670144E+00  0.15394388622E-01  0.13184489518E+00  0.20948755135E-01 0.  0.
         14    1    1    2    0    0  0.39422549535E-02  0.15429791024E-01  0.17996014335E-01  0.24030737757E-01  0.00000000000E+00 0. -1.
     999901    1    3    3    0    0 -0.19664698876E-01  0.11286691041E+00 -0.33390402958E-01  0.88805436706E+00  0.88000000000E+00 0. -1.
        -11    1    4    4    0    0  0.11449182010E-01 -0.44298536485E-01  0.13531603908E-01  0.47715925315E-01  0.51100000000E-03 0.  1.
         11    1    4    4    0    0  0.42732619119E-02 -0.83998164953E-01  0.18627847146E-02  0.84128969866E-01  0.51100000000E-03 0. -1.
</event>
<event>
 8    1  0.1094829E+005  0.1043930E+01  0.7957747E-01            NaN
         13   -1    0    0    0    0  0.00000000000E+00  0.00000000000E+00  0.74505805969E-08  0.10566000000E+00  0.10566000000E+00 0. -1.
     999900   -1    0    0    0    0 -0.00000000000E+00 -0.00000000000E+00 -0.74505805969E-08  0.93827000000E+00  0.93827000000E+00 0. -1.
     999902    2    1    2    0    0  0.35496771279E-02 -0.12880971879E-01 -0.19606245212E-01  0.10202039701E+01  0.10199280446E+01 0.  0.
     999903    2    3    3    0    0  0.32814198300E-01  0.11951099697E+00  0.27435027361E-01  0.12857796837E+00  0.20493004062E-01 0.  0.
         14    1    1    2    0    0 -0.35496771279E-02  0.12880971879E-01  0.19606245212E-01  0.23726029916E-01  0.00000000000E+00 0. -1.
     999901    1    3    3    0    0 -0.29264521172E-01 -0.13239196885E+00 -0.47041272573E-01  0.89162600172E+00  0.88000000000E+00 0. -1.
        -11    1    4    4    0    0  0.39969336561E-02  0.52589402290E-01  0.10754343779E-01  0.53828781734E-01  0.51100000000E-03 0. -1.
         11    1    4    4    0    0  0.28817264644E-01  0.66921594681E-01  0.16680683582E-01  0.74749186631E-01  0.51100000000E-03 0.  1.
</event>
<event>
 8    1  0.1094829E+005  0.1043930E+01  0.7957747E-01            NaN
         13   -1    0    0    0    0  0.00000000000E+00  0.00000000000E+00  0.74505805969E-08  0.10566000000E+00  0.10566000000E+00 0.  1.
     999900   -1    0    0    0    0 -0.00000000000E+00 -0.00000000000E+00 -0.74505805969E-08  0.93827000000E+00  0.93827000000E+00 0.  1.
     999902    2    1    2    0    0  0.13379912080E-01  0.93819867276E-02 -0.17838907170E-01  0.10197376390E+01  0.10194506276E+01 0.  0.
     999903    2    3    3    0    0 -0.29352947227E-02  0.74330820521E-01  0.10333198037E+00  0.12891390728E+00  0.20189365737E-01 0.  0.
         14    1    1    2    0    0 -0.13379912080E-01 -0.93819867276E-02  0.17838907170E-01  0.24192361010E-01  0.00000000000E+00 0.  1.
     999901    1    3    3    0    0  0.16315206803E-01 -0.64948833793E-01 -0.12117088754E+00  0.89082373171E+00  0.88000000000E+00 0.  1.
        -11    1    4    4    0    0 -0.10491206378E-01  0.35901209222E-01  0.43128666721E-01  0.57090325354E-01  0.51100000000E-03 0. -1.
         11    1    4    4    0    0  0.75559116553E-02  0.38429611299E-01  0.60203313652E-01  0.71823581929E-01  0.51100000000E-03 0.  1.
</event>
<event>
 8    1  0.1094829E+005  0.1043930E+01  0.7957747E-01            NaN
         13   -1    0    0    0    0  0.00000000000E+00  0.00000000000E+00  0.74505805969E-08  0.10566000000E+00  0.10566000000E+00 0. -1.
     999900   -1    0    0    0    0 -0.00000000000E+00 -0.00000000000E+00 -0.74505805969E-08  0.93827000000E+00  0.93827000000E+00 0. -1.
     999902    2    1    2    0    0 -0.21003932664E-01 -0.16085521853E-02 -0.37520280453E-02  0.10225330296E+01  0.10223091344E+01 0.  0.
     999903    2    3    3    0    0 -0.81370667709E-01  0.10405504343E+00  0.10376090561E-01  0.13404637137E+00  0.20300955524E-01 0.  0.
         14    1    1    2    0    0  0.21003932664E-01  0.16085521853E-02  0.37520280453E-02  0.21396970392E-01  0.00000000000E+00 0.  1.
     999901    1    3    3    0    0  0.60366735045E-01 -0.10566359561E+00 -0.14128118606E-01  0.88848665824E+00  0.88000000000E+00 0.  1.
        -11    1    4    4    0    0 -0.41790002001E-01  0.44571774764E-01  0.13318362220E-01  0.62535488054E-01  0.51100000000E-03 0.  1.
         11    1    4    4    0    0 -0.39580665708E-01  0.59483268663E-01 -0.29422716586E-02  0.71510883313E-01  0.51100000000E-03 0. -1.
</event>
<event>
 8    1  0.1094829E+005  0.1043930E+01  0.7957747E-01            NaN
         13   -1    0    0    0    0  0.00000000000E+00  0.00000000000E+00  0.74505805969E-08  0.10566000000E+00  0.10566000000E+00 0.  1.
     999900   -1    0    0    0    0 -0.00000000000E+00 -0.00000000000E+00 -0.74505805969E-08  0.93827000000E+00  0.93827000000E+00 0.  1.
     999902    2    1    2    0    0 -0.51259563335E-02 -0.57489742122E-02  0.22481059262E-01  0.10201660744E+01  0.10198892564E+01 0.  0.
     999903    2    3    3    0    0 -0.10582832024E+00 -0.62428947573E-01 -0.39114978465E-01  0.13047643341E+00  0.19927651006E-01 0.  0.
         14    1    1    2    0    0  0.51259563335E-02  0.57489742122E-02 -0.22481059262E-01  0.23763925567E-01  0.00000000000E+00 0. -1.
     999901    1    3    3    0    0  0.10070236391E+00  0.56679973360E-01  0.61596037727E-01  0.88968964102E+00  0.88000000000E+00 0.  1.
        -11    1    4    4    0    0 -0.40731875562E-01 -0.15715707880E-01 -0.20415681401E-01  0.48198862321E-01  0.51100000000E-03 0.  1.
         11    1    4    4    0    0 -0.65096444683E-01 -0.46713239692E-01 -0.18699297065E-01  0.82277571091E-01  0.51100000000E-03 0. -1.
</event>
<event>
 8    1  0.1094829E+005  0.1043930E+01  0.7957747E-01            NaN
         13   -1    0    0    0    0  0.00000000000E+00  0.00000000000E+00  0.74505805969E-08  0.10566000000E+00  0.10566000000E+00 0.  1.
     999900   -1    0    0    0    0 -0.00000000000E+00 -0.00000000000E+00 -0.74505805969E-08  0.93827000000E+00  0.93827000000E+00 0. -1.
     999902    2    1    2    0    0 -0.28997908073E-02 -0.90637928595E-02  0.22424411698E-01  0.10195698816E+01  0.10192788275E+01 0.  0.
     999903    2    3    3    0    0 -0.55462063149E-01  0.54092811394E-01 -0.99104986707E-01  0.12742586644E+00  0.20334216357E-01 0.  0.
         14    1    1    2    0    0  0.28997908073E-02  0.90637928595E-02 -0.22424411698E-01  0.24360118385E-01  0.00000000000E+00 0. -1.
     999901    1    3    3    0    0  0.52562272341E-01 -0.63156604253E-01  0.12152939840E+00  0.89214401517E+00  0.88000000000E+00 0.  1.
        -11    1    4    4    0    0 -0.52213320356E-01  0.55598399095E-01 -0.96310566743E-01  0.12285519603E+00  0.51100000000E-03 0. -1.
         11    1    4    4    0    0 -0.32487427924E-02 -0.15055877013E-02 -0.27944199641E-02  0.45706704096E-02  0.51100000000E-03 0.  1.
</event>
<event>
 8    1  0.1094829E+005  0.1043930E+01  0.7957747E-01            NaN
         13   -1    0    0    0    0  0.00000000000E+00  0.00000000000E+00  0.74505805969E-08  0.10566000000E+00  0.10566000000E+00 0. -1.
     999900   -1    0    0    0    0 -0.00000000000E+00 -0.00000000000E+00 -0.74505805969E-08  0.93827000000E+00  0.93827000000E+00 0.  1.
     999902    2    1    2    0    0  0.92652926573E-02  0.77494200653E-02 -0.19995178834E-01  0.10205696418E+01  0.10203022530E+01 0.  0.
     999903    2    3    3    0    0 -0.14862854839E-01  0.32909916002E-02  0.12586324641E+00  0.12822625199E+00  0.19201037031E-01 0.  0.
         14    1    1    2    0    0 -0.92652926573E-02 -0.77494200653E-02  0.19995178834E-01  0.23360358216E-01  0.00000000000E+00 0. -1.
     999901    1    3    3    0    0  0.24128147496E-01  0.44584284651E-02 -0.14585842525E+00  0.89234338979E+00  0.88000000000E+00 0.  1.
        -11    1    4    4    0    0 -0.83040031397E-02 -0.30417075262E-03  0.11323250967E+00  0.11353814934E+00  0.51100000000E-03 0. -1.
         11    1    4    4    0    0 -0.65588516995E-02  0.35951623528E-02  0.12630736745E-01  0.14688102658E-01  0.51100000000E-03 0.  1.
</event>
<event>
 8    1  0.1094829E+005  0.1043930E+01  0.7957747E-01            NaN
         13   -1    0    0    0    0  0.00000000000E+00  0.00000000000E+00  0.74505805969E-08  0.10566000000E+00  0.10566000000E+00 0. -1.
     999900   -1    0    0    0    0 -0.00000000000E+00 -0.00000000000E+00 -0.74505805969E-08  0.93827000000E+00  0.93827000000E+00 0. -1.
     999902    2    1    2    0    0 -0.11639398340E-02  0.97774058050E-02 -0.18014204158E-01  0.10234004123E+01  0.10231944780E+01 0.  0.
     999903    2    3    3    0    0  0.70791868964E-02  0.12557628363E+00 -0.45573588475E-01  0.13534813404E+00  0.20558393002E-01 0.  0.
         14    1    1    2    0    0  0.11639398340E-02 -0.97774058050E-02  0.18014204158E-01  0.20529587713E-01  0.00000000000E+00 0. -1.
     999901    1    3    3    0    0 -0.82431267304E-02 -0.11579887783E+00  0.27559384317E-01  0.88805227825E+00  0.88000000000E+00 0. -1.
        -11    1    4    4    0    0 -0.84968570566E-03  0.76364768427E-01 -0.36638025655E-01  0.84704816083E-01  0.51100000000E-03 0. -1.
         11    1    4    4    0    0  0.79288726021E-02  0.49211515203E-01 -0.89355628205E-02  0.50643317953E-01  0.51100000000E-03 0.  1.
</event>
<event>
 8    1  0.1094829E+005  0.1043930E+01  0.7957747E-01            NaN
         13   -1    0    0    0    0  0.00000000000E+00  0.00000000000E+00  0.74505805969E-08  0.10566000000E+00  0.10566000000E+00 0.  1.
     999900   -1    0    0    0    0 -0.00000000000E+00 -0.00000000000E+00 -0.74505805969E-08  0.93827000000E+00  0.93827000000E+00 0. -1.
     999902    2    1    2    0    0  0.64984880841E-02 -0.18594731918E-03  0.19832694075E-01  0.10230589512E+01  0.10228460378E+01 0.  0.
     999903    2    3    3    0    0  0.16732253509E-01  0.13039430308E+00 -0.20514202395E-02  0.13309555521E+00  0.20677908701E-01 0.  0.
         14    1    1    2    0    0 -0.64984880841E-02  0.18594731918E-03 -0.19832694075E-01  0.20871048801E-01  0.00000000000E+00 0. -1.
     999901    1    3    3    0    0 -0.10233765425E-01 -0.13058025040E+00  0.21884114314E-01  0.88996339599E+00  0.88000000000E+00 0.  1.
        -11    1    4    4    0    0  0.56445394063E-02  0.72401098436E-01  0.84864116416E-02  0.73116757199E-01  0.51100000000E-03 0. -1.
         11    1    4    4    0    0  0.11087714103E-01  0.57993204641E-01 -0.10537831881E-01  0.59978798007E-01  0.51100000000E-03 0.  1.
</event>
<event>
 8    1  0.1094829E+005  0.1043930E+01  0.7957747E-01            NaN
         13   -1    0    0    0    0  0.00000000000E+00  0.00000000000E+00  0.74505805969E-08  0.10566000000E+00  0.10566000000E+00 0.  1.
     999900   -1    0    0    0    0 -0.00000000000E+00 -0.00000000000E+00 -0.74505805969E-08  0.93827000000E+00  0.93827000000E+00 0. -1.
     999902    2    1    2    0    0  0.20787265338E-02  0.11215089910E-03 -0.23833080940E-01  0.10200061745E+01  0.10197255741E+01 0.  0.
     999903    2    3    3    0    0  0.32508516447E-01 -0.12471095289E+00 -0.52849164257E-02  0.13048337330E+00  0.19706723619E-01 0.  0.
         14    1    1    2    0    0 -0.20787265338E-02 -0.11215089910E-03  0.23833080940E-01  0.23923825549E-01  0.00000000000E+00 0.  1.
     999901    1    3    3    0    0 -0.30429789913E-01  0.12482310379E+00 -0.18548164514E-01  0.88952280115E+00  0.88000000000E+00 0.  1.
        -11    1    4    4    0    0  0.16080274923E-01 -0.28215186651E-01 -0.20506371362E-02  0.32544404020E-01  0.51100000000E-03 0.  1.
         11    1    4    4    0    0  0.16428241524E-01 -0.96495766235E-01 -0.32342792895E-02  0.97938969284E-01  0.51100000000E-03 0. -1.
</event>
<event>
 8    1  0.1094829E+005  0.1043930E+01  0.7957747E-01            NaN
         13   -1    0    0    0    0  0.00000000000E+00  0.00000000000E+00  0.74505805969E-08  0.10566000000E+00  0.10566000000E+00 0.  1.
     999900   -1    0    0    0    0 -0.00000000000E+00 -0.00000000000E+00 -0.74505805969E-08  0.93827000000E+00  0.93827000000E+00 0. -1.
     999902    2    1    2    0    0  0.17559319692E-01  0.15185323702E-01 -0.49755440512E-02  0.10201880582E+01  0.10199117580E+01 0.  0.
     999903    2    3    3    0    0 -0.61208719135E-01  0.23444435031E-01  0.10940033446E+00  0.12925907196E+00  0.21055300324E-01 0.  0.
         14    1    1    2    0    0 -0.17559319692E-01 -0.15185323702E-01  0.49755440512E-02  0.23741941845E-01  0.00000000000E+00 0. -1.
     999901    1    3    3    0    0  0.78768038827E-01 -0.82591113295E-02 -0.11437587851E+00  0.89092898620E+00  0.88000000000E+00 0. -1.
        -11    1    4    4    0    0 -0.36199295839E-01  0.54076338760E-02  0.72110138062E-01  0.80868811391E-01  0.51100000000E-03 0.  1.
         11    1    4    4    0    0 -0.25009423296E-01  0.18036801155E-01  0.37290196397E-01  0.48390260568E-01  0.51100000000E-03 0. -1.
</event>
<event>
 8    1  0.1094829E+005  0.1043930E+01  0.7957747E-01            NaN
         13   -1    0    0    0    0  0.00000000000E+00  0.00000000000E+00  0.74505805969E-08  0.10566000000E+00  0.10566000000E+00 0.  1.
     999900   -1    0    0    0    0 -0.00000000000E+00 -0.00000000000E+00 -0.74505805969E-08  0.93827000000E+00  0.93827000000E+00 0. -1.
     999902    2    1    2    0    0 -0.37437824474E-02 -0.36037245389E-02  0.23093714460E-01  0.10202588702E+01  0.10199842351E+01 0.  0.
     999903    2    3    3    0    0  0.11732349463E+00 -0.28180634408E-01  0.47213008735E-01  0.13130271245E+00  0.21269310148E-01 0.  0.
         14    1    1    2    0    0  0.37437824474E-02  0.36037245389E-02 -0.23093714460E-01  0.23671129781E-01  0.00000000000E+00 0. -1.
     999901    1    3    3    0    0 -0.12106727708E+00  0.24576909869E-01 -0.24119294276E-01  0.88895615777E+00  0.88000000000E+00 0. -1.
        -11    1    4    4    0    0  0.35341785867E-01 -0.18054121919E-01  0.19077138269E-01  0.44036251794E-01  0.51100000000E-03 0.  1.
         11    1    4    4    0    0  0.81981708767E-01 -0.10126512489E-01  0.28135870466E-01  0.87266460656E-01  0.51100000000E-03 0. -1.
</event>
<event>
 8    1  0.1094829E+005  0.1043930E+01  0.7957747E-01            NaN
         13   -1    0    0    0    0  0.00000000000E+00  0.00000000000E+00  0.74505805969E-08  0.10566000000E+00  0.10566000000E+00 0.  1.
     999900   -1    0    0    0    0 -0.00000000000E+00 -0.00000000000E+00 -0.74505805969E-08  0.93827000000E+00  0.93827000000E+00 0.  1.
     999902    2    1    2    0    0 -0.20674494387E-01  0.11768367466E-01 -0.39510852554E-03  0.10201374528E+01  0.10198599597E+01 0.  0.
     999903    2    3    3    0    0 -0.91426293519E-01  0.20767238672E-01 -0.91124031421E-01  0.13260236381E+00  0.22130351020E-01 0.  0.
         14    1    1    2    0    0  0.20674494387E-01 -0.11768367466E-01  0.39510852554E-03  0.23792547188E-01  0.00000000000E+00 0.  1.
     999901    1    3    3    0    0  0.70751799132E-01 -0.89988712065E-02  0.90728922895E-01  0.88753508900E+00  0.88000000000E+00 0. -1.
        -11    1    4    4    0    0 -0.30238244700E-01  0.10358662169E-01 -0.45330175170E-01  0.55468362392E-01  0.51100000000E-03 0. -1.
         11    1    4    4    0    0 -0.61188048819E-01  0.10408576503E-01 -0.45793856251E-01  0.77134001416E-01  0.51100000000E-03 0.  1.
</event>
<event>
 8    1  0.1094829E+005  0.1043930E+01  0.7957747E-01            NaN
         13   -1    0    0    0    0  0.00000000000E+00  0.00000000000E+00  0.74505805969E-08  0.10566000000E+00  0.10566000000E+00 0. -1.
     999900   -1    0    0    0    0 -0.00000000000E+00 -0.00000000000E+00 -0.74505805969E-08  0.93827000000E+00  0.93827000000E+00 0.  1.
     999902    2    1    2    0    0 -0.17529514112E-01 -0.84438806765E-02 -0.13541357098E-01  0.10202244872E+01  0.10199490443E+01 0.  0.
     999903    2    3    3    0    0 -0.63385343251E-01  0.11242158512E+00 -0.66138913319E-02  0.13075317923E+00  0.19908183748E-01 0.  0.
         14    1    1    2    0    0  0.17529514112E-01  0.84438806765E-02  0.13541357098E-01  0.23705512818E-01  0.00000000000E+00 0. -1.
     999901    1    3    3    0    0  0.45855829139E-01 -0.12086546580E+00 -0.69274657662E-02  0.88947130795E+00  0.88000000000E+00 0.  1.
        -11    1    4    4    0    0 -0.15518952129E-01  0.21703747410E-01  0.61604076095E-02  0.27387994993E-01  0.51100000000E-03 0. -1.
         11    1    4    4    0    0 -0.47866391122E-01  0.90717837711E-01 -0.12774298941E-01  0.10336518424E+00  0.51100000000E-03 0.  1.
</event>
<event>
 8    1  0.1094829E+005  0.1043930E+01  0.7957747E-01            NaN
         13   -1    0    0    0    0  0.00000000000E+00  0.00000000000E+00  0.74505805969E-08  0.10566000000E+00  0.10566000000E+00 0.  1.
     999900   -1    0    0    0    0 -0.00000000000E+00 -0.00000000000E+00 -0.74505805969E-08  0.93827000000E+00  0.93827000000E+00 0.  1.
     999902    2    1    2    0    0 -0.20608667472E-01  0.43521667173E-02  0.11237692807E-01  0.10200564944E+01  0.10197770872E+01 0.  0.
     999903    2    3    3    0    0 -0.26851479108E-01 -0.51872369505E-01  0.11652537835E+00  0.13197673002E+00  0.20686923846E-01 0.  0.
         14    1    1    2    0    0  0.20608667472E-01 -0.43521667173E-02 -0.11237692807E-01  0.23873505602E-01  0.00000000000E+00 0. -1.
     999901    1    3    3    0    0  0.62428116356E-02  0.56224536223E-01 -0.10528768554E+00  0.88807976438E+00  0.88000000000E+00 0. -1.
        -11    1    4    4    0    0 -0.31527306796E-02 -0.25608554677E-01  0.59682491602E-01  0.65023062894E-01  0.51100000000E-03 0.  1.
         11    1    4    4    0    0 -0.23698748428E-01 -0.26263814828E-01  0.56842886750E-01  0.66953667125E-01  0.51100000000E-03 0. -1.
</event>
<event>
 8    1  0.1094829E+005  0.1043930E+01  0.7957747E-01            NaN
         13   -1    0    0    0    0  0.00000000000E+00  0.00000000000E+00  0.74505805969E-08  0.10566000000E+00  0.10566000000E+00 0.  1.
     999900   -1    0    0    0    0 -0.00000000000E+00 -0.00000000000E+00 -0.74505805969E-08  0.93827000000E+00  0.93827000000E+00 0. -1.
     999902    2    1    2    0    0  0.14640117857E-01  0.39529079106E-02  0.17856160387E-01  0.10205034980E+01  0.10202345752E+01 0.  0.
     999903    2    3    3    0    0 -0.62198743455E-01  0.58437910988E-01  0.98778834376E-01  0.13178458557E+00  0.18062274052E-01 0.  0.
         14    1    1    2    0    0 -0.14640117857E-01 -0.39529079106E-02 -0.17856160387E-01  0.23426501992E-01  0.00000000000E+00 0. -1.
     999901    1    3    3    0    0  0.76838861312E-01 -0.54485003078E-01 -0.80922673989E-01  0.88871891244E+00  0.88000000000E+00 0. -1.
        -11    1    4    4    0    0 -0.66324519309E-02  0.81389061975E-02  0.47422343994E-02  0.11531744049E-01  0.51100000000E-03 0.  1.
         11    1    4    4    0    0 -0.55566291524E-01  0.50299004791E-01  0.94036599976E-01  0.12025284152E+00  0.51100000000E-03 0. -1.
</event>
<event>
 8    1  0.1094829E+005  0.1043930E+01  0.7957747E-01            NaN
         13   -1    0    0    0    0  0.00000000000E+00  0.00000000000E+00  0.74505805969E-08  0.10566000000E+00  0.10566000000E+00 0. -1.
     999900   -1    0    0    0    0 -0.00000000000E+00 -0.00000000000E+00 -0.74505805969E-08  0.93827000000E+00  0.93827000000E+00 0. -1.
     999902    2    1    2    0    0  0.48114870653E-02  0.71545980912E-02  0.22762625136E-01  0.10195891745E+01  0.10192985868E+01 0.  0.
     999903    2    3    3    0    0  0.93014557369E-02  0.12323672182E+00  0.35022180051E-01  0.13186989685E+00  0.29821299720E-01 0.  0.
         14    1    1    2    0    0 -0.48114870653E-02 -0.71545980912E-02 -0.22762625136E-01  0.24340825473E-01  0.00000000000E+00 0.  1.
     999901    1    3    3    0    0 -0.44899686717E-02 -0.11608212373E+00 -0.12259554915E-01  0.88771927767E+00  0.88000000000E+00 0. -1.
        -11    1    4    4    0    0  0.10374962544E-01  0.28395931997E-01 -0.14006493523E-02  0.30268659392E-01  0.51100000000E-03 0. -1.
         11    1    4    4    0    0 -0.10735068068E-02  0.94840789821E-01  0.36422829404E-01  0.10160123746E+00  0.51100000000E-03 0.  1.
</event>
<event>
 8    1  0.1094829E+005  0.1043930E+01  0.7957747E-01            NaN
         13   -1    0    0    0    0  0.00000000000E+00  0.00000000000E+00  0.74505805969E-08  0.10566000000E+00  0.10566000000E+00 0. -1.
     999900   -1    0    0    0    0 -0.00000000000E+00 -0.00000000000E+00 -0.74505805969E-08  0.93827000000E+00  0.93827000000E+00 0.  1.
     999902    2    1    2    0    0  0.14571994644E-01 -0.29010152464E-02 -0.21416958397E-01  0.10178638337E+01  0.10175300187E+01 0.  0.
     999903    2    3    3    0    0 -0.19603408209E-01  0.10354256036E+00  0.66954202881E-01  0.12640006267E+00  0.19716874535E-01 0.  0.
         14    1    1    2    0    0 -0.14571994644E-01  0.29010152464E-02  0.21416958397E-01  0.26066166276E-01  0.00000000000E+00 0. -1.
     999901    1    3    3    0    0  0.34175402853E-01 -0.10644357561E+00 -0.88371161278E-01  0.89146377105E+00  0.88000000000E+00 0. -1.
        -11    1    4    4    0    0 -0.88688144906E-02  0.67111844752E-01  0.32398904072E-01  0.75050687422E-01  0.51100000000E-03 0. -1.
         11    1    4    4    0    0 -0.10734593719E-01  0.36430715607E-01  0.34555298810E-01  0.51349375252E-01  0.51100000000E-03 0.  1.
</event>
<event>
 8    1  0.1094829E+005  0.1043930E+01  0.7957747E-01            NaN
         13   -1    0    0    0    0  0.00000000000E+00  0.00000000000E+00  0.74505805969E-08  0.10566000000E+00  0.10566000000E+00 0. -1.
     999900   -1    0    0    0    0 -0.00000000000E+00 -0.00000000000E+00 -0.74505805969E-08  0.93827000000E+00  0.93827000000E+00 0.  1.
     999902    2    1    2    0    0  0.14017911014E-01 -0.68937194119E-02  0.17448217955E-01  0.10205106596E+01  0.10202419031E+01 0.  0.
     999903    2    3    3    0    0 -0.68749568448E-01 -0.94354871678E-01 -0.52920567126E-01  0.12952711610E+00  0.18637124490E-01 0.  0.
         14    1    1    2    0    0 -0.14017911014E-01  0.68937194119E-02 -0.17448217955E-01  0.23419340434E-01  0.00000000000E+00 0.  1.
     999901    1    3    3    0    0  0.82767479462E-01  0.87461152266E-01  0.70368785082E-01  0.89098354347E+00  0.88000000000E+00 0.  1.
        -11    1    4    4    0    0 -0.26953289591E-01 -0.40704753386E-01 -0.12446982993E-01  0.50383978352E-01  0.51100000000E-03 0.  1.
         11    1    4    4    0    0 -0.41796278857E-01 -0.53650118292E-01 -0.40473584134E-01  0.79143137749E-01  0.51100000000E-03 0. -1.
</event>
<event>
 8    1  0.1094829E+005  0.1043930E+01  0.7957747E-01            NaN
         13   -1    0    0    0    0  0.00000000000E+00  0.00000000000E+00  0.74505805969E-08  0.10566000000E+00  0.10566000000E+00 0. -1.
     999900   -1    0    0    0    0 -0.00000000000E+00 -0.00000000000E+00 -0.74505805969E-08  0.93827000000E+00  0.93827000000E+00 0. -1.
     999902    2    1    2    0    0  0.42358028052E-02 -0.32466240641E-02  0.22047002236E-01  0.10212462415E+01  0.10209942864E+01 0.  0.
     999903    2    3    3    0    0  0.43669348338E-01  0.12035793588E+00 -0.18143310930E-01  0.13082591768E+00  0.19829177797E-01 0.  0.
         14    1    1    2    0    0 -0.42358028052E-02  0.32466240641E-02 -0.22047002236E-01  0.22683758525E-01  0.00000000000E+00 0.  1.
     999901    1    3    3    0    0 -0.39433545533E-01 -0.12360455994E+00  0.40190313166E-01  0.89042032379E+00  0.88000000000E+00 0.  1.
        -11    1    4    4    0    0  0.38177366103E-01  0.11041162468E+00 -0.21872853358E-01  0.11885672460E+00  0.51100000000E-03 0.  1.
         11    1    4    4    0    0  0.54919822350E-02  0.99463112028E-02  0.37295424285E-02  0.11969193086E-01  0.51100000000E-03 0. -1.
</event>
<event>
 8    1  0.1094829E+005  0.1043930E+01  0.7957747E-01            NaN
         13   -1    0    0    0    0  0.00000000000E+00  0.00000000000E+00  0.74505805969E-08  0.10566000000E+00  0.10566000000E+00 0. -1.
     999900   -1    0    0    0    0 -0.00000000000E+00 -0.00000000000E+00 -0.74505805969E-08  0.93827000000E+00  0.93827000000E+00 0. -1.
     999902    2    1    2    0    0 -0.42281164629E-02  0.21093373414E-02  0.23452562435E-01  0.10200061843E+01  0.10197255842E+01 0.  0.
     999903    2    3    3    0    0 -0.72111415810E-02  0.12300218896E+00 -0.35563125606E-01  0.12977765665E+00  0.19898874594E-01 0.  0.
         14    1    1    2    0    0  0.42281164629E-02 -0.21093373414E-02 -0.23452562435E-01  0.23923815699E-01  0.00000000000E+00 0.  1.
     999901    1    3    3    0    0  0.29830251181E-02 -0.12089285162E+00  0.59015688041E-01  0.89022852765E+00  0.88000000000E+00 0. -1.
        -11    1    4    4    0    0  0.23359322465E-02  0.77707055552E-01 -0.29212000096E-01  0.83050858711E-01  0.51100000000E-03 0.  1.
         11    1    4    4    0    0 -0.95470738275E-02  0.45295133409E-01 -0.63511255094E-02  0.46726797937E-01  0.51100000000E-03 0. -1.
</event>
<event>
 8    1  0.1094829E+005  0.1043930E+01  0.7957747E-01            NaN
         13   -1    0    0    0    0  0.00000000000E+00  0.00000000000E+00  0.74505805969E-08  0.10566000000E+00  0.10566000000E+00 0. -1.
     999900   -1    0    0    0    0 -0.00000000000E+00 -0.00000000000E+00 -0.74505805969E-08  0.93827000000E+00  0.93827000000E+00 0.  1.
     999902    2    1    2    0    0 -0.13312227097E-01  0.19842879433E-01  0.23309962352E-02  0.10199219014E+01  0.10196392971E+01 0.  0.
     999903    2    3    3    0    0 -0.51208630441E-01 -0.11070504848E+00  0.33795583959E-01  0.12892868081E+00  0.24546520121E-01 0.  0.
         14    1    1    2    0    0  0.13312227097E-01 -0.19842879433E-01 -0.23309962352E-02  0.24008098590E-01  0.00000000000E+00 0.  1.
     999901    1    3    3    0    0  0.37896403344E-01  0.13054792791E+00 -0.31464587724E-01  0.89099322060E+00  0.88000000000E+00 0. -1.
        -11    1    4    4    0    0 -0.40619075963E-01 -0.63483206538E-01  0.26992693554E-01  0.80055564896E-01  0.51100000000E-03 0. -1.
         11    1    4    4    0    0 -0.10589554477E-01 -0.47221841943E-01  0.68028904047E-02  0.48873115916E-01  0.51100000000E-03 0.  1.
</event>
<event>
 8    1  0.1094829E+005  0.1043930E+01  0.7957747E-01            NaN
         13   -1    0    0    0    0  0.00000000000E+00  0.00000000000E+00  0.74505805969E-08  0.10566000000E+00  0.10566000000E+00 0. -1.
     999900   -1    0    0    0    0 -0.00000000000E+00 -0.00000000000E+00 -0.74505805969E-08  0.93827000000E+00  0.93827000000E+00 0.  1.
     999902    2    1    2    0    0  0.21043258948E-01  0.88718576431E-02  0.41984064612E-02  0.10207102838E+01  0.10204461417E+01 0.  0.
     999903    2    3    3    0    0  0.28642222901E-01  0.12350112094E+00  0.33600148125E-01  0.13275641409E+00  0.20552170721E-01 0.  0.
         14    1    1    2    0    0 -0.21043258948E-01 -0.88718576431E-02 -0.41984064612E-02  0.23219716234E-01  0.00000000000E+00 0. -1.
     999901    1    3    3    0    0 -0.75989639535E-02 -0.11462926330E+00 -0.29401741663E-01  0.88795386967E+00  0.88000000000E+00 0. -1.
        -11    1    4    4    0    0  0.10013829352E-01  0.15958029380E-01  0.89398697549E-02  0.20859479193E-01  0.51100000000E-03 0. -1.
         11    1    4    4    0    0  0.18628393549E-01  0.10754309156E+00  0.24660278370E-01  0.11189693490E+00  0.51100000000E-03 0.  1.
</event>
<event>
 7    1  0.1094829E+005  0.1043930E+01  0.7957747E-01            NaN
         13   -1    0    0    0    0  0.00000000000E+00  0.00000000000E+00  0.74505805969E-08  0.10566000000E+00  0.10566000000E+00 0. -1.
     999900   -1    0    0    0    0 -0.00000000000E+00 -0.00000000000E+00 -0.74505805969E-08  0.93827000000E+00  0.93827000000E+00 0.  1.
     999902    2    1    2    0    0  0.20661187837E-01  0.57110726900E-02  0.44633349904E-02  0.10220342837E+01  0.10217997136E+01 0.  0.
         14    1    1    2    0    0 -0.20661187837E-01 -0.57110726900E-02 -0.44633349904E-02  0.21895716324E-01  0.00000000000E+00 0.  1.
     999901    1    3    3    0    0 -0.66947975241E-01 -0.51869094830E-01  0.75206459221E-01  0.88725895087E+00  0.88000000000E+00 0. -1.
        -11    1    3    3    0    0  0.36387607754E-01  0.51587524483E-01 -0.39871128929E-01  0.74667922988E-01  0.51100000000E-03 0.  1.
         11    1    3    3    0    0  0.51221555323E-01  0.59926430371E-02 -0.30871995302E-01  0.60107409820E-01  0.51100000000E-03 0. -1.
</event>
<event>
 8    1  0.1094829E+005  0.1043930E+01  0.7957747E-01            NaN
         13   -1    0    0    0    0  0.00000000000E+00  0.00000000000E+00  0.74505805969E-08  0.10566000000E+00  0.10566000000E+00 0.  1.
     999900   -1    0    0    0    0 -0.00000000000E+00 -0.00000000000E+00 -0.74505805969E-08  0.93827000000E+00  0.93827000000E+00 0.  1.
     999902    2    1    2    0    0 -0.21536098520E-03 -0.14629169310E-01 -0.15051717519E-01  0.10229392121E+01  0.10227238232E+01 0.  0.
     999903    2    3    3    0    0 -0.26934251185E-01  0.11704876359E+00  0.46541078215E-01  0.13061267460E+00  0.21627109360E-01 0.  0.
         14    1    1    2    0    0  0.21536098520E-03  0.14629169310E-01  0.15051717519E-01  0.20990787868E-01  0.00000000000E+00 0. -1.
     999901    1    3    3    0    0  0.26718890199E-01 -0.13167793290E+00 -0.61592795734E-01  0.89232653754E+00  0.88000000000E+00 0. -1.
        -11    1    4    4    0    0 -0.23883391334E-01  0.86315083304E-01  0.43527141270E-01  0.99577021122E-01  0.51100000000E-03 0.  1.
         11    1    4    4    0    0 -0.30508598505E-02  0.30733680284E-01  0.30139369448E-02  0.31035653474E-01  0.51100000000E-03 0. -1.
</event>
<event>
 8    1  0.1094829E+005  0.1043930E+01  0.7957747E-01            NaN
         13   -1    0    0    0    0  0.00000000000E+00  0.00000000000E+00  0.74505805969E-08  0.10566000000E+00  0.10566000000E+00 0. -1.
     999900   -1    0    0    0    0 -0.00000000000E+00 -0.00000000000E+00 -0.74505805969E-08  0.93827000000E+00  0.93827000000E+00 0.  1.
     999902    2    1    2    0    0 -0.11946793687E-01 -0.19356974543E-01  0.46896096157E-02  0.10207047814E+01  0.10204405127E+01 0.  0.
     999903    2    3    3    0    0  0.40472780405E-01 -0.71418864695E-02  0.12297603518E+00  0.13116068543E+00  0.19772902597E-01 0.  0.
         14    1    1    2    0    0  0.11946793687E-01  0.19356974543E-01 -0.46896096157E-02  0.23225218648E-01  0.00000000000E+00 0.  1.
     999901    1    3    3    0    0 -0.52419574092E-01 -0.12215088074E-01 -0.11828642556E+00  0.88954409593E+00  0.88000000000E+00 0.  1.
        -11    1    4    4    0    0  0.62329578164E-04 -0.50653773976E-02  0.15759276871E-01  0.16561336349E-01  0.51100000000E-03 0.  1.
         11    1    4    4    0    0  0.40410450827E-01 -0.20765090719E-02  0.10721675831E+00  0.11459934908E+00  0.51100000000E-03 0. -1.
</event>
<event>
 8    1  0.1094829E+005  0.1043930E+01  0.7957747E-01            NaN
         13   -1    0    0    0    0  0.00000000000E+00  0.00000000000E+00  0.74505805969E-08  0.10566000000E+00  0.10566000000E+00 0. -1.
     999900   -1    0    0    0    0 -0.00000000000E+00 -0.00000000000E+00 -0.74505805969E-08  0.93827000000E+00  0.93827000000E+00 0.  1.
     999902    2    1    2    0    0 -0.24161743787E-02 -0.22533978429E-01 -0.32221894685E-02  0.10210389409E+01  0.10207823070E+01 0.  0.
     999903    2    3    3    0    0  0.58093611870E-01 -0.76606465623E-01  0.89100608466E-01  0.13249588221E+00  0.19308600613E-01 0.  0.
         14    1    1    2    0    0  0.24161743787E-02  0.22533978429E-01  0.32221894685E-02  0.22891059116E-01  0.00000000000E+00 0.  1.
     999901    1    3    3    0    0 -0.60509786248E-01  0.54072487194E-01 -0.92322797935E-01  0.88854305868E+00  0.88000000000E+00 0.  1.
        -11    1    4    4    0    0  0.22157867867E-01 -0.34091411078E-01  0.50093982897E-01  0.64520257758E-01  0.51100000000E-03 0. -1.
         11    1    4    4    0    0  0.35935744003E-01 -0.42515054545E-01  0.39006625570E-01  0.67975624450E-01  0.51100000000E-03 0.  1.
</event>
<event>
 8    1  0.1094829E+005  0.1043930E+01  0.7957747E-01            NaN
         13   -1    0    0    0    0  0.00000000000E+00  0.00000000000E+00  0.74505805969E-08  0.10566000000E+00  0.10566000000E+00 0. -1.
     999900   -1    0    0    0    0 -0.00000000000E+00 -0.00000000000E+00 -0.74505805969E-08  0.93827000000E+00  0.93827000000E+00 0.  1.
     999902    2    1    2    0    0 -0.30688221983E-02  0.21464210231E-02 -0.23163892018E-01  0.10204653311E+01  0.10201955211E+01 0.  0.
     999903    2    3    3    0    0 -0.78637418426E-01 -0.89996374510E-01  0.46182728427E-01  0.12972975796E+00  0.20341452580E-01 0.  0.
         14    1    1    2    0    0  0.30688221983E-02 -0.21464210231E-02  0.23163892018E-01  0.23464668894E-01  0.00000000000E+00 0. -1.
     999901    1    3    3    0    0  0.75568596228E-01  0.92142795533E-01 -0.69346620445E-01  0.89073557315E+00  0.88000000000E+00 0. -1.
        -11    1    4    4    0    0 -0.67806416072E-01 -0.84422114896E-01  0.36867820646E-01  0.11438662887E+00  0.51100000000E-03 0.  1.
         11    1    4    4    0    0 -0.10831002354E-01 -0.55742596142E-02  0.93149077801E-02  0.15343129087E-01  0.51100000000E-03 0. -1.
</event>
<event>
 8    1  0.1094829E+005  0.1043930E+01  0.7957747E-01            NaN
         13   -1    0    0    0    0  0.00000000000E+00  0.00000000000E+00  0.74505805969E-08  0.10566000000E+00  0.10566000000E+00 0. -1.
     999900   -1    0    0    0    0 -0.00000000000E+00 -0.00000000000E+00 -0.74505805969E-08  0.93827000000E+00  0.93827000000E+00 0. -1.
     999902    2    1    2    0    0 -0.20198749261E-01  0.20981477016E-02 -0.11198865720E-01  0.10207393491E+01  0.10204758755E+01 0.  0.
     999903    2    3    3    0    0  0.14568822575E-01 -0.12534061495E-01  0.12637007903E+00  0.12925289371E+00  0.19171864001E-01 0.  0.
         14    1    1    2    0    0  0.20198749261E-01 -0.20981477016E-02  0.11198865720E-01  0.23190650894E-01  0.00000000000E+00 0. -1.
     999901    1    3    3    0    0 -0.34767571836E-01  0.14632209197E-01 -0.13756894475E+00  0.89148645540E+00  0.88000000000E+00 0. -1.
        -11    1    4    4    0    0  0.46114048483E-02 -0.15241984489E-01  0.59809876906E-01  0.61895602770E-01  0.51100000000E-03 0.  1.
         11    1    4    4    0    0  0.99574177268E-02  0.27079229942E-02  0.66560202124E-01  0.67357290938E-01  0.51100000000E-03 0. -1.
</event>
<event>
 8    1  0.1094829E+005  0.1043930E+01  0.7957747E-01            NaN
         13   -1    0    0    0    0  0.00000000000E+00  0.00000000000E+00  0.74505805969E-08  0.10566000000E+00  0.10566000000E+00 0. -1.
     999900   -1    0    0    0    0 -0.00000000000E+00 -0.00000000000E+00 -0.74505805969E-08  0.93827000000E+00  0.93827000000E+00 0.  1.
     999902    2    1    2    0    0  0.10810775712E-01 -0.19654428352E-01  0.95428642201E-02  0.10195530502E+01  0.10192615888E+01 0.  0.
     999903    2    3    3    0    0  0.18469667196E-01  0.12467773760E+00  0.37228729863E-02  0.12774348247E+00  0.20466330207E-01 0.  0.
         14    1    1    2    0    0 -0.10810775712E-01  0.19654428352E-01 -0.95428642201E-02  0.24376949827E-01  0.00000000000E+00 0. -1.
     999901    1    3    3    0    0 -0.76588914847E-02 -0.14433216595E+00  0.58199912338E-02  0.89180956770E+00  0.88000000000E+00 0.  1.
        -11    1    4    4    0    0  0.97647498823E-02  0.17461047686E-01 -0.13081689021E-02  0.20055197666E-01  0.51100000000E-03 0.  1.
         11    1    4    4    0    0  0.87049173141E-02  0.10721668991E+00  0.50310418884E-02  0.10768828481E+00  0.51100000000E-03 0. -1.
</event>
<event>
 8    1  0.1094829E+005  0.1043930E+01  0.7957747E-01            NaN
         13   -1    0    0    0    0  0.00000000000E+00  0.00000000000E+00  0.74505805969E-08  0.10566000000E+00  0.10566000000E+00 0.  1.
     999900   -1    0    0    0    0 -0.00000000000E+00 -0.00000000000E+00 -0.74505805969E-08  0.93827000000E+00  0.93827000000E+00 0.  1.
     999902    2    1    2    0    0  0.78881301090E-02  0.44444631371E-02  0.22121752459E-01  0.10200271177E+01  0.10197470143E+01 0.  0.
     999903    2    3    3    0    0 -0.71085155167E-01  0.21639311567E-01 -0.10185119034E+00  0.12766971559E+00  0.20112986208E-01 0.  0.
         14    1    1    2    0    0 -0.78881301090E-02 -0.44444631371E-02 -0.22121752459E-01  0.23902882275E-01  0.00000000000E+00 0. -1.
     999901    1    3    3    0    0  0.78973285276E-01 -0.17194848429E-01  0.12397294280E+00  0.89235740214E+00  0.88000000000E+00 0. -1.
        -11    1    4    4    0    0 -0.43680887542E-01  0.37418949740E-02 -0.64676072843E-01  0.78136273483E-01  0.51100000000E-03 0. -1.
         11    1    4    4    0    0 -0.27404267625E-01  0.17897416593E-01 -0.37175117500E-01  0.49533442106E-01  0.51100000000E-03 0.  1.
</event>
<event>
 8    1  0.1094829E+005  0.1043930E+01  0.7957747E-01            NaN
         13   -1    0    0    0    0  0.00000000000E+00  0.00000000000E+00  0.74505805969E-08  0.10566000000E+00  0.10566000000E+00 0. -1.
     999900   -1    0    0    0    0 -0.00000000000E+00 -0.00000000000E+00 -0.74505805969E-08  0.93827000000E+00  0.93827000000E+00 0. -1.
     999902    2    1    2    0    0 -0.43751213421E-02  0.22399654815E-01 -0.14302450157E-02  0.10210622974E+01  0.10208061928E+01 0.  0.
     999903    2    3    3    0    0  0.68581353465E-01 -0.62992668666E-01 -0.89008392767E-01  0.12961155387E+00  0.14324195104E-01 0.  0.
         14    1    1    2    0    0  0.43751213421E-02 -0.22399654815E-01  0.14302450157E-02  0.22867702626E-01  0.00000000000E+00 0. -1.
     999901    1    3    3    0    0 -0.72956474807E-01  0.85392323481E-01  0.87578147752E-01  0.89145074350E+00  0.88000000000E+00 0.  1.
        -11    1    4    4    0    0  0.59923917222E-01 -0.51134959322E-01 -0.68563739038E-01  0.10443614007E+00  0.51100000000E-03 0.  1.
         11    1    4    4    0    0  0.86574362431E-02 -0.11857709344E-01 -0.20444653729E-01  0.25175413806E-01  0.51100000000E-03 0. -1.
</event>
<event>
 8    1  0.1094829E+005  0.1043930E+01  0.7957747E-01            NaN
         13   -1    0    0    0    0  0.00000000000E+00  0.00000000000E+00  0.74505805969E-08  0.10566000000E+00  0.10566000000E+00 0. -1.
     999900   -1    0    0    0    0 -0.00000000000E+00 -0.00000000000E+00 -0.74505805969E-08  0.93827000000E+00  0.93827000000E+00 0.  1.
     999902    2    1    2    0    0  0.50233673167E-02  0.30511230866E-01 -0.15304370696E-01  0.10094279248E+01  0.10088381150E+01 0.  0.
     999903    2    3    3    0    0 -0.44136101034E-01 -0.10110499371E+00  0.32207371446E-01  0.11701722928E+00  0.22034110049E-01 0.  0.
         14    1    1    2    0    0 -0.50233673167E-02 -0.30511230866E-01  0.15304370696E-01  0.34502075163E-01  0.00000000000E+00 0. -1.
     999901    1    3    3    0    0  0.49159468351E-01  0.13161622458E+00 -0.47511742142E-01  0.89241069556E+00  0.88000000000E+00 0. -1.
        -11    1    4    4    0    0 -0.23516065650E-01 -0.43516100212E-01  0.24993765455E-01  0.55422069196E-01  0.51100000000E-03 0.  1.
         11    1    4    4    0    0 -0.20620035384E-01 -0.57588893498E-01  0.72136059909E-02  0.61595160086E-01  0.51100000000E-03 0. -1.
</event>
<event>
 8    1  0.1094829E+005  0.1043930E+01  0.7957747E-01            NaN
         13   -1    0    0    0    0  0.00000000000E+00  0.00000000000E+00  0.74505805969E-08  0.10566000000E+00  0.10566000000E+00 0. -1.
     999900   -1    0    0    0    0 -0.00000000000E+00 -0.00000000000E+00 -0.74505805969E-08  0.93827000000E+00  0.93827000000E+00 0. -1.
     999902    2    1    2    0    0  0.12892074218E-01 -0.18377464572E-01  0.67169010272E-02  0.10204981085E+01  0.10202290605E+01 0.  0.
     999903    2    3    3    0    0 -0.64343097619E-01  0.10582450470E+00  0.28327199404E-01  0.12816498348E+00  0.16881136166E-01 0.  0.
         14    1    1    2    0    0 -0.12892074218E-01  0.18377464572E-01 -0.67169010272E-02  0.23431891540E-01  0.00000000000E+00 0.  1.
     999901    1    3    3    0    0  0.77235171837E-01 -0.12420196927E+00 -0.21610298377E-01  0.89233312498E+00  0.88000000000E+00 0. -1.
        -11    1    4    4    0    0 -0.42057903908E-01  0.70679510447E-01  0.10597741022E-01  0.82927882608E-01  0.51100000000E-03 0. -1.
         11    1    4    4    0    0 -0.22285193711E-01  0.35144994253E-01  0.17729458382E-01  0.45237100872E-01  0.51100000000E-03 0.  1.
</event>
<event>
 8    1  0.1094829E+005  0.1043930E+01  0.7957747E-01            NaN
         13   -1    0    0    0    0  0.00000000000E+00  0.00000000000E+00  0.74505805969E-08  0.10566000000E+00  0.10566000000E+00 0.  1.
     999900   -1    0    0    0    0 -0.00000000000E+00 -0.00000000000E+00 -0.74505805969E-08  0.93827000000E+00  0.93827000000E+00 0.  1.
     999902    2    1    2    0    0  0.15659769997E-01 -0.16422781177E-01 -0.55396947918E-02  0.10205713965E+01  0.10203040483E+01 0.  0.
     999903    2    3    3    0    0 -0.16031932595E-01  0.11816694055E+00 -0.44982255066E-01  0.12890191024E+00  0.19283425326E-01 0.  0.
         14    1    1    2    0    0 -0.15659769997E-01  0.16422781177E-01  0.55396947918E-02  0.23358603475E-01  0.00000000000E+00 0.  1.
     999901    1    3    3    0    0  0.31691702592E-01 -0.13458972172E+00  0.39442560275E-01  0.89166948628E+00  0.88000000000E+00 0. -1.
        -11    1    4    4    0    0 -0.17399491788E-01  0.61088778168E-01 -0.20160018943E-01  0.66642843707E-01  0.51100000000E-03 0. -1.
         11    1    4    4    0    0  0.13675591935E-02  0.57078162379E-01 -0.24822236123E-01  0.62259066535E-01  0.51100000000E-03 0.  1.
</event>
<event>
 8    1  0.1094829E+005  0.1043930E+01  0.7957747E-01            NaN
         13   -1    0    0    0    0  0.00000000000E+00  0.00000000000E+00  0.74505805969E-08  0.10566000000E+00  0.10566000000E+00 0.  1.
     999900   -1    0    0    0    0 -0.00000000000E+00 -0.00000000000E+00 -0.74505805969E-08  0.93827000000E+00  0.93827000000E+00 0.  1.
     999902    2    1    2    0    0 -0.65978496635E-02 -0.18915251711E-01 -0.12188949743E-01  0.10204802908E+01  0.10202108287E+01 0.  0.
     999903    2    3    3    0    0 -0.98520833341E-01  0.25394534557E-01  0.78390934929E-01  0.12996476165E+00  0.19861107810E-01 0.  0.
         14    1    1    2    0    0  0.65978496635E-02  0.18915251711E-01  0.12188949743E-01  0.23449709238E-01  0.00000000000E+00 0.  1.
     999901    1    3    3    0    0  0.91922983678E-01 -0.44309786269E-01 -0.90579884673E-01  0.89051552911E+00  0.88000000000E+00 0.  1.
        -11    1    4    4    0    0 -0.59526631389E-01  0.67121746518E-02  0.39087456281E-01  0.71530157923E-01  0.51100000000E-03 0.  1.
         11    1    4    4    0    0 -0.38994201953E-01  0.18682359906E-01  0.39303478648E-01  0.58434603724E-01  0.51100000000E-03 0. -1.
</event>
<event>
 8    1  0.1094829E+005  0.1043930E+01  0.7957747E-01            NaN
         13   -1    0    0    0    0  0.00000000000E+00  0.00000000000E+00  0.74505805969E-08  0.10566000000E+00  0.10566000000E+00 0.  1.
     999900   -1    0    0    0    0 -0.00000000000E+00 -0.00000000000E+00 -0.74505805969E-08  0.93827000000E+00  0.93827000000E+00 0. -1.
     999902    2    1    2    0    0  0.47030624588E-02 -0.23393373547E-01  0.23087847145E-02  0.10199571151E+01  0.10196753491E+01 0.  0.
     999903    2    3    3    0    0 -0.46146416474E-01  0.66499558332E-01  0.98040548072E-01  0.12876073989E+00  0.20388625749E-01 0.  0.
         14    1    1    2    0    0 -0.47030624588E-02  0.23393373547E-01 -0.23087847145E-02  0.23972884876E-01  0.00000000000E+00 0.  1.
     999901    1    3    3    0    0  0.50849478933E-01 -0.89892931879E-01 -0.95731763357E-01  0.89119637523E+00  0.88000000000E+00 0. -1.
        -11    1    4    4    0    0 -0.45166201920E-01  0.60756517819E-01  0.81600850488E-01  0.11131172523E+00  0.51100000000E-03 0. -1.
         11    1    4    4    0    0 -0.98021455375E-03  0.57430405131E-02  0.16439697584E-01  0.17449014659E-01  0.51100000000E-03 0.  1.
</event>
<event>
 8    1  0.1094829E+005  0.1043930E+01  0.7957747E-01            NaN
         13   -1    0    0    0    0  0.00000000000E+00  0.00000000000E+00  0.74505805969E-08  0.10566000000E+00  0.10566000000E+00 0. -1.
     999900   -1    0    0    0    0 -0.00000000000E+00 -0.00000000000E+00 -0.74505805969E-08  0.93827000000E+00  0.93827000000E+00 0. -1.
     999902    2    1    2    0    0  0.62719374983E-02  0.20978525504E-01 -0.10000962213E-01  0.10198581289E+01  0.10195740033E+01 0.  0.
     999903    2    3    3    0    0 -0.90157078277E-02  0.89867378929E-01 -0.95330415401E-01  0.13291929122E+00  0.20548019259E-01 0.  0.
         14    1    1    2    0    0 -0.62719374983E-02 -0.20978525504E-01  0.10000962213E-01  0.24071871084E-01  0.00000000000E+00 0.  1.
     999901    1    3    3    0    0  0.15287645326E-01 -0.68888853426E-01  0.85329453188E-01  0.88693883769E+00  0.88000000000E+00 0.  1.
        -11    1    4    4    0    0 -0.12528902801E-01  0.76646327169E-01 -0.72198309249E-01  0.10604003892E+00  0.51100000000E-03 0. -1.
         11    1    4    4    0    0  0.35131949733E-02  0.13221051761E-01 -0.23132106152E-01  0.26879252308E-01  0.51100000000E-03 0.  1.
</event>
<event>
 8    1  0.1094829E+005  0.1043930E+01  0.7957747E-01            NaN
         13   -1    0    0    0    0  0.00000000000E+00  0.00000000000E+00  0.74505805969E-08  0.10566000000E+00  0.10566000000E+00 0.  1.
     999900   -1    0    0    0    0 -0.00000000000E+00 -0.00000000000E+00 -0.74505805969E-08  0.93827000000E+00  0.93827000000E+00 0. -1.
     999902    2    1    2    0    0  0.20549322632E-01  0.10165753238E-01 -0.10775667858E-01  0.10185975659E+01  0.10182825094E+01 0.  0.
     999903    2    3    3    0    0 -0.20073663102E-01  0.70183154095E-01 -0.10668014356E+00  0.13042529442E+00  0.17363102418E-01 0.  0.
         14    1    1    2    0    0 -0.20549322632E-01 -0.10165753238E-01  0.10775667858E-01  0.25332434098E-01  0.00000000000E+00 0.  1.
     999901    1    3    3    0    0  0.40622985734E-01 -0.60017400858E-01  0.95904475698E-01  0.88817227148E+00  0.88000000000E+00 0.  1.
        -11    1    4    4    0    0 -0.80442106311E-02  0.73598012709E-02 -0.12766504099E-01  0.16796450439E-01  0.51100000000E-03 0. -1.
         11    1    4    4    0    0 -0.12029452471E-01  0.62823352824E-01 -0.93913639457E-01  0.11362884398E+00  0.51100000000E-03 0.  1.
</event>
<event>
 8    1  0.1094829E+005  0.1043930E+01  0.7957747E-01            NaN
         13   -1    0    0    0    0  0.00000000000E+00  0.00000000000E+00  0.74505805969E-08  0.10566000000E+00  0.10566000000E+00 0. -1.
     999900   -1    0    0    0    0 -0.00000000000E+00 -0.00000000000E+00 -0.74505805969E-08  0.93827000000E+00  0.93827000000E+00 0. -1.
     999902    2    1    2    0    0  0.17526603722E-01 -0.44749415736E-02 -0.10535919956E-01  0.10229964731E+01  0.10227822698E+01 0.  0.
     999903    2    3    3    0    0 -0.12729745385E-01  0.76465442522E-01 -0.10613325738E+00  0.13361149268E+00  0.24057272009E-01 0.  0.
         14    1    1    2    0    0 -0.17526603722E-01  0.44749415736E-02  0.10535919956E-01  0.20933526923E-01  0.00000000000E+00 0. -1.
     999901    1    3    3    0    0  0.30256349106E-01 -0.80940384096E-01  0.95597337420E-01  0.88938498040E+00  0.88000000000E+00 0.  1.
        -11    1    4    4    0    0 -0.16862809147E-01  0.48643684081E-01 -0.55612221154E-01  0.75786163618E-01  0.51100000000E-03 0.  1.
         11    1    4    4    0    0  0.41330637624E-02  0.27821758441E-01 -0.50521036223E-01  0.57825329060E-01  0.51100000000E-03 0. -1.
</event>
<event>
 8    1  0.1094829E+005  0.1043930E+01  0.7957747E-01            NaN
         13   -1    0    0    0    0  0.00000000000E+00  0.00000000000E+00  0.74505805969E-08  0.10566000000E+00  0.10566000000E+00 0. -1.
     999900   -1    0    0    0    0 -0.00000000000E+00 -0.00000000000E+00 -0.74505805969E-08  0.93827000000E+00  0.93827000000E+00 0.  1.
     999902    2    1    2    0    0 -0.84027975668E-02  0.20856352168E-01 -0.61875937181E-02  0.10206087490E+01  0.10203422650E+01 0.  0.
     999903    2    3    3    0    0  0.11981481635E+00  0.43955847474E-01  0.18934643214E-01  0.13066241915E+00  0.20650431516E-01 0.  0.
         14    1    1    2    0    0  0.84027975668E-02 -0.20856352168E-01  0.61875937181E-02  0.23321251011E-01  0.00000000000E+00 0. -1.
     999901    1    3    3    0    0 -0.12821761391E+00 -0.23099495306E-01 -0.25122236932E-01  0.88994632984E+00  0.88000000000E+00 0. -1.
        -11    1    4    4    0    0  0.93662293382E-01  0.35082642946E-01  0.23304096104E-01  0.10269741503E+00  0.51100000000E-03 0.  1.
         11    1    4    4    0    0  0.26152522965E-01  0.88732045280E-02 -0.43694528895E-02  0.27965004123E-01  0.51100000000E-03 0. -1.
</event>
<event>
 8    1  0.1094829E+005  0.1043930E+01  0.7957747E-01            NaN
         13   -1    0    0    0    0  0.00000000000E+00  0.00000000000E+00  0.74505805969E-08  0.10566000000E+00  0.10566000000E+00 0. -1.
     999900   -1    0    0    0    0 -0.00000000000E+00 -0.00000000000E+00 -0.74505805969E-08  0.93827000000E+00  0.93827000000E+00 0. -1.
     999902    2    1    2    0    0 -0.22352184450E-01  0.46410169984E-02 -0.48465123538E-02  0.10205923079E+01  0.10203254438E+01 0.  0.
     999903    2    3    3    0    0 -0.36445747470E-02  0.12086591253E+00 -0.47905215955E-01  0.13170972123E+00  0.20753053158E-01 0.  0.
         14    1    1    2    0    0  0.22352184450E-01 -0.46410169984E-02  0.48465123538E-02  0.23337692056E-01  0.00000000000E+00 0. -1.
     999901    1    3    3    0    0 -0.18707609703E-01 -0.11622489553E+00  0.43058703601E-01  0.88888258671E+00  0.88000000000E+00 0. -1.
        -11    1    4    4    0    0 -0.11669458115E-01  0.49470064193E-01 -0.18973263969E-01  0.54255961613E-01  0.51100000000E-03 0.  1.
         11    1    4    4    0    0  0.80248833681E-02  0.71395848335E-01 -0.28931951986E-01  0.77453759620E-01  0.51100000000E-03 0. -1.
</event>
<event>
 8    1  0.1094829E+005  0.1043930E+01  0.7957747E-01            NaN
         13   -1    0    0    0    0  0.00000000000E+00  0.00000000000E+00  0.74505805969E-08  0.10566000000E+00  0.10566000000E+00 0. -1.
     999900   -1    0    0    0    0 -0.00000000000E+00 -0.00000000000E+00 -0.74505805969E-08  0.93827000000E+00  0.93827000000E+00 0.  1.
     999902    2    1    2    0    0  0.19521845519E-01  0.46678041014E-02 -0.12688826065E-01  0.10201834812E+01  0.10199070733E+01 0.  0.
     999903    2    3    3    0    0 -0.12515585865E+00  0.18366542376E-01  0.25055046665E-02  0.12813518588E+00  0.20273861827E-01 0.  0.
         14    1    1    2    0    0 -0.19521845519E-01 -0.46678041014E-02  0.12688826065E-01  0.23746518787E-01  0.00000000000E+00 0. -1.
     999901    1    3    3    0    0  0.14467770417E+00 -0.13698738275E-01 -0.15194330731E-01  0.89204829533E+00  0.88000000000E+00 0. -1.
        -11    1    4    4    0    0 -0.61291028308E-01  0.13504939198E-01  0.10328817973E-01  0.63607539926E-01  0.51100000000E-03 0.  1.
         11    1    4    4    0    0 -0.63864830346E-01  0.48616031782E-02 -0.78233133067E-02  0.64527645957E-01  0.51100000000E-03 0. -1.
</event>
<event>
 8    1  0.1094829E+005  0.1043930E+01  0.7957747E-01            NaN
         13   -1    0    0    0    0  0.00000000000E+00  0.00000000000E+00  0.74505805969E-08  0.10566000000E+00  0.10566000000E+00 0.  1.
     999900   -1    0    0    0    0 -0.00000000000E+00 -0.00000000000E+00 -0.74505805969E-08  0.93827000000E+00  0.93827000000E+00 0. -1.
     999902    2    1    2    0    0 -0.10094137424E-01 -0.21335150241E-01  0.93498867138E-02  0.10185429831E+01  0.10182265503E+01 0.  0.
     999903    2    3    3    0    0  0.58826618944E-01 -0.11497795462E+00 -0.13716601431E-02  0.13083019336E+00  0.20836431995E-01 0.  0.
         14    1    1    2    0    0  0.10094137424E-01  0.21335150241E-01 -0.93498867138E-02  0.25387016912E-01  0.00000000000E+00 0.  1.
     999901    1    3    3    0    0 -0.68920756368E-01  0.93642804383E-01  0.10721546857E-01  0.88771278972E+00  0.88000000000E+00 0.  1.
        -11    1    4    4    0    0  0.23090365153E-02 -0.21161110616E-01  0.12760951455E-03  0.21293230316E-01  0.51100000000E-03 0.  1.
         11    1    4    4    0    0  0.56517582428E-01 -0.93816844009E-01 -0.14992696577E-02  0.10953696305E+00  0.51100000000E-03 0. -1.
</event>
<event>
 8    1  0.1094829E+005  0.1043930E+01  0.7957747E-01            NaN
         13   -1    0    0    0    0  0.00000000000E+00  0.00000000000E+00  0.74505805969E-08  0.10566000000E+00  0.10566000000E+00 0. -1.
     999900   -1    0    0    0    0 -0.00000000000E+00 -0.00000000000E+00 -0.74505805969E-08  0.93827000000E+00  0.93827000000E+00 0. -1.
     999902    2    1    2    0    0 -0.73380884081E-02  0.21961940529E-01 -0.56800092320E-02  0.10200880857E+01  0.10198094262E+01 0.  0.
     999903    2    3    3    0    0  0.40252274304E-01  0.23350060017E-01  0.11965127085E+00  0.12993377363E+00  0.20022188297E-01 0.  0.
         14    1    1    2    0    0  0.73380884081E-02 -0.21961940529E-01  0.56800092320E-02  0.23841914314E-01  0.00000000000E+00 0. -1.
     999901    1    3    3    0    0 -0.47590362712E-01 -0.13881194878E-02 -0.12533128008E+00  0.89015431205E+00  0.88000000000E+00 0. -1.
        -11    1    4    4    0    0  0.40755486517E-02  0.10009363328E-01  0.40025220030E-01  0.41461751175E-01  0.51100000000E-03 0.  1.
         11    1    4    4    0    0  0.36176725653E-01  0.13340696689E-01  0.79626050823E-01  0.88472022458E-01  0.51100000000E-03 0. -1.
</event>
<event>
 8    1  0.1094829E+005  0.1043930E+01  0.7957747E-01            NaN
         13   -1    0    0    0    0  0.00000000000E+00  0.00000000000E+00  0.74505805969E-08  0.10566000000E+00  0.10566000000E+00 0. -1.
     999900   -1    0    0    0    0 -0.00000000000E+00 -0.00000000000E+00 -0.74505805969E-08  0.93827000000E+00  0.93827000000E+00 0.  1.
     999902    2    1    2    0    0 -0.16475172864E-01 -0.15987820329E-01  0.17578639131E-02  0.10209054087E+01  0.10206457376E+01 0.  0.
     999903    2    3    3    0    0  0.12535353824E+00 -0.24529366856E-01 -0.53169484421E-02  0.12948048516E+00  0.20535985713E-01 0.  0.
         14    1    1    2    0    0  0.16475172864E-01  0.15987820329E-01 -0.17578639131E-02  0.23024591317E-01  0.00000000000E+00 0.  1.
     999901    1    3    3    0    0 -0.14182871110E+00  0.85415465268E-02  0.70748123552E-02  0.89142492352E+00  0.88000000000E+00 0. -1.
        -11    1    4    4    0    0  0.69049492813E-01 -0.18445991900E-01 -0.11930464897E-01  0.72461604926E-01  0.51100000000E-03 0. -1.
         11    1    4    4    0    0  0.56304045426E-01 -0.60833749556E-02  0.66135164545E-02  0.57018880233E-01  0.51100000000E-03 0.  1.
</event>
<event>
 8    1  0.1094829E+005  0.1043930E+01  0.7957747E-01            NaN
         13   -1    0    0    0    0  0.00000000000E+00  0.00000000000E+00  0.74505805969E-08  0.10566000000E+00  0.10566000000E+00 0.  1.
     999900   -1    0    0    0    0 -0.00000000000E+00 -0.00000000000E+00 -0.74505805969E-08  0.93827000000E+00  0.93827000000E+00 0.  1.
     999902    2    1    2    0    0 -0.14961744842E-01 -0.13192027728E-01  0.10611111505E-01  0.10213362156E+01  0.10210862776E+01 0.  0.
     999903    2    3    3    0    0  0.78032193835E-01  0.63417712635E-01  0.80625949838E-01  0.13037100727E+00  0.19627180069E-01 0.  0.
         14    1    1    2    0    0  0.14961744842E-01  0.13192027728E-01 -0.10611111505E-01  0.22593784359E-01  0.00000000000E+00 0. -1.
     999901    1    3    3    0    0 -0.92993938678E-01 -0.76609740363E-01 -0.70014838333E-01  0.89096520838E+00  0.88000000000E+00 0.  1.
        -11    1    4    4    0    0  0.62004264577E-01  0.59513115728E-01  0.67759116206E-01  0.10944358693E+00  0.51100000000E-03 0.  1.
         11    1    4    4    0    0  0.16027929258E-01  0.39045969075E-02  0.12866833632E-01  0.20927420338E-01  0.51100000000E-03 0. -1.
</event>
<event>
 8    1  0.1094829E+005  0.1043930E+01  0.7957747E-01            NaN
         13   -1    0    0    0    0  0.00000000000E+00  0.00000000000E+00  0.74505805969E-08  0.10566000000E+00  0.10566000000E+00 0.  1.
     999900   -1    0    0    0    0 -0.00000000000E+00 -0.00000000000E+00 -0.74505805969E-08  0.93827000000E+00  0.93827000000E+00 0. -1.
     999902    2    1    2    0    0  0.15400861298E-01 -0.18147523116E-01  0.47810611379E-02  0.10196528982E+01  0.10193638483E+01 0.  0.
     999903    2    3    3    0    0  0.11573996694E+00 -0.62057242396E-01  0.30174963066E-02  0.13286142911E+00  0.19905094320E-01 0.  0.
         14    1    1    2    0    0 -0.15400861298E-01  0.18147523116E-01 -0.47810611379E-02  0.24277101754E-01  0.00000000000E+00 0. -1.
     999901    1    3    3    0    0 -0.10033910564E+00  0.43909719280E-01  0.17635648313E-02  0.88679146913E+00  0.88000000000E+00 0.  1.
        -11    1    4    4    0    0  0.17970226491E-01 -0.15053139403E-01 -0.53700873183E-02  0.24054625435E-01  0.51100000000E-03 0. -1.
         11    1    4    4    0    0  0.97769740452E-01 -0.47004102993E-01  0.83875836250E-02  0.10880680368E+00  0.51100000000E-03 0.  1.
</event>
<event>
 8    1  0.1094829E+005  0.1043930E+01  0.7957747E-01            NaN
         13   -1    0    0    0    0  0.00000000000E+00  0.00000000000E+00  0.74505805969E-08  0.10566000000E+00  0.10566000000E+00 0. -1.
     999900   -1    0    0    0    0 -0.00000000000E+00 -0.00000000000E+00 -0.74505805969E-08  0.93827000000E+00  0.93827000000E+00 0.  1.
     999902    2    1    2    0    0  0.61658592786E-02 -0.17484802100E-01 -0.14778535533E-01  0.10202204821E+01  0.10199449450E+01 0.  0.
     999903    2    3    3    0    0  0.85858963891E-01 -0.75016119192E-01 -0.66820609185E-01  0.13322035767E+00  0.16837163236E-01 0.  0.
         14    1    1    2    0    0 -0.61658592786E-02  0.17484802100E-01  0.14778535533E-01  0.23709517870E-01  0.00000000000E+00 0. -1.
     999901    1    3    3    0    0 -0.79693104613E-01  0.57531317091E-01  0.52042073652E-01  0.88700012446E+00  0.88000000000E+00 0. -1.
        -11    1    4    4    0    0  0.36735672223E-01 -0.39462397869E-01 -0.38746486028E-01  0.66395344413E-01  0.51100000000E-03 0. -1.
         11    1    4    4    0    0  0.49123291668E-01 -0.35553721322E-01 -0.28074123157E-01  0.66825013253E-01  0.51100000000E-03 0.  1.
</event>
<event>
 8    1  0.1094829E+005  0.1043930E+01  0.7957747E-01            NaN
         13   -1    0    0    0    0  0.00000000000E+00  0.00000000000E+00  0.74505805969E-08  0.10566000000E+00  0.10566000000E+00 0. -1.
     999900   -1    0    0    0    0 -0.00000000000E+00 -0.00000000000E+00 -0.74505805969E-08  0.93827000000E+00  0.93827000000E+00 0.  1.
     999902    2    1    2    0    0  0.12218256907E-02  0.21137988551E-01  0.11279415341E-01  0.10199397389E+01  0.10196575593E+01 0.  0.
     999903    2    3    3    0    0 -0.74934733199E-01 -0.59479021424E-01  0.85611024284E-01  0.12987001586E+00  0.19596053445E-01 0.  0.
         14    1    1    2    0    0 -0.12218256907E-02 -0.21137988551E-01 -0.11279415341E-01  0.23990261117E-01  0.00000000000E+00 0.  1.
     999901    1    3    3    0    0  0.76156558890E-01  0.80617009975E-01 -0.74331608943E-01  0.89006972303E+00  0.88000000000E+00 0.  1.
        -11    1    4    4    0    0 -0.53895340761E-01 -0.40475211476E-01  0.47910657143E-01  0.82696086295E-01  0.51100000000E-03 0. -1.
         11    1    4    4    0    0 -0.21039392439E-01 -0.19003809948E-01  0.37700367141E-01  0.47173929562E-01  0.51100000000E-03 0.  1.
</event>
<event>
 8    1  0.1094829E+005  0.1043930E+01  0.7957747E-01            NaN
         13   -1    0    0    0    0  0.00000000000E+00  0.00000000000E+00  0.74505805969E-08  0.10566000000E+00  0.10566000000E+00 0.  1.
     999900   -1    0    0    0    0 -0.00000000000E+00 -0.00000000000E+00 -0.74505805969E-08  0.93827000000E+00  0.93827000000E+00 0. -1.
     999902    2    1    2    0    0  0.17861121238E-01  0.34901729564E-02  0.90801791307E-02  0.10235915976E+01  0.10233895192E+01 0.  0.
     999903    2    3    3    0    0 -0.12580505264E+00  0.31508108643E-01 -0.52292321623E-02  0.13138661359E+00  0.20381981828E-01 0.  0.
         14    1    1    2    0    0 -0.17861121238E-01 -0.34901729564E-02 -0.90801791307E-02  0.20338402400E-01  0.00000000000E+00 0. -1.
     999901    1    3    3    0    0  0.14366617387E+00 -0.28017935687E-01  0.14309411293E-01  0.89220498401E+00  0.88000000000E+00 0.  1.
        -11    1    4    4    0    0 -0.90948584265E-01  0.27226832967E-01 -0.11756634445E-01  0.95663080588E-01  0.51100000000E-03 0. -1.
         11    1    4    4    0    0 -0.34856468371E-01  0.42812756763E-02  0.65274022828E-02  0.35723533004E-01  0.51100000000E-03 0.  1.
</event>
<event>
 8    1  0.1094829E+005  0.1043930E+01  0.7957747E-01            NaN
         13   -1    0    0    0    0  0.00000000000E+00  0.00000000000E+00  0.74505805969E-08  0.10566000000E+00  0.10566000000E+00 0.  1.
     999900   -1    0    0    0    0 -0.00000000000E+00 -0.00000000000E+00 -0.74505805969E-08  0.93827000000E+00  0.93827000000E+00 0. -1.
     999902    2    1    2    0    0 -0.26489877774E-02  0.83392738523E-02  0.22244065764E-01  0.10200268812E+01  0.10197467722E+01 0.  0.
     999903    2    3    3    0    0 -0.11933822648E+00 -0.21267383527E-01 -0.41249851181E-01  0.12956384996E+00  0.19781989123E-01 0.  0.
         14    1    1    2    0    0  0.26489877774E-02 -0.83392738523E-02 -0.22244065764E-01  0.23903118758E-01  0.00000000000E+00 0. -1.
     999901    1    3    3    0    0  0.11668923870E+00  0.29606657379E-01  0.63493916945E-01  0.89046303128E+00  0.88000000000E+00 0.  1.
        -11    1    4    4    0    0 -0.86443430625E-01 -0.13502669704E-01 -0.20372342632E-01  0.89833636533E-01  0.51100000000E-03 0. -1.
         11    1    4    4    0    0 -0.32894795852E-01 -0.77647138225E-02 -0.20877508549E-01  0.39730213428E-01  0.51100000000E-03 0.  1.
</event>
<event>
 8    1  0.1094829E+005  0.1043930E+01  0.7957747E-01            NaN
         13   -1    0    0    0    0  0.00000000000E+00  0.00000000000E+00  0.74505805969E-08  0.10566000000E+00  0.10566000000E+00 0. -1.
     999900   -1    0    0    0    0 -0.00000000000E+00 -0.00000000000E+00 -0.74505805969E-08  0.93827000000E+00  0.93827000000E+00 0.  1.
     999902    2    1    2    0    0  0.10053174036E-01  0.10666950075E-01 -0.19174431020E-01  0.10197947781E+01  0.10195091370E+01 0.  0.
     999903    2    3    3    0    0  0.63944692051E-01 -0.65940508044E-01  0.85395026991E-01  0.12866753133E+00  0.28739323951E-01 0.  0.
         14    1    1    2    0    0 -0.10053174036E-01 -0.10666950075E-01  0.19174431020E-01  0.24135221919E-01  0.00000000000E+00 0. -1.
     999901    1    3    3    0    0 -0.53891518014E-01  0.76607458120E-01 -0.10456945801E+00  0.89112724675E+00  0.88000000000E+00 0.  1.
        -11    1    4    4    0    0  0.60968311353E-01 -0.50947698064E-01  0.79140756534E-01  0.11214420802E+00  0.51100000000E-03 0.  1.
         11    1    4    4    0    0  0.29763806977E-02 -0.14992809981E-01  0.62542704569E-02  0.16523323307E-01  0.51100000000E-03 0. -1.
</event>
<event>
 8    1  0.1094829E+005  0.1043930E+01  0.7957747E-01            NaN
         13   -1    0    0    0    0  0.00000000000E+00  0.00000000000E+00  0.74505805969E-08  0.10566000000E+00  0.10566000000E+00 0. -1.
     999900   -1    0    0    0    0 -0.00000000000E+00 -0.00000000000E+00 -0.74505805969E-08  0.93827000000E+00  0.93827000000E+00 0.  1.
     999902    2    1    2    0    0 -0.96706241149E-02 -0.15578900543E-01  0.15359206652E-01  0.10200107955E+01  0.10197303049E+01 0.  0.
     999903    2    3    3    0    0 -0.22072846972E-01 -0.26274427297E-01  0.12679075543E+00  0.13283257247E+00  0.19774745110E-01 0.  0.
         14    1    1    2    0    0  0.96706241149E-02  0.15578900543E-01 -0.15359206652E-01  0.23919204457E-01  0.00000000000E+00 0.  1.
     999901    1    3    3    0    0  0.12402222857E-01  0.10695526754E-01 -0.11143154878E+00  0.88717822307E+00  0.88000000000E+00 0.  1.
        -11    1    4    4    0    0 -0.24935092481E-01 -0.21158527108E-01  0.94237103145E-01  0.99751365086E-01  0.51100000000E-03 0.  1.
         11    1    4    4    0    0  0.28622455092E-02 -0.51159001891E-02  0.32553652286E-01  0.33081207388E-01  0.51100000000E-03 0. -1.
</event>
<event>
 8    1  0.1094829E+005  0.1043930E+01  0.7957747E-01            NaN
         13   -1    0    0    0    0  0.00000000000E+00  0.00000000000E+00  0.74505805969E-08  0.10566000000E+00  0.10566000000E+00 0.  1.
     999900   -1    0    0    0    0 -0.00000000000E+00 -0.00000000000E+00 -0.74505805969E-08  0.93827000000E+00  0.93827000000E+00 0.  1.
     999902    2    1    2    0    0 -0.23038369496E-01 -0.33755464148E-02 -0.16660986006E-02  0.10205861214E+01  0.10203191141E+01 0.  0.
     999903    2    3    3    0    0 -0.79669921890E-01 -0.39543508589E-02  0.10361900420E+00  0.13250255519E+00  0.21379797846E-01 0.  0.
         14    1    1    2    0    0  0.23038369496E-01  0.33755464148E-02  0.16660986006E-02  0.23343878580E-01  0.00000000000E+00 0.  1.
     999901    1    3    3    0    0  0.56631552394E-01  0.57880444414E-03 -0.10528510280E+00  0.88808356623E+00  0.88000000000E+00 0.  1.
        -11    1    4    4    0    0 -0.59925249467E-01  0.41547785408E-02  0.85537427490E-01  0.10452373095E+00  0.51100000000E-03 0.  1.
         11    1    4    4    0    0 -0.19744672423E-01 -0.81091293997E-02  0.18081576706E-01  0.27978824241E-01  0.51100000000E-03 0. -1.
</event>
<event>
 8    1  0.1094829E+005  0.1043930E+01  0.7957747E-01            NaN
         13   -1    0    0    0    0  0.00000000000E+00  0.00000000000E+00  0.74505805969E-08  0.10566000000E+00  0.10566000000E+00 0. -1.
     999900   -1    0    0    0    0 -0.00000000000E+00 -0.00000000000E+00 -0.74505805969E-08  0.93827000000E+00  0.93827000000E+00 0.  1.
     999902    2    1    2    0    0  0.50173483514E-02  0.19117446357E-02 -0.24112561594E-01  0.10192268792E+01  0.10189274690E+01 0.  0.
     999903    2    3    3    0    0 -0.55167288240E-01  0.92269190774E-03 -0.11837417445E+00  0.13214829169E+00  0.20160475387E-01 0.  0.
         14    1    1    2    0    0 -0.50173483514E-02 -0.19117446357E-02  0.24112561594E-01  0.24703120829E-01  0.00000000000E+00 0. -1.
     999901    1    3    3    0    0  0.60184636592E-01  0.98905272794E-03  0.94261612857E-01  0.88707858748E+00  0.88000000000E+00 0. -1.
        -11    1    4    4    0    0 -0.25223815307E-01 -0.26419159733E-02 -0.33129995291E-01  0.41726230211E-01  0.51100000000E-03 0.  1.
         11    1    4    4    0    0 -0.29943472933E-01  0.35646078810E-02 -0.85244179160E-01  0.90422061480E-01  0.51100000000E-03 0. -1.
</event>
<event>
 8    1  0.1094829E+005  0.1043930E+01  0.7957747E-01            NaN
         13   -1    0    0    0    0  0.00000000000E+00  0.00000000000E+00  0.74505805969E-08  0.10566000000E+00  0.10566000000E+00 0. -1.
     999900   -1    0    0    0    0 -0.00000000000E+00 -0.00000000000E+00 -0.74505805969E-08  0.93827000000E+00  0.93827000000E+00 0.  1.
     999902    2    1    2    0    0  0.15225385155E-01 -0.59788378805E-02  0.16687782176E-01  0.10205624813E+01  0.10202949266E+01 0.  0.
     999903    2    3    3    0    0  0.61465420834E-01  0.95974477264E-01  0.63396060690E-01  0.13224143425E+00  0.21900643334E-01 0.  0.
         14    1    1    2    0    0 -0.15225385155E-01  0.59788378805E-02 -0.16687782176E-01  0.23367518685E-01  0.00000000000E+00 0.  1.
     999901    1    3    3    0    0 -0.46240035679E-01 -0.10195331514E+00 -0.46708278514E-01  0.88832104706E+00  0.88000000000E+00 0. -1.
        -11    1    4    4    0    0  0.44890378179E-01  0.78410788897E-01  0.58374612830E-01  0.10756976533E+00  0.51100000000E-03 0. -1.
         11    1    4    4    0    0  0.16575042656E-01  0.17563688366E-01  0.50214478599E-02  0.24671668928E-01  0.51100000000E-03 0.  1.
</event>
<event>
 8    1  0.1094829E+005  0.1043930E+01  0.7957747E-01            NaN
         13   -1    0    0    0    0  0.00000000000E+00  0.00000000000E+00  0.74505805969E-08  0.10566000000E+00  0.10566000000E+00 0.  1.
     999900   -1    0    0    0    0 -0.00000000000E+00 -0.00000000000E+00 -0.74505805969E-08  0.93827000000E+00  0.93827000000E+00 0.  1.
     999902    2    1    2    0    0  0.21036482016E-01  0.80668468354E-02  0.69344204370E-02  0.10203568420E+01  0.10200845020E+01 0.  0.
     999903    2    3    3    0    0  0.25276388439E-01 -0.11326021804E+00 -0.54727538146E-01  0.12988481510E+00  0.20203686773E-01 0.  0.
         14    1    1    2    0    0 -0.21036482016E-01 -0.80668468354E-02 -0.69344204370E-02  0.23573158046E-01  0.00000000000E+00 0.  1.
     999901    1    3    3    0    0 -0.42399064235E-02  0.12132706487E+00  0.61661958583E-01  0.89047202686E+00  0.88000000000E+00 0. -1.
        -11    1    4    4    0    0  0.23214708728E-01 -0.95066813290E-01 -0.37688587744E-01  0.10486807168E+00  0.51100000000E-03 0.  1.
         11    1    4    4    0    0  0.20616797112E-02 -0.18193404747E-01 -0.17038950402E-01  0.25016743419E-01  0.51100000000E-03 0. -1.
</event>
<event>
 8    1  0.1094829E+005  0.1043930E+01  0.7957747E-01            NaN
         13   -1    0    0    0    0  0.00000000000E+00  0.00000000000E+00  0.74505805969E-08  0.10566000000E+00  0.10566000000E+00 0.  1.
     999900   -1    0    0    0    0 -0.00000000000E+00 -0.00000000000E+00 -0.74505805969E-08  0.93827000000E+00  0.93827000000E+00 0. -1.
     999902    2    1    2    0    0 -0.99804623497E-02  0.78124259934E-02 -0.20096431449E-01  0.10201705769E+01  0.10198938650E+01 0.  0.
     999903    2    3    3    0    0 -0.29790657144E-01  0.93081543040E-01  0.83144624472E-01  0.12982121752E+00  0.19719610329E-01 0.  0.
         14    1    1    2    0    0  0.99804623497E-02 -0.78124259934E-02  0.20096431449E-01  0.23759423091E-01  0.00000000000E+00 0.  1.
     999901    1    3    3    0    0  0.19810194794E-01 -0.85269117047E-01 -0.10324105592E+00  0.89034935939E+00  0.88000000000E+00 0. -1.
        -11    1    4    4    0    0 -0.19625142847E-01  0.33284676180E-01  0.38111595772E-01  0.54274955122E-01  0.51100000000E-03 0.  1.
         11    1    4    4    0    0 -0.10165514297E-01  0.59796866860E-01  0.45033028700E-01  0.75546262397E-01  0.51100000000E-03 0. -1.
</event>
<event>
 8    1  0.1094829E+005  0.1043930E+01  0.7957747E-01            NaN
         13   -1    0    0    0    0  0.00000000000E+00  0.00000000000E+00  0.74505805969E-08  0.10566000000E+00  0.10566000000E+00 0. -1.
     999900   -1    0    0    0    0 -0.00000000000E+00 -0.00000000000E+00 -0.74505805969E-08  0.93827000000E+00  0.93827000000E+00 0.  1.
     999902    2    1    2    0    0 -0.12197930006E-01 -0.16303124172E-01 -0.11751438795E-01  0.10204209024E+01  0.10201500578E+01 0.  0.
     999903    2    3    3    0    0 -0.12059001137E+00  0.47704970771E-01 -0.83495717313E-02  0.13145664432E+00  0.19834790344E-01 0.  0.
         14    1    1    2    0    0  0.12197930006E-01  0.16303124172E-01  0.11751438795E-01  0.23509097557E-01  0.00000000000E+00 0. -1.
     999901    1    3    3    0    0  0.10839208137E+00 -0.64008094943E-01 -0.34018670633E-02  0.88896425812E+00  0.88000000000E+00 0.  1.
        -11    1    4    4    0    0 -0.85483245806E-01  0.24283313881E-01 -0.82700679666E-02  0.89250881182E-01  0.51100000000E-03 0.  1.
         11    1    4    4    0    0 -0.35106765569E-01  0.23421656890E-01 -0.79503764753E-04  0.42205763138E-01  0.51100000000E-03 0. -1.
</event>
<event>
 8    1  0.1094829E+005  0.1043930E+01  0.7957747E-01            NaN
         13   -1    0    0    0    0  0.00000000000E+00  0.00000000000E+00  0.74505805969E-08  0.10566000000E+00  0.10566000000E+00 0.  1.
     999900   -1    0    0    0    0 -0.00000000000E+00 -0.00000000000E+00 -0.74505805969E-08  0.93827000000E+00  0.93827000000E+00 0.  1.
     999902    2    1    2    0    0 -0.17900020770E-01 -0.69645565866E-02  0.20767343785E-01  0.10156422224E+01  0.10152482089E+01 0.  0.
     999903    2    3    3    0    0  0.61151498388E-01  0.29454808845E-01  0.10570570043E+00  0.12727853717E+00  0.20470451916E-01 0.  0.
         14    1    1    2    0    0  0.17900020770E-01  0.69645565866E-02 -0.20767343785E-01  0.28287777571E-01  0.00000000000E+00 0. -1.
     999901    1    3    3    0    0 -0.79051519159E-01 -0.36419365432E-01 -0.84938356642E-01  0.88836368526E+00  0.88000000000E+00 0.  1.
        -11    1    4    4    0    0  0.44632812236E-01  0.21952179700E-01  0.58999964825E-01  0.77170221536E-01  0.51100000000E-03 0.  1.
         11    1    4    4    0    0  0.16518686153E-01  0.75026291450E-02  0.46705735603E-01  0.50108315632E-01  0.51100000000E-03 0. -1.
</event>
<event>
 8    1  0.1094829E+005  0.1043930E+01  0.7957747E-01            NaN
         13   -1    0    0    0    0  0.00000000000E+00  0.00000000000E+00  0.74505805969E-08  0.10566000000E+00  0.10566000000E+00 0. -1.
     999900   -1    0    0    0    0 -0.00000000000E+00 -0.00000000000E+00 -0.74505805969E-08  0.93827000000E+00  0.93827000000E+00 0. -1.
     999902    2    1    2    0    0  0.17577665689E-01 -0.10336040315E-01  0.13397158797E-01  0.10195313950E+01  0.10192394093E+01 0.  0.
     999903    2    3    3    0    0 -0.11292627235E+00 -0.36944902198E-01  0.45909068442E-01  0.12891569023E+00  0.19858092465E-01 0.  0.
         14    1    1    2    0    0 -0.17577665689E-01  0.10336040315E-01 -0.13397158797E-01  0.24398604966E-01  0.00000000000E+00 0.  1.
     999901    1    3    3    0    0  0.13050393804E+00  0.26608861883E-01 -0.32511909645E-01  0.89061570480E+00  0.88000000000E+00 0. -1.
        -11    1    4    4    0    0 -0.75329377961E-01 -0.16880590988E-01  0.35894604983E-01  0.85136087084E-01  0.51100000000E-03 0. -1.
         11    1    4    4    0    0 -0.37596894392E-01 -0.20064311210E-01  0.10014463459E-01  0.43779603146E-01  0.51100000000E-03 0.  1.
</event>
<event>
 8    1  0.1094829E+005  0.1043930E+01  0.7957747E-01            NaN
         13   -1    0    0    0    0  0.00000000000E+00  0.00000000000E+00  0.74505805969E-08  0.10566000000E+00  0.10566000000E+00 0. -1.
     999900   -1    0    0    0    0 -0.00000000000E+00 -0.00000000000E+00 -0.74505805969E-08  0.93827000000E+00  0.93827000000E+00 0. -1.
     999902    2    1    2    0    0  0.55218114041E-02 -0.16115195950E-01 -0.16451997800E-01  0.10202475556E+01  0.10199726548E+01 0.  0.
     999903    2    3    3    0    0 -0.71170008922E-01 -0.10856798165E+00  0.93056588641E-02  0.13171358901E+00  0.20240983969E-01 0.  0.
         14    1    1    2    0    0 -0.55218114041E-02  0.16115195950E-01  0.16451997800E-01  0.23682444412E-01  0.00000000000E+00 0. -1.
     999901    1    3    3    0    0  0.76691820326E-01  0.92452785705E-01 -0.25757656664E-01  0.88853396658E+00  0.88000000000E+00 0.  1.
        -11    1    4    4    0    0 -0.47221411368E-01 -0.82872230391E-01  0.40770798001E-04  0.95383075253E-01  0.51100000000E-03 0.  1.
         11    1    4    4    0    0 -0.23948597554E-01 -0.25695751264E-01  0.92648880661E-02  0.36330513755E-01  0.51100000000E-03 0. -1.
</event>
<event>
 8    1  0.1094829E+005  0.1043930E+01  0.7957747E-01            NaN
         13   -1    0    0    0    0  0.00000000000E+00  0.00000000000E+00  0.74505805969E-08  0.10566000000E+00  0.10566000000E+00 0.  1.
     999900   -1    0    0    0    0 -0.00000000000E+00 -0.00000000000E+00 -0.74505805969E-08  0.93827000000E+00  0.93827000000E+00 0.  1.
     999902    2    1    2    0    0  0.19710730117E-01  0.11119271795E-01 -0.88407685794E-02  0.10196336983E+01  0.10193441855E+01 0.  0.
     999903    2    3    3    0    0  0.98379850397E-01  0.49656775029E-01 -0.72038182135E-01  0.13302900470E+00  0.19047995583E-01 0.  0.
         14    1    1    2    0    0 -0.19710730117E-01 -0.11119271795E-01  0.88407685794E-02  0.24296301695E-01  0.00000000000E+00 0.  1.
     999901    1    3    3    0    0 -0.78669120280E-01 -0.38537503234E-01  0.63197413556E-01  0.88660469360E+00  0.88000000000E+00 0. -1.
        -11    1    4    4    0    0  0.88939171199E-01  0.41068646135E-01 -0.69211821970E-01  0.11994726879E+00  0.51100000000E-03 0.  1.
         11    1    4    4    0    0  0.94406791981E-02  0.85881288943E-02 -0.28263601655E-02  0.13081735910E-01  0.51100000000E-03 0. -1.
</event>
<event>
 8    1  0.1094829E+005  0.1043930E+01  0.7957747E-01            NaN
         13   -1    0    0    0    0  0.00000000000E+00  0.00000000000E+00  0.74505805969E-08  0.10566000000E+00  0.10566000000E+00 0.  1.
     999900   -1    0    0    0    0 -0.00000000000E+00 -0.00000000000E+00 -0.74505805969E-08  0.93827000000E+00  0.93827000000E+00 0.  1.
     999902    2    1    2    0    0 -0.12769938761E-01 -0.77131023081E-02 -0.19901742764E-01  0.10190574720E+01  0.10187538901E+01 0.  0.
     999903    2    3    3    0    0 -0.48272119356E-01 -0.11715788583E+00  0.23640232956E-01  0.13049995046E+00  0.20376671382E-01 0.  0.
         14    1    1    2    0    0  0.12769938761E-01  0.77131023081E-02  0.19901742764E-01  0.24872527983E-01  0.00000000000E+00 0.  1.
     999901    1    3    3    0    0  0.35502180595E-01  0.10944478352E+00 -0.43541975721E-01  0.88855752156E+00  0.88000000000E+00 0. -1.
        -11    1    4    4    0    0 -0.17410225502E-01 -0.33049823864E-01  0.15807551315E-01  0.40565337531E-01  0.51100000000E-03 0. -1.
         11    1    4    4    0    0 -0.30861893855E-01 -0.84108061966E-01  0.78326816415E-02  0.89934612929E-01  0.51100000000E-03 0.  1.
</event>
<event>
 8    1  0.1094829E+005  0.1043930E+01  0.7957747E-01            NaN
         13   -1    0    0    0    0  0.00000000000E+00  0.00000000000E+00  0.74505805969E-08  0.10566000000E+00  0.10566000000E+00 0. -1.
     999900   -1    0    0    0    0 -0.00000000000E+00 -0.00000000000E+00 -0.74505805969E-08  0.93827000000E+00  0.93827000000E+00 0. -1.
     999902    2    1    2    0    0 -0.15627612317E-01 -0.89066840725E-02 -0.14798019900E-01  0.10206376691E+01  0.10203718532E+01 0.  0.
     999903    2    3    3    0    0 -0.25237345330E-01 -0.10411259056E+00 -0.76775805539E-01  0.13328331058E+00  0.19838383257E-01 0.  0.
         14    1    1    2    0    0  0.15627612317E-01  0.89066840725E-02  0.14798019900E-01  0.23292330945E-01  0.00000000000E+00 0. -1.
     999901    1    3    3    0    0  0.96097330128E-02  0.95205906484E-01  0.61977785639E-01  0.88735435848E+00  0.88000000000E+00 0. -1.
        -11    1    4    4    0    0  0.28637072301E-02 -0.21003348797E-01 -0.14155299749E-01  0.25494609466E-01  0.51100000000E-03 0. -1.
         11    1    4    4    0    0 -0.28101052560E-01 -0.83109241760E-01 -0.62620505790E-01  0.10778870111E+00  0.51100000000E-03 0.  1.
</event>
<event>
 8    1  0.1094829E+005  0.1043930E+01  0.7957747E-01            NaN
         13   -1    0    0    0    0  0.00000000000E+00  0.00000000000E+00  0.74505805969E-08  0.10566000000E+00  0.10566000000E+00 0.  1.
     999900   -1    0    0    0    0 -0.00000000000E+00 -0.00000000000E+00 -0.74505805969E-08  0.93827000000E+00  0.93827000000E+00 0.  1.
     999902    2    1    2    0    0 -0.89262076366E-02 -0.87104205968E-02  0.17459016529E-01  0.10224738618E+01  0.10222487134E+01 0.  0.
     999903    2    3    3    0    0 -0.85904614848E-01 -0.66270103746E-01 -0.73334926344E-01  0.13259615536E+00  0.20794217733E-01 0.  0.
         14    1    1    2    0    0  0.89262076366E-02  0.87104205968E-02 -0.17459016529E-01  0.21456138233E-01  0.00000000000E+00 0. -1.
     999901    1    3    3    0    0  0.76978407211E-01  0.57559683149E-01  0.90793942873E-01  0.88987770641E+00  0.88000000000E+00 0. -1.
        -11    1    4    4    0    0 -0.11937245235E-01 -0.12517459755E-01 -0.21107879729E-01  0.27294474352E-01  0.51100000000E-03 0.  1.
         11    1    4    4    0    0 -0.73967369613E-01 -0.53752643991E-01 -0.52227046615E-01  0.10530168101E+00  0.51100000000E-03 0. -1.
</event>
<event>
 8    1  0.1094829E+005  0.1043930E+01  0.7957747E-01            NaN
         13   -1    0    0    0    0  0.00000000000E+00  0.00000000000E+00  0.74505805969E-08  0.10566000000E+00  0.10566000000E+00 0.  1.
     999900   -1    0    0    0    0 -0.00000000000E+00 -0.00000000000E+00 -0.74505805969E-08  0.93827000000E+00  0.93827000000E+00 0. -1.
     999902    2    1    2    0    0  0.11589253222E-01 -0.20742253238E-01  0.18587351976E-02  0.10200971077E+01  0.10198186615E+01 0.  0.
     999903    2    3    3    0    0  0.94834115322E-01 -0.79699136178E-01  0.44711364910E-01  0.13316871768E+00  0.19731687237E-01 0.  0.
         14    1    1    2    0    0 -0.11589253222E-01  0.20742253238E-01 -0.18587351976E-02  0.23832892317E-01  0.00000000000E+00 0. -1.
     999901    1    3    3    0    0 -0.83244862100E-01  0.58956882940E-01 -0.42852629713E-01  0.88692839000E+00  0.88000000000E+00 0.  1.
        -11    1    4    4    0    0  0.31010865132E-01 -0.18203052436E-01  0.60287849452E-02  0.36464122684E-01  0.51100000000E-03 0.  1.
         11    1    4    4    0    0  0.63823250190E-01 -0.61496083742E-01  0.38682579965E-01  0.96704595001E-01  0.51100000000E-03 0. -1.
</event>
<event>
 8    1  0.1094829E+005  0.1043930E+01  0.7957747E-01            NaN
         13   -1    0    0    0    0  0.00000000000E+00  0.00000000000E+00  0.74505805969E-08  0.10566000000E+00  0.10566000000E+00 0. -1.
     999900   -1    0    0    0    0 -0.00000000000E+00 -0.00000000000E+00 -0.74505805969E-08  0.93827000000E+00  0.93827000000E+00 0. -1.
     999902    2    1    2    0    0 -0.22766803406E-01 -0.67489437821E-02 -0.99975964321E-03  0.10201628988E+01  0.10198860059E+01 0.  0.
     999903    2    3    3    0    0 -0.10365014033E+00  0.12531233986E-01 -0.79867433720E-01  0.13273180320E+00  0.18399489039E-01 0.  0.
         14    1    1    2    0    0  0.22766803406E-01  0.67489437821E-02  0.99975964321E-03  0.23767101187E-01  0.00000000000E+00 0.  1.
     999901    1    3    3    0    0  0.80883336921E-01 -0.19280177768E-01  0.78867674077E-01  0.88743109561E+00  0.88000000000E+00 0. -1.
        -11    1    4    4    0    0 -0.29000123236E-01  0.70637313593E-03 -0.12907540001E-01  0.31754870816E-01  0.51100000000E-03 0. -1.
         11    1    4    4    0    0 -0.74650017091E-01  0.11824860850E-01 -0.66959893720E-01  0.10097693238E+00  0.51100000000E-03 0.  1.
</event>
<event>
 8    1  0.1094829E+005  0.1043930E+01  0.7957747E-01            NaN
         13   -1    0    0    0    0  0.00000000000E+00  0.00000000000E+00  0.74505805969E-08  0.10566000000E+00  0.10566000000E+00 0.  1.
     999900   -1    0    0    0    0 -0.00000000000E+00 -0.00000000000E+00 -0.74505805969E-08  0.93827000000E+00  0.93827000000E+00 0. -1.
     999902    2    1    2    0    0  0.56215256087E-03  0.11923309763E-01  0.19471098946E-01  0.10210913261E+01  0.10208358787E+01 0.  0.
     999903    2    3    3    0    0  0.62649260021E-01 -0.10732008937E+00  0.35662170150E-01  0.13073412366E+00  0.19418788510E-01 0.  0.
         14    1    1    2    0    0 -0.56215256087E-03 -0.11923309763E-01 -0.19471098946E-01  0.22838673897E-01  0.00000000000E+00 0. -1.
     999901    1    3    3    0    0 -0.62087107461E-01  0.11924339913E+00 -0.16191071204E-01  0.89035720244E+00  0.88000000000E+00 0.  1.
        -11    1    4    4    0    0  0.41646481829E-01 -0.87222432499E-01  0.28896657588E-01  0.10088339864E+00  0.51100000000E-03 0. -1.
         11    1    4    4    0    0  0.21002778192E-01 -0.20097656869E-01  0.67655125621E-02  0.29850725027E-01  0.51100000000E-03 0.  1.
</event>
<event>
 8    1  0.1094829E+005  0.1043930E+01  0.7957747E-01            NaN
         13   -1    0    0    0    0  0.00000000000E+00  0.00000000000E+00  0.74505805969E-08  0.10566000000E+00  0.10566000000E+00 0.  1.
     999900   -1    0    0    0    0 -0.00000000000E+00 -0.00000000000E+00 -0.74505805969E-08  0.93827000000E+00  0.93827000000E+00 0. -1.
     999902    2    1    2    0    0 -0.18102288332E-01 -0.15334401245E-01  0.32066383866E-02  0.10199900912E+01  0.10197091090E+01 0.  0.
     999903    2    3    3    0    0 -0.10853979507E+00  0.64847468577E-01 -0.28744269369E-01  0.13115437218E+00  0.19727012581E-01 0.  0.
         14    1    1    2    0    0  0.18102288332E-01  0.15334401245E-01 -0.32066383866E-02  0.23939908816E-01  0.00000000000E+00 0.  1.
     999901    1    3    3    0    0  0.90437506737E-01 -0.80181869822E-01  0.31950907756E-01  0.88883571901E+00  0.88000000000E+00 0.  1.
        -11    1    4    4    0    0 -0.69467321646E-01  0.45374696074E-01 -0.27722083079E-01  0.87483408894E-01  0.51100000000E-03 0.  1.
         11    1    4    4    0    0 -0.39072473424E-01  0.19472772504E-01 -0.10221862903E-02  0.43670963285E-01  0.51100000000E-03 0. -1.
</event>
<event>
 8    1  0.1094829E+005  0.1043930E+01  0.7957747E-01            NaN
         13   -1    0    0    0    0  0.00000000000E+00  0.00000000000E+00  0.74505805969E-08  0.10566000000E+00  0.10566000000E+00 0. -1.
     999900   -1    0    0    0    0 -0.00000000000E+00 -0.00000000000E+00 -0.74505805969E-08  0.93827000000E+00  0.93827000000E+00 0.  1.
     999902    2    1    2    0    0  0.19190472223E-01 -0.39086013795E-02  0.12940515964E-01  0.10204564331E+01  0.10201864161E+01 0.  0.
     999903    2    3    3    0    0 -0.11814566850E+00  0.33662525719E-01  0.32802381973E-01  0.12879096958E+00  0.20482991934E-01 0.  0.
         14    1    1    2    0    0 -0.19190472223E-01  0.39086013795E-02 -0.12940515964E-01  0.23473566885E-01  0.00000000000E+00 0.  1.
     999901    1    3    3    0    0  0.13733614072E+00 -0.37571127099E-01 -0.19861866008E-01  0.89166546354E+00  0.88000000000E+00 0. -1.
        -11    1    4    4    0    0 -0.43676277064E-01  0.22276591233E-01  0.96041306361E-02  0.49963628185E-01  0.51100000000E-03 0. -1.
         11    1    4    4    0    0 -0.74469391437E-01  0.11385934486E-01  0.23198251336E-01  0.78827341394E-01  0.51100000000E-03 0.  1.
</event>
