<event>
 8    1  0.2025822E+004  0.1043930E+01  0.7957747E-01            NaN
         13   -1    0    0    0    0  0.00000000000E+00  0.00000000000E+00  0.74505805969E-08  0.10566000000E+00  0.10566000000E+00 0.  1.
     999900   -1    0    0    0    0 -0.00000000000E+00 -0.00000000000E+00 -0.74505805969E-08  0.93827000000E+00  0.93827000000E+00 0. -1.
     999902    2    1    2    0    0 -0.11830659777E-02 -0.85727864946E-02  0.11396498745E-01  0.10296201259E+01  0.10295206803E+01 0.  0.
     999903    2    3    3    0    0  0.91861017124E-01 -0.51178135166E-01  0.82214550551E-01  0.14086390870E+00  0.45008448820E-01 0.  0.
         14    1    1    2    0    0  0.11830659777E-02  0.85727864946E-02 -0.11396498745E-01  0.14309874110E-01  0.00000000000E+00 0. -1.
     999901    1    3    3    0    0 -0.93044083102E-01  0.42605348672E-01 -0.70818051805E-01  0.88875621719E+00  0.88000000000E+00 0. -1.
        -11    1    4    4    0    0  0.64037338389E-01 -0.45092392041E-01  0.35145558447E-01  0.85846234207E-01  0.51100000000E-03 0.  1.
         11    1    4    4    0    0  0.27823678735E-01 -0.60857431252E-02  0.47068992104E-01  0.55017674491E-01  0.51100000000E-03 0. -1.
</event>
<event>
 8    1  0.2025822E+004  0.1043930E+01  0.7957747E-01            NaN
         13   -1    0    0    0    0  0.00000000000E+00  0.00000000000E+00  0.74505805969E-08  0.10566000000E+00  0.10566000000E+00 0. -1.
     999900   -1    0    0    0    0 -0.00000000000E+00 -0.00000000000E+00 -0.74505805969E-08  0.93827000000E+00  0.93827000000E+00 0. -1.
     999902    2    1    2    0    0 -0.55160973159E-03 -0.13842948652E-01 -0.49078341474E-03  0.10300673751E+01  0.10299740894E+01 0.  0.
     999903    2    3    3    0    0  0.46901380467E-01 -0.11051195820E+00 -0.61178780662E-01  0.14142812507E+00  0.42970210191E-01 0.  0.
         14    1    1    2    0    0  0.55160973159E-03  0.13842948652E-01  0.49078341474E-03  0.13862624897E-01  0.00000000000E+00 0.  1.
     999901    1    3    3    0    0 -0.47452990198E-01  0.96669009546E-01  0.60687997247E-01  0.88863925003E+00  0.88000000000E+00 0. -1.
        -11    1    4    4    0    0  0.23122325094E-01 -0.96656892198E-01 -0.42087377650E-01  0.10792963080E+00  0.51100000000E-03 0. -1.
         11    1    4    4    0    0  0.23779055372E-01 -0.13855065999E-01 -0.19091403012E-01  0.33498494268E-01  0.51100000000E-03 0.  1.
</event>
<event>
 8    1  0.2025822E+004  0.1043930E+01  0.7957747E-01            NaN
         13   -1    0    0    0    0  0.00000000000E+00  0.00000000000E+00  0.74505805969E-08  0.10566000000E+00  0.10566000000E+00 0.  1.
     999900   -1    0    0    0    0 -0.00000000000E+00 -0.00000000000E+00 -0.74505805969E-08  0.93827000000E+00  0.93827000000E+00 0. -1.
     999902    2    1    2    0    0 -0.11024834876E-01 -0.11715154161E-01  0.54207950789E-02  0.10269542278E+01  0.10268139117E+01 0.  0.
     999903    2    3    3    0    0 -0.65856048737E-02 -0.73713811791E-01  0.10850127991E+00  0.13875992102E+00  0.44773783632E-01 0.  0.
         14    1    1    2    0    0  0.11024834876E-01  0.11715154161E-01 -0.54207950789E-02  0.16975772158E-01  0.00000000000E+00 0. -1.
     999901    1    3    3    0    0 -0.44392300025E-02  0.61998657630E-01 -0.10308048483E+00  0.88819430682E+00  0.88000000000E+00 0. -1.
        -11    1    4    4    0    0 -0.75893633751E-02 -0.17367683304E-01  0.64589252625E-01  0.67314690339E-01  0.51100000000E-03 0.  1.
         11    1    4    4    0    0  0.10037585014E-02 -0.56346128487E-01  0.43912027283E-01  0.71445230686E-01  0.51100000000E-03 0. -1.
</event>
<event>
 8    1  0.2025822E+004  0.1043930E+01  0.7957747E-01            NaN
         13   -1    0    0    0    0  0.00000000000E+00  0.00000000000E+00  0.74505805969E-08  0.10566000000E+00  0.10566000000E+00 0. -1.
     999900   -1    0    0    0    0 -0.00000000000E+00 -0.00000000000E+00 -0.74505805969E-08  0.93827000000E+00  0.93827000000E+00 0.  1.
     999902    2    1    2    0    0 -0.39729349569E-02  0.39603067592E-04 -0.12434950454E-01  0.10308757373E+01  0.10307930792E+01 0.  0.
     999903    2    3    3    0    0  0.11476302931E+00  0.34270027266E-02  0.65345471717E-01  0.13949506796E+00  0.44794487026E-01 0.  0.
         14    1    1    2    0    0  0.39729349569E-02 -0.39603067592E-04  0.12434950454E-01  0.13054262651E-01  0.00000000000E+00 0. -1.
     999901    1    3    3    0    0 -0.11873596426E+00 -0.33873996590E-02 -0.77780422172E-01  0.89138066939E+00  0.88000000000E+00 0. -1.
        -11    1    4    4    0    0  0.31294160215E-01  0.21326244009E-01  0.19751315973E-01  0.42714268702E-01  0.51100000000E-03 0.  1.
         11    1    4    4    0    0  0.83468869092E-01 -0.17899241283E-01  0.45594155745E-01  0.96780799258E-01  0.51100000000E-03 0. -1.
</event>
<event>
 7    1  0.2025822E+004  0.1043930E+01  0.7957747E-01            NaN
         13   -1    0    0    0    0  0.00000000000E+00  0.00000000000E+00  0.74505805969E-08  0.10566000000E+00  0.10566000000E+00 0. -1.
     999900   -1    0    0    0    0 -0.00000000000E+00 -0.00000000000E+00 -0.74505805969E-08  0.93827000000E+00  0.93827000000E+00 0.  1.
     999903    2    1    2    0    0  0.68288239594E-02 -0.19027804351E-01  0.11511886030E+00  0.12546570839E+00  0.45613614297E-01 0.  0.
         14    1    1    2    0    0 -0.21391533940E-01  0.17672017176E-01  0.99993937472E-02  0.29493826315E-01  0.00000000000E+00 0. -1.
     999901    1    1    2    0    0  0.14562709981E-01  0.13557871751E-02 -0.12511825405E+00  0.88897046530E+00  0.88000000000E+00 0.  1.
        -11    1    3    3    0    0  0.20082095685E-02 -0.33569757910E-01  0.67065255622E-01  0.75026469892E-01  0.51100000000E-03 0. -1.
         11    1    3    3    0    0  0.48206143909E-02  0.14541953559E-01  0.48053604676E-01  0.50439238493E-01  0.51100000000E-03 0.  1.
</event>
<event>
 8    1  0.2025822E+004  0.1043930E+01  0.7957747E-01            NaN
         13   -1    0    0    0    0  0.00000000000E+00  0.00000000000E+00  0.74505805969E-08  0.10566000000E+00  0.10566000000E+00 0. -1.
     999900   -1    0    0    0    0 -0.00000000000E+00 -0.00000000000E+00 -0.74505805969E-08  0.93827000000E+00  0.93827000000E+00 0. -1.
     999902    2    1    2    0    0 -0.67336929244E-02 -0.36516304789E-02  0.13023673215E-01  0.10288206291E+01  0.10287096742E+01 0.  0.
     999903    2    3    3    0    0 -0.11513109546E+00 -0.17396484824E-01 -0.60335033851E-01  0.13903390306E+00  0.46176867213E-01 0.  0.
         14    1    1    2    0    0  0.67336929244E-02  0.36516304789E-02 -0.13023673215E-01  0.15109370919E-01  0.00000000000E+00 0.  1.
     999901    1    3    3    0    0  0.10839740253E+00  0.13744854345E-01  0.73358707065E-01  0.88978672602E+00  0.88000000000E+00 0.  1.
        -11    1    4    4    0    0 -0.17029364010E-01 -0.13549700867E-03  0.74004644315E-02  0.18575402898E-01  0.51100000000E-03 0.  1.
         11    1    4    4    0    0 -0.98101731447E-01 -0.17260987816E-01 -0.67735498282E-01  0.12045850016E+00  0.51100000000E-03 0. -1.
</event>
<event>
 8    1  0.2025822E+004  0.1043930E+01  0.7957747E-01            NaN
         13   -1    0    0    0    0  0.00000000000E+00  0.00000000000E+00  0.74505805969E-08  0.10566000000E+00  0.10566000000E+00 0.  1.
     999900   -1    0    0    0    0 -0.00000000000E+00 -0.00000000000E+00 -0.74505805969E-08  0.93827000000E+00  0.93827000000E+00 0.  1.
     999902    2    1    2    0    0 -0.10966812659E-01 -0.50941492741E-02 -0.59778594929E-02  0.10304408881E+01  0.10303525938E+01 0.  0.
     999903    2    3    3    0    0  0.50344239663E-01 -0.11789468240E+00 -0.35547235916E-01  0.14063340696E+00  0.45611956398E-01 0.  0.
         14    1    1    2    0    0  0.10966812659E-01  0.50941492741E-02  0.59778594929E-02  0.13489111937E-01  0.00000000000E+00 0.  1.
     999901    1    3    3    0    0 -0.61311052322E-01  0.11280053312E+00  0.29569376423E-01  0.88980748111E+00  0.88000000000E+00 0. -1.
        -11    1    4    4    0    0  0.39788840600E-01 -0.41407542048E-01 -0.25257544258E-01  0.62737078651E-01  0.51100000000E-03 0.  1.
         11    1    4    4    0    0  0.10555399063E-01 -0.76487140349E-01 -0.10289691658E-01  0.77896328306E-01  0.51100000000E-03 0. -1.
</event>
<event>
 8    1  0.2025822E+004  0.1043930E+01  0.7957747E-01            NaN
         13   -1    0    0    0    0  0.00000000000E+00  0.00000000000E+00  0.74505805969E-08  0.10566000000E+00  0.10566000000E+00 0.  1.
     999900   -1    0    0    0    0 -0.00000000000E+00 -0.00000000000E+00 -0.74505805969E-08  0.93827000000E+00  0.93827000000E+00 0. -1.
     999902    2    1    2    0    0 -0.70124710152E-02 -0.79583773812E-02 -0.81176583653E-02  0.10305730955E+01  0.10304865347E+01 0.  0.
     999903    2    3    3    0    0 -0.28574871247E-01 -0.81295011398E-01 -0.10393817322E+00  0.14207730483E+00  0.44242677910E-01 0.  0.
         14    1    1    2    0    0  0.70124710152E-02  0.79583773812E-02  0.81176583653E-02  0.13356904492E-01  0.00000000000E+00 0.  1.
     999901    1    3    3    0    0  0.21562400232E-01  0.73336634017E-01  0.95820514857E-01  0.88849579068E+00  0.88000000000E+00 0.  1.
        -11    1    4    4    0    0 -0.55876402200E-02 -0.36789958778E-02 -0.35338007771E-01  0.35969329270E-01  0.51100000000E-03 0. -1.
         11    1    4    4    0    0 -0.22987231027E-01 -0.77616015520E-01 -0.68600165451E-01  0.10610797556E+00  0.51100000000E-03 0.  1.
</event>
<event>
 8    1  0.2025822E+004  0.1043930E+01  0.7957747E-01            NaN
         13   -1    0    0    0    0  0.00000000000E+00  0.00000000000E+00  0.74505805969E-08  0.10566000000E+00  0.10566000000E+00 0.  1.
     999900   -1    0    0    0    0 -0.00000000000E+00 -0.00000000000E+00 -0.74505805969E-08  0.93827000000E+00  0.93827000000E+00 0. -1.
     999902    2    1    2    0    0  0.74311592133E-02 -0.69852684395E-02  0.95936195950E-02  0.10299280844E+01  0.10298329017E+01 0.  0.
     999903    2    3    3    0    0 -0.10271734518E+00  0.78885988485E-01 -0.17260823402E-01  0.13850914427E+00  0.45967323623E-01 0.  0.
         14    1    1    2    0    0 -0.74311592133E-02  0.69852684395E-02 -0.95936195950E-02  0.14001915560E-01  0.00000000000E+00 0.  1.
     999901    1    3    3    0    0  0.11014850440E+00 -0.85871256924E-01  0.26854442997E-01  0.89141894017E+00  0.88000000000E+00 0.  1.
        -11    1    4    4    0    0 -0.44578357722E-01  0.56992019334E-01 -0.23480335111E-01  0.76071726041E-01  0.51100000000E-03 0.  1.
         11    1    4    4    0    0 -0.58138987460E-01  0.21893969151E-01  0.62195117086E-02  0.62437418228E-01  0.51100000000E-03 0. -1.
</event>
<event>
 8    1  0.2025822E+004  0.1043930E+01  0.7957747E-01            NaN
         13   -1    0    0    0    0  0.00000000000E+00  0.00000000000E+00  0.74505805969E-08  0.10566000000E+00  0.10566000000E+00 0.  1.
     999900   -1    0    0    0    0 -0.00000000000E+00 -0.00000000000E+00 -0.74505805969E-08  0.93827000000E+00  0.93827000000E+00 0. -1.
     999902    2    1    2    0    0 -0.42968074188E-02 -0.18188157139E-02  0.12683467015E-01  0.10304155270E+01  0.10303268983E+01 0.  0.
     999903    2    3    3    0    0  0.76849144884E-01  0.68277258754E-02  0.10974038328E+00  0.14132640142E+00  0.44472363376E-01 0.  0.
         14    1    1    2    0    0  0.42968074188E-02  0.18188157139E-02 -0.12683467015E-01  0.13514472987E-01  0.00000000000E+00 0. -1.
     999901    1    3    3    0    0 -0.81145952303E-01 -0.86465415894E-02 -0.97056916268E-01  0.88908912560E+00  0.88000000000E+00 0. -1.
        -11    1    4    4    0    0  0.11061490908E-01  0.98070761223E-02  0.50923077736E-01  0.53027882197E-01  0.51100000000E-03 0. -1.
         11    1    4    4    0    0  0.65787653977E-01 -0.29793502469E-02  0.58817305547E-01  0.88298519220E-01  0.51100000000E-03 0.  1.
</event>
<event>
 8    1  0.2025822E+004  0.1043930E+01  0.7957747E-01            NaN
         13   -1    0    0    0    0  0.00000000000E+00  0.00000000000E+00  0.74505805969E-08  0.10566000000E+00  0.10566000000E+00 0.  1.
     999900   -1    0    0    0    0 -0.00000000000E+00 -0.00000000000E+00 -0.74505805969E-08  0.93827000000E+00  0.93827000000E+00 0.  1.
     999902    2    1    2    0    0  0.62544345606E-02 -0.12311631466E-01 -0.38616756353E-02  0.10295910056E+01  0.10294911520E+01 0.  0.
     999903    2    3    3    0    0  0.94195395531E-01  0.87354665467E-01 -0.31410421312E-01  0.13918328062E+00  0.43379268303E-01 0.  0.
         14    1    1    2    0    0 -0.62544345606E-02  0.12311631466E-01  0.38616756353E-02  0.14338994377E-01  0.00000000000E+00 0.  1.
     999901    1    3    3    0    0 -0.87940960970E-01 -0.99666296933E-01  0.27548745676E-01  0.89040772501E+00  0.88000000000E+00 0.  1.
        -11    1    4    4    0    0  0.97042224541E-01  0.89382902738E-01 -0.29602360271E-01  0.13521485680E+00  0.51100000000E-03 0. -1.
         11    1    4    4    0    0 -0.28468290104E-02 -0.20282372711E-02 -0.18080610408E-02  0.39684238143E-02  0.51100000000E-03 0.  1.
</event>
<event>
 8    1  0.2025822E+004  0.1043930E+01  0.7957747E-01            NaN
         13   -1    0    0    0    0  0.00000000000E+00  0.00000000000E+00  0.74505805969E-08  0.10566000000E+00  0.10566000000E+00 0. -1.
     999900   -1    0    0    0    0 -0.00000000000E+00 -0.00000000000E+00 -0.74505805969E-08  0.93827000000E+00  0.93827000000E+00 0. -1.
     999902    2    1    2    0    0  0.10414381644E-01  0.17697451955E-02 -0.91106191183E-02  0.10299802787E+01  0.10298858091E+01 0.  0.
     999903    2    3    3    0    0 -0.44409040585E-01 -0.12411603595E+00 -0.13886985563E-02  0.13929937875E+00  0.45004834968E-01 0.  0.
         14    1    1    2    0    0 -0.10414381644E-01 -0.17697451955E-02  0.91106191183E-02  0.13949721280E-01  0.00000000000E+00 0.  1.
     999901    1    3    3    0    0  0.54823422229E-01  0.12588578114E+00 -0.77219205620E-02  0.89068089997E+00  0.88000000000E+00 0.  1.
        -11    1    4    4    0    0 -0.39562783708E-01 -0.73641148245E-01  0.17093059480E-01  0.85326820947E-01  0.51100000000E-03 0.  1.
         11    1    4    4    0    0 -0.48462568768E-02 -0.50474887703E-01 -0.18481758036E-01  0.53972557800E-01  0.51100000000E-03 0. -1.
</event>
<event>
 8    1  0.2025822E+004  0.1043930E+01  0.7957747E-01            NaN
         13   -1    0    0    0    0  0.00000000000E+00  0.00000000000E+00  0.74505805969E-08  0.10566000000E+00  0.10566000000E+00 0. -1.
     999900   -1    0    0    0    0 -0.00000000000E+00 -0.00000000000E+00 -0.74505805969E-08  0.93827000000E+00  0.93827000000E+00 0.  1.
     999902    2    1    2    0    0  0.23375365300E-02  0.97569110423E-02  0.94883070354E-02  0.10301209682E+01  0.10300284072E+01 0.  0.
     999903    2    3    3    0    0  0.11761850545E+00 -0.30103017635E-01 -0.51930107478E-01  0.13958700622E+00  0.45249218216E-01 0.  0.
         14    1    1    2    0    0 -0.23375365300E-02 -0.97569110423E-02 -0.94883070354E-02  0.13809031846E-01  0.00000000000E+00 0.  1.
     999901    1    3    3    0    0 -0.11528096892E+00  0.39859928677E-01  0.61418414514E-01  0.89053396193E+00  0.88000000000E+00 0.  1.
        -11    1    4    4    0    0  0.68625196676E-01 -0.25336994954E-01 -0.53019512013E-01  0.90347721096E-01  0.51100000000E-03 0.  1.
         11    1    4    4    0    0  0.48993308773E-01 -0.47660226811E-02  0.10894045346E-02  0.49239285128E-01  0.51100000000E-03 0. -1.
</event>
<event>
 8    1  0.2025822E+004  0.1043930E+01  0.7957747E-01            NaN
         13   -1    0    0    0    0  0.00000000000E+00  0.00000000000E+00  0.74505805969E-08  0.10566000000E+00  0.10566000000E+00 0. -1.
     999900   -1    0    0    0    0 -0.00000000000E+00 -0.00000000000E+00 -0.74505805969E-08  0.93827000000E+00  0.93827000000E+00 0.  1.
     999902    2    1    2    0    0  0.58715939246E-02 -0.10827758662E-01 -0.84591706346E-02  0.10289876595E+01  0.10288791619E+01 0.  0.
     999903    2    3    3    0    0  0.16813847560E-01 -0.71127648062E-01 -0.11162856501E+00  0.14084367704E+00  0.45101630208E-01 0.  0.
         14    1    1    2    0    0 -0.58715939246E-02  0.10827758662E-01  0.84591706346E-02  0.14942340536E-01  0.00000000000E+00 0. -1.
     999901    1    3    3    0    0 -0.10942253635E-01  0.60299889400E-01  0.10316939438E+00  0.88814398242E+00  0.88000000000E+00 0. -1.
        -11    1    4    4    0    0  0.20875197430E-02 -0.57769045550E-01 -0.51187431165E-01  0.77214212375E-01  0.51100000000E-03 0.  1.
         11    1    4    4    0    0  0.14726327817E-01 -0.13358602512E-01 -0.60441133848E-01  0.63629464668E-01  0.51100000000E-03 0. -1.
</event>
<event>
 8    1  0.2025822E+004  0.1043930E+01  0.7957747E-01            NaN
         13   -1    0    0    0    0  0.00000000000E+00  0.00000000000E+00  0.74505805969E-08  0.10566000000E+00  0.10566000000E+00 0. -1.
     999900   -1    0    0    0    0 -0.00000000000E+00 -0.00000000000E+00 -0.74505805969E-08  0.93827000000E+00  0.93827000000E+00 0. -1.
     999902    2    1    2    0    0  0.33046055085E-02  0.42316343386E-03 -0.12602787693E-01  0.10308942897E+01  0.10308118678E+01 0.  0.
     999903    2    3    3    0    0 -0.10861323227E+00  0.60873410232E-01 -0.47077278503E-01  0.14108064335E+00  0.46744748143E-01 0.  0.
         14    1    1    2    0    0 -0.33046055085E-02 -0.42316343386E-03  0.12602787693E-01  0.13035710279E-01  0.00000000000E+00 0. -1.
     999901    1    3    3    0    0  0.11191783778E+00 -0.60450246799E-01  0.34474490811E-01  0.88981364637E+00  0.88000000000E+00 0.  1.
        -11    1    4    4    0    0 -0.51297747492E-02  0.19768498257E-01 -0.14537368987E-01  0.25073977155E-01  0.51100000000E-03 0. -1.
         11    1    4    4    0    0 -0.10348345752E+00  0.41104911976E-01 -0.32539909516E-01  0.11600666619E+00  0.51100000000E-03 0.  1.
</event>
<event>
 8    1  0.2025822E+004  0.1043930E+01  0.7957747E-01            NaN
         13   -1    0    0    0    0  0.00000000000E+00  0.00000000000E+00  0.74505805969E-08  0.10566000000E+00  0.10566000000E+00 0.  1.
     999900   -1    0    0    0    0 -0.00000000000E+00 -0.00000000000E+00 -0.74505805969E-08  0.93827000000E+00  0.93827000000E+00 0. -1.
     999902    2    1    2    0    0  0.11030542365E-02  0.11803808134E-01  0.78948613167E-02  0.10296865647E+01  0.10295880467E+01 0.  0.
     999903    2    3    3    0    0 -0.12105074780E+00 -0.40018449215E-01 -0.31632429636E-01  0.13886138291E+00  0.45023474310E-01 0.  0.
         14    1    1    2    0    0 -0.11030542365E-02 -0.11803808134E-01 -0.78948613167E-02  0.14243435342E-01  0.00000000000E+00 0. -1.
     999901    1    3    3    0    0  0.12215380203E+00  0.51822257349E-01  0.39527290953E-01  0.89082518175E+00  0.88000000000E+00 0.  1.
        -11    1    4    4    0    0 -0.40318183918E-01 -0.30624298101E-01  0.25278965555E-02  0.50695709588E-01  0.51100000000E-03 0. -1.
         11    1    4    4    0    0 -0.80732563879E-01 -0.93941511135E-02 -0.34160326192E-01  0.88165673321E-01  0.51100000000E-03 0.  1.
</event>
<event>
 8    1  0.2025822E+004  0.1043930E+01  0.7957747E-01            NaN
         13   -1    0    0    0    0  0.00000000000E+00  0.00000000000E+00  0.74505805969E-08  0.10566000000E+00  0.10566000000E+00 0.  1.
     999900   -1    0    0    0    0 -0.00000000000E+00 -0.00000000000E+00 -0.74505805969E-08  0.93827000000E+00  0.93827000000E+00 0.  1.
     999902    2    1    2    0    0  0.10057492306E-01  0.69867815603E-02  0.83538044804E-02  0.10291058873E+01  0.10289991122E+01 0.  0.
     999903    2    3    3    0    0 -0.12260524339E+00  0.29015330912E-01 -0.33930327591E-01  0.13788615780E+00  0.44580155304E-01 0.  0.
         14    1    1    2    0    0 -0.10057492306E-01 -0.69867815603E-02 -0.83538044804E-02  0.14824112700E-01  0.00000000000E+00 0. -1.
     999901    1    3    3    0    0  0.13266273570E+00 -0.22028549351E-01  0.42284132071E-01  0.89121972950E+00  0.88000000000E+00 0. -1.
        -11    1    4    4    0    0 -0.11903420765E+00  0.19763006662E-01 -0.22500214505E-01  0.12274461209E+00  0.51100000000E-03 0. -1.
         11    1    4    4    0    0 -0.35710357409E-02  0.92523242493E-02 -0.11430113086E-01  0.15141545708E-01  0.51100000000E-03 0.  1.
</event>
<event>
 8    1  0.2025822E+004  0.1043930E+01  0.7957747E-01            NaN
         13   -1    0    0    0    0  0.00000000000E+00  0.00000000000E+00  0.74505805969E-08  0.10566000000E+00  0.10566000000E+00 0.  1.
     999900   -1    0    0    0    0 -0.00000000000E+00 -0.00000000000E+00 -0.74505805969E-08  0.93827000000E+00  0.93827000000E+00 0. -1.
     999902    2    1    2    0    0 -0.12256326103E-01 -0.57157572651E-02 -0.57064657430E-03  0.10303943785E+01  0.10303054704E+01 0.  0.
     999903    2    3    3    0    0  0.60950496781E-01 -0.63064244521E-01 -0.10010443466E+00  0.13991413571E+00  0.43162547869E-01 0.  0.
         14    1    1    2    0    0  0.12256326103E-01  0.57157572651E-02  0.57064657430E-03  0.13535621455E-01  0.00000000000E+00 0.  1.
     999901    1    3    3    0    0 -0.73206822884E-01  0.57348487256E-01  0.99533788085E-01  0.89048024283E+00  0.88000000000E+00 0.  1.
        -11    1    4    4    0    0  0.34915753993E-01 -0.20731775479E-01 -0.72405653534E-01  0.83016601811E-01  0.51100000000E-03 0. -1.
         11    1    4    4    0    0  0.26034742788E-01 -0.42332469042E-01 -0.27698781125E-01  0.56897533901E-01  0.51100000000E-03 0.  1.
</event>
<event>
 7    1  0.2025822E+004  0.1043930E+01  0.7957747E-01            NaN
         13   -1    0    0    0    0  0.00000000000E+00  0.00000000000E+00  0.74505805969E-08  0.10566000000E+00  0.10566000000E+00 0. -1.
     999900   -1    0    0    0    0 -0.00000000000E+00 -0.00000000000E+00 -0.74505805969E-08  0.93827000000E+00  0.93827000000E+00 0.  1.
     999902    2    1    2    0    0  0.57556142502E-02 -0.94769758441E-02  0.85010198129E-02  0.10299583321E+01  0.10298635630E+01 0.  0.
         14    1    1    2    0    0 -0.57556142502E-02  0.94769758441E-02 -0.85010198129E-02  0.13971667918E-01  0.00000000000E+00 0.  1.
     999901    1    3    3    0    0  0.22191375133E-01 -0.54684503110E-01 -0.11943305362E+00  0.89002646382E+00  0.88000000000E+00 0.  1.
        -11    1    3    3    0    0  0.66629215139E-02  0.10104347520E-02  0.17464155358E-01  0.18726274185E-01  0.51100000000E-03 0. -1.
         11    1    3    3    0    0 -0.23098682397E-01  0.44197092514E-01  0.11046991807E+00  0.12120559407E+00  0.51100000000E-03 0.  1.
</event>
<event>
 8    1  0.2025822E+004  0.1043930E+01  0.7957747E-01            NaN
         13   -1    0    0    0    0  0.00000000000E+00  0.00000000000E+00  0.74505805969E-08  0.10566000000E+00  0.10566000000E+00 0. -1.
     999900   -1    0    0    0    0 -0.00000000000E+00 -0.00000000000E+00 -0.74505805969E-08  0.93827000000E+00  0.93827000000E+00 0.  1.
     999902    2    1    2    0    0  0.78688068100E-02  0.74661291860E-02  0.71958687486E-02  0.10309130214E+01  0.10308308377E+01 0.  0.
     999903    2    3    3    0    0 -0.12672141781E+00  0.35876512253E-01  0.16382801304E-01  0.14017957181E+00  0.45127312271E-01 0.  0.
         14    1    1    2    0    0 -0.78688068100E-02 -0.74661291860E-02 -0.71958687486E-02  0.13016978631E-01  0.00000000000E+00 0.  1.
     999901    1    3    3    0    0  0.13459022462E+00 -0.28410383067E-01 -0.91869325550E-02  0.89073344956E+00  0.88000000000E+00 0. -1.
        -11    1    4    4    0    0 -0.96788119216E-01  0.44811461346E-01  0.45029009732E-02  0.10675459862E+00  0.51100000000E-03 0.  1.
         11    1    4    4    0    0 -0.29933298591E-01 -0.89349490928E-02  0.11879900330E-01  0.33424973189E-01  0.51100000000E-03 0. -1.
</event>
<event>
 8    1  0.2025822E+004  0.1043930E+01  0.7957747E-01            NaN
         13   -1    0    0    0    0  0.00000000000E+00  0.00000000000E+00  0.74505805969E-08  0.10566000000E+00  0.10566000000E+00 0. -1.
     999900   -1    0    0    0    0 -0.00000000000E+00 -0.00000000000E+00 -0.74505805969E-08  0.93827000000E+00  0.93827000000E+00 0. -1.
     999902    2    1    2    0    0 -0.78912032385E-02 -0.10619574204E-01  0.34133626438E-02  0.10302662710E+01  0.10301756606E+01 0.  0.
     999903    2    3    3    0    0 -0.71420589716E-01  0.34781237487E-01 -0.10634537561E+00  0.14001675698E+00  0.44550176250E-01 0.  0.
         14    1    1    2    0    0  0.78912032385E-02  0.10619574204E-01 -0.34133626438E-02  0.13663728970E-01  0.00000000000E+00 0.  1.
     999901    1    3    3    0    0  0.63529386478E-01 -0.45400811690E-01  0.10975873826E+00  0.89024951405E+00  0.88000000000E+00 0.  1.
        -11    1    4    4    0    0 -0.21275002278E-01  0.15106994207E-02 -0.46299136405E-02  0.21831288464E-01  0.51100000000E-03 0.  1.
         11    1    4    4    0    0 -0.50145587438E-01  0.33270538066E-01 -0.10171546197E+00  0.11818546851E+00  0.51100000000E-03 0. -1.
</event>
<event>
 7    1  0.2025822E+004  0.1043930E+01  0.7957747E-01            NaN
         13   -1    0    0    0    0  0.00000000000E+00  0.00000000000E+00  0.74505805969E-08  0.10566000000E+00  0.10566000000E+00 0. -1.
     999900   -1    0    0    0    0 -0.00000000000E+00 -0.00000000000E+00 -0.74505805969E-08  0.93827000000E+00  0.93827000000E+00 0. -1.
     999903    2    1    2    0    0  0.50797751900E-01 -0.25295682409E-03 -0.87551059200E-02  0.68555460974E-01  0.45196501683E-01 0.  0.
         14    1    1    2    0    0  0.70158861425E-01 -0.97446221011E-03  0.49975550567E-01  0.86143897448E-01  0.00000000000E+00 0. -1.
     999901    1    1    2    0    0 -0.12095661333E+00  0.12274190342E-02 -0.41220444647E-01  0.88923064158E+00  0.88000000000E+00 0.  1.
        -11    1    3    3    0    0  0.17037525168E-01 -0.13544632377E-01 -0.21009951769E-01  0.30255801500E-01  0.51100000000E-03 0. -1.
         11    1    3    3    0    0  0.33760226732E-01  0.13291675553E-01  0.12254845849E-01  0.38299659474E-01  0.51100000000E-03 0.  1.
</event>
<event>
 7    1  0.2025822E+004  0.1043930E+01  0.7957747E-01            NaN
         13   -1    0    0    0    0  0.00000000000E+00  0.00000000000E+00  0.74505805969E-08  0.10566000000E+00  0.10566000000E+00 0.  1.
     999900   -1    0    0    0    0 -0.00000000000E+00 -0.00000000000E+00 -0.74505805969E-08  0.93827000000E+00  0.93827000000E+00 0.  1.
     999903    2    1    2    0    0 -0.56239853551E-01 -0.42387814743E-01  0.85431051158E-01  0.11972640000E+00  0.45566417334E-01 0.  0.
         14    1    1    2    0    0 -0.25577433154E-01  0.24744524706E-01 -0.10283237506E-01  0.37043779009E-01  0.00000000000E+00 0. -1.
     999901    1    1    2    0    0  0.81817286704E-01  0.17643290037E-01 -0.75147813652E-01  0.88715982099E+00  0.88000000000E+00 0. -1.
        -11    1    3    3    0    0 -0.53073443298E-01 -0.15589122861E-01  0.46011020531E-01  0.71951971943E-01  0.51100000000E-03 0.  1.
         11    1    3    3    0    0 -0.31664102523E-02 -0.26798691882E-01  0.39420030627E-01  0.47774428056E-01  0.51100000000E-03 0. -1.
</event>
<event>
 8    1  0.2025822E+004  0.1043930E+01  0.7957747E-01            NaN
         13   -1    0    0    0    0  0.00000000000E+00  0.00000000000E+00  0.74505805969E-08  0.10566000000E+00  0.10566000000E+00 0.  1.
     999900   -1    0    0    0    0 -0.00000000000E+00 -0.00000000000E+00 -0.74505805969E-08  0.93827000000E+00  0.93827000000E+00 0. -1.
     999902    2    1    2    0    0  0.13247670960E-01  0.71372675531E-03  0.99594214277E-03  0.10306257867E+01  0.10305399119E+01 0.  0.
     999903    2    3    3    0    0  0.81583106833E-01  0.35615137432E-02  0.10814928985E+00  0.14149155517E+00  0.40682964350E-01 0.  0.
         14    1    1    2    0    0 -0.13247670960E-01 -0.71372675531E-03 -0.99594214277E-03  0.13304213337E-01  0.00000000000E+00 0.  1.
     999901    1    3    3    0    0 -0.68335435873E-01 -0.28477869879E-02 -0.10715334771E+00  0.88913423149E+00  0.88000000000E+00 0. -1.
        -11    1    4    4    0    0  0.52536733152E-01  0.40132014174E-02  0.36287706320E-01  0.63978690725E-01  0.51100000000E-03 0.  1.
         11    1    4    4    0    0  0.29046373681E-01 -0.45168767418E-03  0.71861583532E-01  0.77512864446E-01  0.51100000000E-03 0. -1.
</event>
<event>
 8    1  0.2025822E+004  0.1043930E+01  0.7957747E-01            NaN
         13   -1    0    0    0    0  0.00000000000E+00  0.00000000000E+00  0.74505805969E-08  0.10566000000E+00  0.10566000000E+00 0. -1.
     999900   -1    0    0    0    0 -0.00000000000E+00 -0.00000000000E+00 -0.74505805969E-08  0.93827000000E+00  0.93827000000E+00 0. -1.
     999902    2    1    2    0    0 -0.96127049046E-02  0.85060649926E-02 -0.58102846219E-02  0.10298404065E+01  0.10297440198E+01 0.  0.
     999903    2    3    3    0    0  0.12209529564E+00  0.41075534229E-02 -0.49014836288E-01  0.13897959943E+00  0.44595309947E-01 0.  0.
         14    1    1    2    0    0  0.96127049046E-02 -0.85060649926E-02  0.58102846219E-02  0.14089593487E-01  0.00000000000E+00 0. -1.
     999901    1    3    3    0    0 -0.13170800054E+00  0.43985115698E-02  0.43204551667E-01  0.89086080708E+00  0.88000000000E+00 0. -1.
        -11    1    4    4    0    0  0.10092186781E+00  0.15666416958E-01 -0.52102769011E-01  0.11465434873E+00  0.51100000000E-03 0.  1.
         11    1    4    4    0    0  0.21173427830E-01 -0.11558863535E-01  0.30879327229E-02  0.24325250704E-01  0.51100000000E-03 0. -1.
</event>
<event>
 8    1  0.2025822E+004  0.1043930E+01  0.7957747E-01            NaN
         13   -1    0    0    0    0  0.00000000000E+00  0.00000000000E+00  0.74505805969E-08  0.10566000000E+00  0.10566000000E+00 0. -1.
     999900   -1    0    0    0    0 -0.00000000000E+00 -0.00000000000E+00 -0.74505805969E-08  0.93827000000E+00  0.93827000000E+00 0.  1.
     999902    2    1    2    0    0  0.11147011072E-01  0.60795154006E-02 -0.55568770247E-02  0.10300701571E+01  0.10299769091E+01 0.  0.
     999903    2    3    3    0    0  0.39773543786E-01  0.11982167634E+00 -0.44526609310E-01  0.14143333724E+00  0.45624566177E-01 0.  0.
         14    1    1    2    0    0 -0.11147011072E-01 -0.60795154006E-02  0.55568770247E-02  0.13859842915E-01  0.00000000000E+00 0. -1.
     999901    1    3    3    0    0 -0.28626532713E-01 -0.11374216094E+00  0.38969732286E-01  0.88863681985E+00  0.88000000000E+00 0. -1.
        -11    1    4    4    0    0 -0.20041595573E-02  0.65984439418E-01 -0.19514270139E-01  0.68840618540E-01  0.51100000000E-03 0. -1.
         11    1    4    4    0    0  0.41777703343E-01  0.53837236926E-01 -0.25012339172E-01  0.72592718700E-01  0.51100000000E-03 0.  1.
</event>
<event>
 8    1  0.2025822E+004  0.1043930E+01  0.7957747E-01            NaN
         13   -1    0    0    0    0  0.00000000000E+00  0.00000000000E+00  0.74505805969E-08  0.10566000000E+00  0.10566000000E+00 0. -1.
     999900   -1    0    0    0    0 -0.00000000000E+00 -0.00000000000E+00 -0.74505805969E-08  0.93827000000E+00  0.93827000000E+00 0.  1.
     999902    2    1    2    0    0  0.10501308771E-01 -0.10044950995E-01  0.53071525117E-02  0.10284592407E+01  0.10283428734E+01 0.  0.
     999903    2    3    3    0    0 -0.59875963811E-01  0.97892562483E-01 -0.59345352178E-01  0.13672866832E+00  0.44774692432E-01 0.  0.
         14    1    1    2    0    0 -0.10501308771E-01  0.10044950995E-01 -0.53071525117E-02  0.15470759328E-01  0.00000000000E+00 0.  1.
     999901    1    3    3    0    0  0.70377272582E-01 -0.10793751348E+00  0.64652504690E-01  0.89173057236E+00  0.88000000000E+00 0.  1.
        -11    1    4    4    0    0 -0.32186489455E-01  0.22267120187E-01 -0.47445708313E-02  0.39427995362E-01  0.51100000000E-03 0.  1.
         11    1    4    4    0    0 -0.27689474356E-01  0.75625442297E-01 -0.54600781347E-01  0.97300672954E-01  0.51100000000E-03 0. -1.
</event>
<event>
 8    1  0.2025822E+004  0.1043930E+01  0.7957747E-01            NaN
         13   -1    0    0    0    0  0.00000000000E+00  0.00000000000E+00  0.74505805969E-08  0.10566000000E+00  0.10566000000E+00 0.  1.
     999900   -1    0    0    0    0 -0.00000000000E+00 -0.00000000000E+00 -0.74505805969E-08  0.93827000000E+00  0.93827000000E+00 0. -1.
     999902    2    1    2    0    0 -0.78710183507E-02 -0.67035672498E-02 -0.93695650287E-02  0.10299772407E+01  0.10298827296E+01 0.  0.
     999903    2    3    3    0    0  0.42291861344E-01 -0.11492369595E+00  0.50612598017E-01  0.13990658582E+00  0.44901673163E-01 0.  0.
         14    1    1    2    0    0  0.78710183507E-02  0.67035672498E-02  0.93695650287E-02  0.13952759318E-01  0.00000000000E+00 0.  1.
     999901    1    3    3    0    0 -0.50162879695E-01  0.10822012870E+00 -0.59982163046E-01  0.89007065486E+00  0.88000000000E+00 0. -1.
        -11    1    4    4    0    0  0.46474993576E-01 -0.63338092587E-01  0.33338777586E-01  0.85342686929E-01  0.51100000000E-03 0.  1.
         11    1    4    4    0    0 -0.41831322316E-02 -0.51585603361E-01  0.17273820431E-01  0.54563898895E-01  0.51100000000E-03 0. -1.
</event>
<event>
 8    1  0.2025822E+004  0.1043930E+01  0.7957747E-01            NaN
         13   -1    0    0    0    0  0.00000000000E+00  0.00000000000E+00  0.74505805969E-08  0.10566000000E+00  0.10566000000E+00 0.  1.
     999900   -1    0    0    0    0 -0.00000000000E+00 -0.00000000000E+00 -0.74505805969E-08  0.93827000000E+00  0.93827000000E+00 0. -1.
     999902    2    1    2    0    0 -0.53002314386E-02 -0.55290712058E-02  0.12675125715E-01  0.10291204796E+01  0.10290139162E+01 0.  0.
     999903    2    3    3    0    0  0.19023957728E-01  0.12326061513E+00 -0.35402136974E-01  0.13811550059E+00  0.47618168709E-01 0.  0.
         14    1    1    2    0    0  0.53002314386E-02  0.55290712058E-02 -0.12675125715E-01  0.14809520370E-01  0.00000000000E+00 0. -1.
     999901    1    3    3    0    0 -0.24324189167E-01 -0.12878968634E+00  0.48077262689E-01  0.89100497904E+00  0.88000000000E+00 0.  1.
        -11    1    4    4    0    0  0.26157739747E-01  0.38142559534E-01 -0.16850719134E-02  0.46283720517E-01  0.51100000000E-03 0.  1.
         11    1    4    4    0    0 -0.71337820187E-02  0.85118055596E-01 -0.33717065061E-01  0.91831780074E-01  0.51100000000E-03 0. -1.
</event>
<event>
 8    1  0.2025822E+004  0.1043930E+01  0.7957747E-01            NaN
         13   -1    0    0    0    0  0.00000000000E+00  0.00000000000E+00  0.74505805969E-08  0.10566000000E+00  0.10566000000E+00 0. -1.
     999900   -1    0    0    0    0 -0.00000000000E+00 -0.00000000000E+00 -0.74505805969E-08  0.93827000000E+00  0.93827000000E+00 0.  1.
     999902    2    1    2    0    0 -0.86825250576E-02 -0.10681789076E-01 -0.37277218402E-03  0.10301595309E+01  0.10300674897E+01 0.  0.
     999903    2    3    3    0    0  0.13171490484E-01 -0.72415480959E-01 -0.11107669955E+00  0.14080920275E+00  0.45516023012E-01 0.  0.
         14    1    1    2    0    0  0.86825250576E-02  0.10681789076E-01  0.37277218402E-03  0.13770469068E-01  0.00000000000E+00 0.  1.
     999901    1    3    3    0    0 -0.21854015542E-01  0.61733691882E-01  0.11070392737E+00  0.88935032819E+00  0.88000000000E+00 0. -1.
        -11    1    4    4    0    0  0.11514909528E-01 -0.36638293737E-01 -0.20784414314E-01  0.43671623610E-01  0.51100000000E-03 0. -1.
         11    1    4    4    0    0  0.16565809566E-02 -0.35777187221E-01 -0.90292285238E-01  0.97137579136E-01  0.51100000000E-03 0.  1.
</event>
<event>
 8    1  0.2025822E+004  0.1043930E+01  0.7957747E-01            NaN
         13   -1    0    0    0    0  0.00000000000E+00  0.00000000000E+00  0.74505805969E-08  0.10566000000E+00  0.10566000000E+00 0.  1.
     999900   -1    0    0    0    0 -0.00000000000E+00 -0.00000000000E+00 -0.74505805969E-08  0.93827000000E+00  0.93827000000E+00 0.  1.
     999902    2    1    2    0    0 -0.12626865203E-01 -0.42915108568E-02 -0.96516612269E-03  0.10305588992E+01  0.10304721532E+01 0.  0.
     999903    2    3    3    0    0 -0.33656084207E-01  0.56822223628E-01  0.11522351814E+00  0.14057186171E+00  0.46070511920E-01 0.  0.
         14    1    1    2    0    0  0.12626865203E-01  0.42915108568E-02  0.96516612269E-03  0.13371100775E-01  0.00000000000E+00 0.  1.
     999901    1    3    3    0    0  0.21029219004E-01 -0.61113734485E-01 -0.11618868427E+00  0.88998703752E+00  0.88000000000E+00 0.  1.
        -11    1    4    4    0    0 -0.19001942181E-01  0.41078757702E-02  0.58983729553E-01  0.62107084322E-01  0.51100000000E-03 0. -1.
         11    1    4    4    0    0 -0.14654142026E-01  0.52714347858E-01  0.56239788592E-01  0.78464777388E-01  0.51100000000E-03 0.  1.
</event>
<event>
 8    1  0.3119915E+004  0.1043930E+01  0.7957747E-01            NaN
         13   -1    0    0    0    0  0.00000000000E+00  0.00000000000E+00  0.74505805969E-08  0.10566000000E+00  0.10566000000E+00 0.  1.
     999900   -1    0    0    0    0 -0.00000000000E+00 -0.00000000000E+00 -0.74505805969E-08  0.93827000000E+00  0.93827000000E+00 0. -1.
     999902    2    1    2    0    0 -0.29226095741E-02  0.12504861116E-01  0.55283145360E-02  0.10299487461E+01  0.10298538460E+01 0.  0.
     999903    2    3    3    0    0 -0.26551657376E-01  0.77950178835E-01 -0.10446350146E+00  0.14037602785E+00  0.44850698630E-01 0.  0.
         14    1    1    2    0    0  0.29226095741E-02 -0.12504861116E-01 -0.55283145360E-02  0.13981253873E-01  0.00000000000E+00 0. -1.
     999901    1    3    3    0    0  0.23629047802E-01 -0.65445317719E-01  0.10999181600E+00  0.88957271827E+00  0.88000000000E+00 0.  1.
        -11    1    4    4    0    0 -0.21802991272E-01  0.48582329720E-01 -0.32210544457E-01  0.62236592811E-01  0.51100000000E-03 0.  1.
         11    1    4    4    0    0 -0.47486661042E-02  0.29367849115E-01 -0.72252957006E-01  0.78139435041E-01  0.51100000000E-03 0. -1.
</event>
<event>
 8    1  0.2025822E+004  0.1043930E+01  0.7957747E-01            NaN
         13   -1    0    0    0    0  0.00000000000E+00  0.00000000000E+00  0.74505805969E-08  0.10566000000E+00  0.10566000000E+00 0. -1.
     999900   -1    0    0    0    0 -0.00000000000E+00 -0.00000000000E+00 -0.74505805969E-08  0.93827000000E+00  0.93827000000E+00 0.  1.
     999902    2    1    2    0    0 -0.37037875562E-02  0.73815028741E-02  0.55289811451E-02  0.10339914760E+01  0.10339437113E+01 0.  0.
     999903    2    3    3    0    0 -0.35618670947E-02  0.11986250651E+00 -0.65565941854E-01  0.14398783308E+00  0.45319929175E-01 0.  0.
         14    1    1    2    0    0  0.37037875562E-02 -0.73815028741E-02 -0.55289811451E-02  0.99385240073E-02  0.00000000000E+00 0.  1.
     999901    1    3    3    0    0 -0.14192046148E-03 -0.11248100363E+00  0.71094922999E-01  0.89000364291E+00  0.88000000000E+00 0. -1.
        -11    1    4    4    0    0  0.14366502231E-01  0.91071603698E-01 -0.58933073693E-01  0.10942486775E+00  0.51100000000E-03 0.  1.
         11    1    4    4    0    0 -0.17928369326E-01  0.28790902811E-01 -0.66328681615E-02  0.34562965330E-01  0.51100000000E-03 0. -1.
</event>
<event>
 8    1  0.2025822E+004  0.1043930E+01  0.7957747E-01            NaN
         13   -1    0    0    0    0  0.00000000000E+00  0.00000000000E+00  0.74505805969E-08  0.10566000000E+00  0.10566000000E+00 0. -1.
     999900   -1    0    0    0    0 -0.00000000000E+00 -0.00000000000E+00 -0.74505805969E-08  0.93827000000E+00  0.93827000000E+00 0. -1.
     999902    2    1    2    0    0  0.36134009628E-03  0.11991916437E-01  0.57944501528E-02  0.10306066266E+01  0.10305205027E+01 0.  0.
     999903    2    3    3    0    0  0.11018779172E+00  0.65948861861E-01 -0.36050760832E-01  0.14115498478E+00  0.46200330594E-01 0.  0.
         14    1    1    2    0    0 -0.36134009628E-03 -0.11991916437E-01 -0.57944501528E-02  0.13323373412E-01  0.00000000000E+00 0.  1.
     999901    1    3    3    0    0 -0.10982645162E+00 -0.53956945423E-01  0.41845210985E-01  0.88945164181E+00  0.88000000000E+00 0.  1.
        -11    1    4    4    0    0  0.45033149803E-01  0.12128356550E-01  0.55331542828E-02  0.46967632803E-01  0.51100000000E-03 0.  1.
         11    1    4    4    0    0  0.65154641915E-01  0.53820505311E-01 -0.41583915115E-01  0.94187351976E-01  0.51100000000E-03 0. -1.
</event>
<event>
 7    1  0.2025822E+004  0.1043930E+01  0.7957747E-01            NaN
         13   -1    0    0    0    0  0.00000000000E+00  0.00000000000E+00  0.74505805969E-08  0.10566000000E+00  0.10566000000E+00 0. -1.
     999900   -1    0    0    0    0 -0.00000000000E+00 -0.00000000000E+00 -0.74505805969E-08  0.93827000000E+00  0.93827000000E+00 0. -1.
     999903    2    1    2    0    0 -0.56876819822E-01 -0.90171051536E-01 -0.33153932759E-01  0.12034682138E+00  0.44926417517E-01 0.  0.
         14    1    1    2    0    0 -0.71238682136E-02 -0.27238291610E-01 -0.15525305044E-01  0.32151347170E-01  0.00000000000E+00 0.  1.
     999901    1    1    2    0    0  0.64000688036E-01  0.11740934315E+00  0.48679237804E-01  0.89143183145E+00  0.88000000000E+00 0.  1.
        -11    1    3    3    0    0 -0.49298478443E-01 -0.39225861834E-01 -0.96787078646E-02  0.63741248187E-01  0.51100000000E-03 0. -1.
         11    1    3    3    0    0 -0.75783413787E-02 -0.50945189701E-01 -0.23475224895E-01  0.56605573194E-01  0.51100000000E-03 0.  1.
</event>
<event>
 8    1  0.2025822E+004  0.1043930E+01  0.7957747E-01            NaN
         13   -1    0    0    0    0  0.00000000000E+00  0.00000000000E+00  0.74505805969E-08  0.10566000000E+00  0.10566000000E+00 0. -1.
     999900   -1    0    0    0    0 -0.00000000000E+00 -0.00000000000E+00 -0.74505805969E-08  0.93827000000E+00  0.93827000000E+00 0.  1.
     999902    2    1    2    0    0  0.11764183342E-01 -0.48282225909E-02 -0.68046169753E-02  0.10295074290E+01  0.10294063997E+01 0.  0.
     999903    2    3    3    0    0 -0.44722954009E-02  0.89823343768E-01  0.95184092972E-01  0.13842705144E+00  0.44875410896E-01 0.  0.
         14    1    1    2    0    0 -0.11764183342E-01  0.48282225909E-02  0.68046169753E-02  0.14422571035E-01  0.00000000000E+00 0. -1.
     999901    1    3    3    0    0  0.16236478743E-01 -0.94651566359E-01 -0.10198870995E+00  0.89108037753E+00  0.88000000000E+00 0.  1.
        -11    1    4    4    0    0 -0.19946648018E-01  0.35995653047E-01  0.58299616882E-01  0.71362891302E-01  0.51100000000E-03 0. -1.
         11    1    4    4    0    0  0.15474352618E-01  0.53827690720E-01  0.36884476091E-01  0.67064160136E-01  0.51100000000E-03 0.  1.
</event>
<event>
 8    1  0.2025822E+004  0.1043930E+01  0.7957747E-01            NaN
         13   -1    0    0    0    0  0.00000000000E+00  0.00000000000E+00  0.74505805969E-08  0.10566000000E+00  0.10566000000E+00 0. -1.
     999900   -1    0    0    0    0 -0.00000000000E+00 -0.00000000000E+00 -0.74505805969E-08  0.93827000000E+00  0.93827000000E+00 0. -1.
     999902    2    1    2    0    0 -0.91352775410E-02  0.11590140881E-01 -0.17432128949E-01  0.10210900398E+01  0.10208345633E+01 0.  0.
     999903    2    3    3    0    0  0.34111378085E-01 -0.42082780818E-01 -0.11330652773E+00  0.13320324744E+00  0.44386815000E-01 0.  0.
         14    1    1    2    0    0  0.91352775410E-02 -0.11590140881E-01  0.17432128949E-01  0.22839960182E-01  0.00000000000E+00 0. -1.
     999901    1    3    3    0    0 -0.43246655626E-01  0.53672921699E-01  0.95874398777E-01  0.88788679238E+00  0.88000000000E+00 0.  1.
        -11    1    4    4    0    0  0.43137067454E-01 -0.23886284316E-01 -0.86473920789E-01  0.99545774720E-01  0.51100000000E-03 0.  1.
         11    1    4    4    0    0 -0.90256893698E-02 -0.18196496503E-01 -0.26832606937E-01  0.33657472715E-01  0.51100000000E-03 0. -1.
</event>
<event>
 8    1  0.2025822E+004  0.1043930E+01  0.7957747E-01            NaN
         13   -1    0    0    0    0  0.00000000000E+00  0.00000000000E+00  0.74505805969E-08  0.10566000000E+00  0.10566000000E+00 0. -1.
     999900   -1    0    0    0    0 -0.00000000000E+00 -0.00000000000E+00 -0.74505805969E-08  0.93827000000E+00  0.93827000000E+00 0. -1.
     999902    2    1    2    0    0 -0.20998793076E-03 -0.26837466191E-02  0.12145363350E-01  0.10314898858E+01  0.10314148671E+01 0.  0.
     999903    2    3    3    0    0  0.48787991649E-01 -0.11915373672E+00  0.39296467925E-01  0.14205003786E+00  0.45344456779E-01 0.  0.
         14    1    1    2    0    0  0.20998793076E-03  0.26837466191E-02 -0.12145363350E-01  0.12440114217E-01  0.00000000000E+00 0.  1.
     999901    1    3    3    0    0 -0.48997979580E-01  0.11646999010E+00 -0.27151104575E-01  0.88943984792E+00  0.88000000000E+00 0.  1.
        -11    1    4    4    0    0  0.39644423697E-02 -0.69095368634E-01  0.22654496987E-01  0.72824268789E-01  0.51100000000E-03 0. -1.
         11    1    4    4    0    0  0.44823549279E-01 -0.50058368086E-01  0.16641970938E-01  0.69225769068E-01  0.51100000000E-03 0.  1.
</event>
<event>
 8    1  0.2025822E+004  0.1043930E+01  0.7957747E-01            NaN
         13   -1    0    0    0    0  0.00000000000E+00  0.00000000000E+00  0.74505805969E-08  0.10566000000E+00  0.10566000000E+00 0. -1.
     999900   -1    0    0    0    0 -0.00000000000E+00 -0.00000000000E+00 -0.74505805969E-08  0.93827000000E+00  0.93827000000E+00 0.  1.
     999902    2    1    2    0    0 -0.55247879812E-02  0.20992649877E-02  0.62603432881E-02  0.10353205811E+01  0.10352847838E+01 0.  0.
     999903    2    3    3    0    0 -0.41808364215E-01 -0.10415717661E+00  0.81653533534E-01  0.14498858548E+00  0.41925333907E-01 0.  0.
         14    1    1    2    0    0  0.55247879812E-02 -0.20992649877E-02 -0.62603432881E-02  0.86094189009E-02  0.00000000000E+00 0.  1.
     999901    1    3    3    0    0  0.36283576234E-01  0.10625644160E+00 -0.75393190246E-01  0.89033199562E+00  0.88000000000E+00 0.  1.
        -11    1    4    4    0    0 -0.40718687384E-01 -0.74325891946E-01  0.39935645805E-01  0.93688135015E-01  0.51100000000E-03 0. -1.
         11    1    4    4    0    0 -0.10896768312E-02 -0.29831284665E-01  0.41717887730E-01  0.51300450466E-01  0.51100000000E-03 0.  1.
</event>
<event>
 8    1  0.2025822E+004  0.1043930E+01  0.7957747E-01            NaN
         13   -1    0    0    0    0  0.00000000000E+00  0.00000000000E+00  0.74505805969E-08  0.10566000000E+00  0.10566000000E+00 0. -1.
     999900   -1    0    0    0    0 -0.00000000000E+00 -0.00000000000E+00 -0.74505805969E-08  0.93827000000E+00  0.93827000000E+00 0.  1.
     999902    2    1    2    0    0  0.11501346673E-01 -0.12125719847E-02 -0.19572614943E-02  0.10322004570E+01  0.10321338098E+01 0.  0.
     999903    2    3    3    0    0 -0.12633134125E+00  0.36313883380E-01  0.11378712812E-01  0.14058174202E+00  0.48532928781E-01 0.  0.
         14    1    1    2    0    0 -0.11501346673E-01  0.12125719847E-02  0.19572614943E-02  0.11729542986E-01  0.00000000000E+00 0.  1.
     999901    1    3    3    0    0  0.13783268792E+00 -0.37526455365E-01 -0.13335974306E-01  0.89161871499E+00  0.88000000000E+00 0.  1.
        -11    1    4    4    0    0 -0.10578984036E+00  0.47632828622E-01  0.14473591345E-01  0.11691929975E+00  0.51100000000E-03 0. -1.
         11    1    4    4    0    0 -0.20541500888E-01 -0.11318945242E-01 -0.30948785332E-02  0.23662442272E-01  0.51100000000E-03 0.  1.
</event>
<event>
 8    1  0.2025822E+004  0.1043930E+01  0.7957747E-01            NaN
         13   -1    0    0    0    0  0.00000000000E+00  0.00000000000E+00  0.74505805969E-08  0.10566000000E+00  0.10566000000E+00 0. -1.
     999900   -1    0    0    0    0 -0.00000000000E+00 -0.00000000000E+00 -0.74505805969E-08  0.93827000000E+00  0.93827000000E+00 0. -1.
     999902    2    1    2    0    0 -0.11884409243E-01  0.37712882121E-02  0.86617464427E-02  0.10287481803E+01  0.10286361508E+01 0.  0.
     999903    2    3    3    0    0 -0.44780086837E-01 -0.73442071215E-01 -0.97700517724E-01  0.13837917831E+00  0.46951164245E-01 0.  0.
         14    1    1    2    0    0  0.11884409243E-01 -0.37712882121E-02 -0.86617464427E-02  0.15181819696E-01  0.00000000000E+00 0.  1.
     999901    1    3    3    0    0  0.32895677594E-01  0.77213359427E-01  0.10636226417E+00  0.89036900200E+00  0.88000000000E+00 0.  1.
        -11    1    4    4    0    0 -0.13295253188E-01 -0.62777104041E-01 -0.57046371787E-01  0.85861971816E-01  0.51100000000E-03 0. -1.
         11    1    4    4    0    0 -0.31484833649E-01 -0.10664967173E-01 -0.40654145937E-01  0.52517206491E-01  0.51100000000E-03 0.  1.
</event>
<event>
 8    1  0.2025822E+004  0.1043930E+01  0.7957747E-01            NaN
         13   -1    0    0    0    0  0.00000000000E+00  0.00000000000E+00  0.74505805969E-08  0.10566000000E+00  0.10566000000E+00 0. -1.
     999900   -1    0    0    0    0 -0.00000000000E+00 -0.00000000000E+00 -0.74505805969E-08  0.93827000000E+00  0.93827000000E+00 0.  1.
     999902    2    1    2    0    0  0.91169342290E-03  0.14478909328E-01 -0.77426094454E-03  0.10294017695E+01  0.10292992440E+01 0.  0.
     999903    2    3    3    0    0  0.80039991491E-01  0.10570473627E+00 -0.11070659336E-01  0.14109469714E+00  0.46960223116E-01 0.  0.
         14    1    1    2    0    0 -0.91169342290E-03 -0.14478909328E-01  0.77426094454E-03  0.14528230457E-01  0.00000000000E+00 0.  1.
     999901    1    3    3    0    0 -0.79128298068E-01 -0.91225826946E-01  0.10296398392E-01  0.88830707240E+00  0.88000000000E+00 0.  1.
        -11    1    4    4    0    0  0.57958970300E-01  0.10327847765E+00 -0.98943463890E-02  0.11884378568E+00  0.51100000000E-03 0.  1.
         11    1    4    4    0    0  0.22081021190E-01  0.24262586260E-02 -0.11763129473E-02  0.22250911462E-01  0.51100000000E-03 0. -1.
</event>
<event>
 8    1  0.2025822E+004  0.1043930E+01  0.7957747E-01            NaN
         13   -1    0    0    0    0  0.00000000000E+00  0.00000000000E+00  0.74505805969E-08  0.10566000000E+00  0.10566000000E+00 0.  1.
     999900   -1    0    0    0    0 -0.00000000000E+00 -0.00000000000E+00 -0.74505805969E-08  0.93827000000E+00  0.93827000000E+00 0. -1.
     999902    2    1    2    0    0 -0.77923226190E-02  0.10279738152E-01  0.45843184536E-02  0.10302402489E+01  0.10301492908E+01 0.  0.
     999903    2    3    3    0    0  0.90769963655E-01  0.54731265083E-01 -0.79062501659E-01  0.13968578512E+00  0.45017126926E-01 0.  0.
         14    1    1    2    0    0  0.77923226190E-02 -0.10279738152E-01 -0.45843184536E-02  0.13689751055E-01  0.00000000000E+00 0. -1.
     999901    1    3    3    0    0 -0.98562286274E-01 -0.44451526931E-01  0.83646820113E-01  0.89055446382E+00  0.88000000000E+00 0.  1.
        -11    1    4    4    0    0  0.34509056311E-01  0.25105181365E-01 -0.59373711670E-01  0.73120748473E-01  0.51100000000E-03 0. -1.
         11    1    4    4    0    0  0.56260907344E-01  0.29626083718E-01 -0.19688789989E-01  0.66565036647E-01  0.51100000000E-03 0.  1.
</event>
<event>
 8    1  0.2025822E+004  0.1043930E+01  0.7957747E-01            NaN
         13   -1    0    0    0    0  0.00000000000E+00  0.00000000000E+00  0.74505805969E-08  0.10566000000E+00  0.10566000000E+00 0.  1.
     999900   -1    0    0    0    0 -0.00000000000E+00 -0.00000000000E+00 -0.74505805969E-08  0.93827000000E+00  0.93827000000E+00 0. -1.
     999902    2    1    2    0    0 -0.73954326825E-02  0.10893215632E-01  0.69057792694E-02  0.10290624394E+01  0.10289550329E+01 0.  0.
     999903    2    3    3    0    0 -0.12480220928E+00  0.34499141618E-01  0.30795181451E-01  0.14062994647E+00  0.45416477493E-01 0.  0.
         14    1    1    2    0    0  0.73954326825E-02 -0.10893215632E-01 -0.69057792694E-02  0.14867560617E-01  0.00000000000E+00 0. -1.
     999901    1    3    3    0    0  0.11740677660E+00 -0.23605925985E-01 -0.23889402182E-01  0.88843249292E+00  0.88000000000E+00 0.  1.
        -11    1    4    4    0    0 -0.17378806594E-01 -0.18633997418E-02 -0.99526279659E-02  0.20119918033E-01  0.51100000000E-03 0. -1.
         11    1    4    4    0    0 -0.10742340269E+00  0.36362541359E-01  0.40747809417E-01  0.12051002843E+00  0.51100000000E-03 0.  1.
</event>
<event>
 8    1  0.2025822E+004  0.1043930E+01  0.7957747E-01            NaN
         13   -1    0    0    0    0  0.00000000000E+00  0.00000000000E+00  0.74505805969E-08  0.10566000000E+00  0.10566000000E+00 0.  1.
     999900   -1    0    0    0    0 -0.00000000000E+00 -0.00000000000E+00 -0.74505805969E-08  0.93827000000E+00  0.93827000000E+00 0.  1.
     999902    2    1    2    0    0  0.33505460792E-02  0.14191059030E-01 -0.63505277436E-02  0.10280258648E+01  0.10279028345E+01 0.  0.
     999903    2    3    3    0    0 -0.18051044135E-02  0.36060556132E-01  0.12516382196E+00  0.13796919250E+00  0.45452102712E-01 0.  0.
         14    1    1    2    0    0 -0.33505460792E-02 -0.14191059030E-01  0.63505277436E-02  0.15904135249E-01  0.00000000000E+00 0.  1.
     999901    1    3    3    0    0  0.51556504927E-02 -0.21869497102E-01 -0.13151434971E+00  0.89005667225E+00  0.88000000000E+00 0.  1.
        -11    1    4    4    0    0 -0.11026072362E-01 -0.62046914929E-02  0.15089816925E-01  0.19698633559E-01  0.51100000000E-03 0. -1.
         11    1    4    4    0    0  0.92209679488E-02  0.42265247625E-01  0.11007400504E+00  0.11827055894E+00  0.51100000000E-03 0.  1.
</event>
<event>
 8    1  0.2025822E+004  0.1043930E+01  0.7957747E-01            NaN
         13   -1    0    0    0    0  0.00000000000E+00  0.00000000000E+00  0.74505805969E-08  0.10566000000E+00  0.10566000000E+00 0.  1.
     999900   -1    0    0    0    0 -0.00000000000E+00 -0.00000000000E+00 -0.74505805969E-08  0.93827000000E+00  0.93827000000E+00 0. -1.
     999902    2    1    2    0    0  0.11587929378E-01 -0.75361880150E-02 -0.56680633233E-02  0.10289900810E+01  0.10288816189E+01 0.  0.
     999903    2    3    3    0    0 -0.14706698372E-01  0.12225303444E+00 -0.42327113319E-01  0.13832710568E+00  0.46698096702E-01 0.  0.
         14    1    1    2    0    0 -0.11587929378E-01  0.75361880150E-02  0.56680633233E-02  0.14939918972E-01  0.00000000000E+00 0.  1.
     999901    1    3    3    0    0  0.26294627750E-01 -0.12978922246E+00  0.36659049996E-01  0.89066297535E+00  0.88000000000E+00 0.  1.
        -11    1    4    4    0    0 -0.26630627750E-01  0.44576281967E-01 -0.78859357362E-02  0.52523179186E-01  0.51100000000E-03 0. -1.
         11    1    4    4    0    0  0.11923929378E-01  0.77676752475E-01 -0.34441177583E-01  0.85803926491E-01  0.51100000000E-03 0.  1.
</event>
<event>
 8    1  0.2025822E+004  0.1043930E+01  0.7957747E-01            NaN
         13   -1    0    0    0    0  0.00000000000E+00  0.00000000000E+00  0.74505805969E-08  0.10566000000E+00  0.10566000000E+00 0. -1.
     999900   -1    0    0    0    0 -0.00000000000E+00 -0.00000000000E+00 -0.74505805969E-08  0.93827000000E+00  0.93827000000E+00 0. -1.
     999902    2    1    2    0    0  0.43874012743E-02 -0.13655176766E-01 -0.34568105559E-02  0.10291766044E+01  0.10290708529E+01 0.  0.
     999903    2    3    3    0    0  0.91755192367E-01 -0.90974743246E-01  0.33611853507E-01  0.14070289509E+00  0.44408656318E-01 0.  0.
         14    1    1    2    0    0 -0.43874012743E-02  0.13655176766E-01  0.34568105559E-02  0.14753395598E-01  0.00000000000E+00 0. -1.
     999901    1    3    3    0    0 -0.87367791093E-01  0.77319566480E-01 -0.37068664063E-01  0.88847370931E+00  0.88000000000E+00 0.  1.
        -11    1    4    4    0    0  0.57990975473E-01 -0.31348028943E-01  0.29008915048E-01  0.72023818478E-01  0.51100000000E-03 0. -1.
         11    1    4    4    0    0  0.33764216894E-01 -0.59626714303E-01  0.46029384594E-02  0.68679076613E-01  0.51100000000E-03 0.  1.
</event>
<event>
 8    1  0.2025822E+004  0.1043930E+01  0.7957747E-01            NaN
         13   -1    0    0    0    0  0.00000000000E+00  0.00000000000E+00  0.74505805969E-08  0.10566000000E+00  0.10566000000E+00 0.  1.
     999900   -1    0    0    0    0 -0.00000000000E+00 -0.00000000000E+00 -0.74505805969E-08  0.93827000000E+00  0.93827000000E+00 0.  1.
     999902    2    1    2    0    0 -0.11832787621E-01 -0.45245235999E-02  0.62143703719E-02  0.10298195579E+01  0.10297228837E+01 0.  0.
     999903    2    3    3    0    0  0.22462443915E-01 -0.11135590646E+00  0.68485688386E-01  0.14051262310E+00  0.46355241843E-01 0.  0.
         14    1    1    2    0    0  0.11832787621E-01  0.45245235999E-02 -0.62143703719E-02  0.14110442084E-01  0.00000000000E+00 0. -1.
     999901    1    3    3    0    0 -0.34295231536E-01  0.10683138286E+00 -0.62271318014E-01  0.88930693482E+00  0.88000000000E+00 0.  1.
        -11    1    4    4    0    0  0.26816171757E-01 -0.91396971299E-01  0.35383059450E-01  0.10161070538E+00  0.51100000000E-03 0. -1.
         11    1    4    4    0    0 -0.43537278416E-02 -0.19958935159E-01  0.33102628936E-01  0.38901917720E-01  0.51100000000E-03 0.  1.
</event>
<event>
 8    1  0.2025822E+004  0.1043930E+01  0.7957747E-01            NaN
         13   -1    0    0    0    0  0.00000000000E+00  0.00000000000E+00  0.74505805969E-08  0.10566000000E+00  0.10566000000E+00 0.  1.
     999900   -1    0    0    0    0 -0.00000000000E+00 -0.00000000000E+00 -0.74505805969E-08  0.93827000000E+00  0.93827000000E+00 0. -1.
     999902    2    1    2    0    0 -0.56719584070E-02  0.86246617740E-02 -0.10293483367E-01  0.10293522189E+01  0.10292489878E+01 0.  0.
     999903    2    3    3    0    0 -0.85270425234E-01  0.69380598727E-01  0.75367674453E-01  0.13954042205E+00  0.41310169867E-01 0.  0.
         14    1    1    2    0    0  0.56719584070E-02 -0.86246617740E-02  0.10293483367E-01  0.14577781131E-01  0.00000000000E+00 0. -1.
     999901    1    3    3    0    0  0.79598466827E-01 -0.60755936953E-01 -0.85661157820E-01  0.88981179682E+00  0.88000000000E+00 0. -1.
        -11    1    4    4    0    0 -0.48824962131E-01  0.51434418479E-01  0.25839035421E-01  0.75480416028E-01  0.51100000000E-03 0. -1.
         11    1    4    4    0    0 -0.36445463103E-01  0.17946180249E-01  0.49528639032E-01  0.64060006023E-01  0.51100000000E-03 0.  1.
</event>
<event>
 8    1  0.2025822E+004  0.1043930E+01  0.7957747E-01            NaN
         13   -1    0    0    0    0  0.00000000000E+00  0.00000000000E+00  0.74505805969E-08  0.10566000000E+00  0.10566000000E+00 0. -1.
     999900   -1    0    0    0    0 -0.00000000000E+00 -0.00000000000E+00 -0.74505805969E-08  0.93827000000E+00  0.93827000000E+00 0. -1.
     999902    2    1    2    0    0 -0.10004173035E-01 -0.37743687715E-02 -0.96270283855E-02  0.10295421922E+01  0.10294416528E+01 0.  0.
     999903    2    3    3    0    0  0.42949224448E-01  0.31355003524E-01  0.11911736268E+00  0.13790703512E+00  0.44739603454E-01 0.  0.
         14    1    1    2    0    0  0.10004173035E-01  0.37743687715E-02  0.96270283855E-02  0.14387807800E-01  0.00000000000E+00 0. -1.
     999901    1    3    3    0    0 -0.52953397483E-01 -0.35129372295E-01 -0.12874439107E+00  0.89163515708E+00  0.88000000000E+00 0. -1.
        -11    1    4    4    0    0  0.13273330889E-01 -0.83603325301E-02  0.11625819507E-01  0.19531955179E-01  0.51100000000E-03 0.  1.
         11    1    4    4    0    0  0.29675893559E-01  0.39715336054E-01  0.10749154318E+00  0.11837507994E+00  0.51100000000E-03 0. -1.
</event>
<event>
 8    1  0.2025822E+004  0.1043930E+01  0.7957747E-01            NaN
         13   -1    0    0    0    0  0.00000000000E+00  0.00000000000E+00  0.74505805969E-08  0.10566000000E+00  0.10566000000E+00 0.  1.
     999900   -1    0    0    0    0 -0.00000000000E+00 -0.00000000000E+00 -0.74505805969E-08  0.93827000000E+00  0.93827000000E+00 0. -1.
     999902    2    1    2    0    0 -0.73412034324E-02  0.10674194899E-01  0.53298226075E-02  0.10299214771E+01  0.10298262039E+01 0.  0.
     999903    2    3    3    0    0  0.95383126778E-01  0.36457913146E-01  0.83508601502E-01  0.14012992308E+00  0.47282010467E-01 0.  0.
         14    1    1    2    0    0  0.73412034324E-02 -0.10674194899E-01 -0.53298226075E-02  0.14008522892E-01  0.00000000000E+00 0. -1.
     999901    1    3    3    0    0 -0.10272433021E+00 -0.25783718248E-01 -0.78178778895E-01  0.88979155402E+00  0.88000000000E+00 0. -1.
        -11    1    4    4    0    0  0.49616577831E-01  0.43786239248E-01  0.49048787120E-01  0.82371622432E-01  0.51100000000E-03 0.  1.
         11    1    4    4    0    0  0.45766548946E-01 -0.73283261019E-02  0.34459814382E-01  0.57758300652E-01  0.51100000000E-03 0. -1.
</event>
<event>
 8    1  0.2025822E+004  0.1043930E+01  0.7957747E-01            NaN
         13   -1    0    0    0    0  0.00000000000E+00  0.00000000000E+00  0.74505805969E-08  0.10566000000E+00  0.10566000000E+00 0. -1.
     999900   -1    0    0    0    0 -0.00000000000E+00 -0.00000000000E+00 -0.74505805969E-08  0.93827000000E+00  0.93827000000E+00 0.  1.
     999902    2    1    2    0    0  0.12417533091E-01  0.56996665401E-02  0.12618071189E-02  0.10302087215E+01  0.10301173411E+01 0.  0.
     999903    2    3    3    0    0 -0.10377111992E+00  0.74424786347E-02  0.80382074141E-01  0.13905056654E+00  0.45276333707E-01 0.  0.
         14    1    1    2    0    0 -0.12417533091E-01 -0.56996665401E-02 -0.12618071189E-02  0.13721278509E-01  0.00000000000E+00 0.  1.
     999901    1    3    3    0    0  0.11618865301E+00 -0.17428120946E-02 -0.79120267022E-01  0.89115815495E+00  0.88000000000E+00 0.  1.
        -11    1    4    4    0    0 -0.80849027490E-01 -0.13181103324E-01  0.65087160506E-01  0.10462746444E+00  0.51100000000E-03 0. -1.
         11    1    4    4    0    0 -0.22922092430E-01  0.20623581959E-01  0.15294913636E-01  0.34423102102E-01  0.51100000000E-03 0.  1.
</event>
<event>
 8    1  0.2025822E+004  0.1043930E+01  0.7957747E-01            NaN
         13   -1    0    0    0    0  0.00000000000E+00  0.00000000000E+00  0.74505805969E-08  0.10566000000E+00  0.10566000000E+00 0.  1.
     999900   -1    0    0    0    0 -0.00000000000E+00 -0.00000000000E+00 -0.74505805969E-08  0.93827000000E+00  0.93827000000E+00 0.  1.
     999902    2    1    2    0    0  0.73306550675E-02 -0.19241184675E-02  0.12327906984E-01  0.10294587172E+01  0.10293569995E+01 0.  0.
     999903    2    3    3    0    0 -0.10737177123E+00 -0.61665062952E-01  0.45570884512E-01  0.13938528056E+00  0.44947454591E-01 0.  0.
         14    1    1    2    0    0 -0.73306550675E-02  0.19241184675E-02 -0.12327906984E-01  0.14471282811E-01  0.00000000000E+00 0. -1.
     999901    1    3    3    0    0  0.11470242630E+00  0.59740944485E-01 -0.33242977529E-01  0.89007343663E+00  0.88000000000E+00 0.  1.
        -11    1    4    4    0    0 -0.16057762127E-01 -0.99025776066E-02  0.26762319669E-01  0.32747452463E-01  0.51100000000E-03 0.  1.
         11    1    4    4    0    0 -0.91314009103E-01 -0.51762485346E-01  0.18808564843E-01  0.10663782809E+00  0.51100000000E-03 0. -1.
</event>
<event>
 8    1  0.2025822E+004  0.1043930E+01  0.7957747E-01            NaN
         13   -1    0    0    0    0  0.00000000000E+00  0.00000000000E+00  0.74505805969E-08  0.10566000000E+00  0.10566000000E+00 0. -1.
     999900   -1    0    0    0    0 -0.00000000000E+00 -0.00000000000E+00 -0.74505805969E-08  0.93827000000E+00  0.93827000000E+00 0.  1.
     999902    2    1    2    0    0 -0.41142765323E-02 -0.11045405159E-01  0.63900882498E-02  0.10305224844E+01  0.10304352621E+01 0.  0.
     999903    2    3    3    0    0 -0.79501090327E-01  0.95840534930E-01  0.42800459948E-01  0.14011050614E+00  0.47887817438E-01 0.  0.
         14    1    1    2    0    0  0.41142765323E-02  0.11045405159E-01 -0.63900882498E-02  0.13407515592E-01  0.00000000000E+00 0.  1.
     999901    1    3    3    0    0  0.75386813794E-01 -0.10688594009E+00 -0.36410371698E-01  0.89041197827E+00  0.88000000000E+00 0.  1.
        -11    1    4    4    0    0 -0.27786247704E-01  0.13129118084E-01 -0.55546949949E-02  0.31234036893E-01  0.51100000000E-03 0. -1.
         11    1    4    4    0    0 -0.51714842623E-01  0.82711416847E-01  0.48355154943E-01  0.10887646924E+00  0.51100000000E-03 0.  1.
</event>
<event>
 8    1  0.2025822E+004  0.1043930E+01  0.7957747E-01            NaN
         13   -1    0    0    0    0  0.00000000000E+00  0.00000000000E+00  0.74505805969E-08  0.10566000000E+00  0.10566000000E+00 0. -1.
     999900   -1    0    0    0    0 -0.00000000000E+00 -0.00000000000E+00 -0.74505805969E-08  0.93827000000E+00  0.93827000000E+00 0. -1.
     999902    2    1    2    0    0 -0.89371477555E-02 -0.87903016632E-03 -0.11158499893E-01  0.10296066825E+01  0.10295070487E+01 0.  0.
     999903    2    3    3    0    0 -0.50994214665E-01 -0.95963890536E-01  0.74029393307E-01  0.13940058014E+00  0.46289226112E-01 0.  0.
         14    1    1    2    0    0  0.89371477555E-02  0.87903016632E-03  0.11158499893E-01  0.14323317490E-01  0.00000000000E+00 0. -1.
     999901    1    3    3    0    0  0.42057066910E-01  0.95084860369E-01 -0.85187893201E-01  0.89020610237E+00  0.88000000000E+00 0. -1.
        -11    1    4    4    0    0 -0.24722893175E-01 -0.43685414944E-01  0.74228534615E-02  0.50744426297E-01  0.51100000000E-03 0. -1.
         11    1    4    4    0    0 -0.26271321491E-01 -0.52278475592E-01  0.66606539846E-01  0.88656153844E-01  0.51100000000E-03 0.  1.
</event>
<event>
 8    1  0.2025822E+004  0.1043930E+01  0.7957747E-01            NaN
         13   -1    0    0    0    0  0.00000000000E+00  0.00000000000E+00  0.74505805969E-08  0.10566000000E+00  0.10566000000E+00 0. -1.
     999900   -1    0    0    0    0 -0.00000000000E+00 -0.00000000000E+00 -0.74505805969E-08  0.93827000000E+00  0.93827000000E+00 0.  1.
     999902    2    1    2    0    0 -0.73500872924E-02  0.54555206017E-02  0.10632789012E-01  0.10298999362E+01  0.10298043678E+01 0.  0.
     999903    2    3    3    0    0  0.87176386702E-01 -0.56981483979E-01  0.81740634263E-01  0.13979322378E+00  0.44877635969E-01 0.  0.
         14    1    1    2    0    0  0.73500872924E-02 -0.54555206017E-02 -0.10632789012E-01  0.14030063807E-01  0.00000000000E+00 0.  1.
     999901    1    3    3    0    0 -0.94526473995E-01  0.62437004581E-01 -0.71107845251E-01  0.89010671241E+00  0.88000000000E+00 0.  1.
        -11    1    4    4    0    0  0.65112006470E-01 -0.28257149712E-01  0.74408622372E-01  0.10283454721E+00  0.51100000000E-03 0.  1.
         11    1    4    4    0    0  0.22064380232E-01 -0.28724334267E-01  0.73320118910E-02  0.36958676566E-01  0.51100000000E-03 0. -1.
</event>
<event>
 8    1  0.2025822E+004  0.1043930E+01  0.7957747E-01            NaN
         13   -1    0    0    0    0  0.00000000000E+00  0.00000000000E+00  0.74505805969E-08  0.10566000000E+00  0.10566000000E+00 0.  1.
     999900   -1    0    0    0    0 -0.00000000000E+00 -0.00000000000E+00 -0.74505805969E-08  0.93827000000E+00  0.93827000000E+00 0. -1.
     999902    2    1    2    0    0  0.54862534345E-02 -0.14616425335E-01 -0.90267399520E-03  0.10282917876E+01  0.10281728681E+01 0.  0.
     999903    2    3    3    0    0 -0.14641846352E-01 -0.88737218201E-02  0.12967843263E+00  0.13841002892E+00  0.45251669739E-01 0.  0.
         14    1    1    2    0    0 -0.54862534345E-02  0.14616425335E-01  0.90267399520E-03  0.15638212387E-01  0.00000000000E+00 0. -1.
     999901    1    3    3    0    0  0.20128099787E-01 -0.57427035148E-02 -0.13058110662E+00  0.88988175869E+00  0.88000000000E+00 0. -1.
        -11    1    4    4    0    0 -0.26871000837E-01  0.17651294540E-02  0.10817056640E+00  0.11147331037E+00  0.51100000000E-03 0.  1.
         11    1    4    4    0    0  0.12229154484E-01 -0.10638851274E-01  0.21507866222E-01  0.26936718550E-01  0.51100000000E-03 0. -1.
</event>
<event>
 8    1  0.2025822E+004  0.1043930E+01  0.7957747E-01            NaN
         13   -1    0    0    0    0  0.00000000000E+00  0.00000000000E+00  0.74505805969E-08  0.10566000000E+00  0.10566000000E+00 0.  1.
     999900   -1    0    0    0    0 -0.00000000000E+00 -0.00000000000E+00 -0.74505805969E-08  0.93827000000E+00  0.93827000000E+00 0. -1.
     999902    2    1    2    0    0 -0.55534750067E-02 -0.59916803294E-02 -0.11422847681E-01  0.10298863977E+01  0.10297906434E+01 0.  0.
     999903    2    3    3    0    0 -0.12413187551E+00  0.46065819529E-01 -0.13400704554E-01  0.14040636287E+00  0.44761429874E-01 0.  0.
         14    1    1    2    0    0  0.55534750067E-02  0.59916803294E-02  0.11422847681E-01  0.14043602350E-01  0.00000000000E+00 0.  1.
     999901    1    3    3    0    0  0.11857840051E+00 -0.52057499859E-01  0.19778568734E-02  0.88948003478E+00  0.88000000000E+00 0.  1.
        -11    1    4    4    0    0 -0.72151091894E-01  0.14566008182E-01  0.11907870610E-01  0.74565455536E-01  0.51100000000E-03 0. -1.
         11    1    4    4    0    0 -0.51980783618E-01  0.31499811348E-01 -0.25308575165E-01  0.65840907332E-01  0.51100000000E-03 0.  1.
</event>
<event>
 8    1  0.2025822E+004  0.1043930E+01  0.7957747E-01            NaN
         13   -1    0    0    0    0  0.00000000000E+00  0.00000000000E+00  0.74505805969E-08  0.10566000000E+00  0.10566000000E+00 0.  1.
     999900   -1    0    0    0    0 -0.00000000000E+00 -0.00000000000E+00 -0.74505805969E-08  0.93827000000E+00  0.93827000000E+00 0. -1.
     999902    2    1    2    0    0 -0.47790261952E-02  0.12573700710E-01  0.34881735548E-02  0.10300337992E+01  0.10299400580E+01 0.  0.
     999903    2    3    3    0    0 -0.38093552113E-03 -0.74559796725E-01  0.10893937677E+00  0.13945446766E+00  0.44949442034E-01 0.  0.
         14    1    1    2    0    0  0.47790261952E-02 -0.12573700710E-01 -0.34881735548E-02  0.13896200764E-01  0.00000000000E+00 0. -1.
     999901    1    3    3    0    0 -0.43980906741E-02  0.87133497435E-01 -0.10545120321E+00  0.89057933158E+00  0.88000000000E+00 0. -1.
        -11    1    4    4    0    0 -0.80300169465E-02 -0.25392647104E-01  0.95377823577E-02  0.28293075344E-01  0.51100000000E-03 0. -1.
         11    1    4    4    0    0  0.76490814254E-02 -0.49167149620E-01  0.99401594411E-01  0.11116139231E+00  0.51100000000E-03 0.  1.
</event>
<event>
 8    1  0.2025822E+004  0.1043930E+01  0.7957747E-01            NaN
         13   -1    0    0    0    0  0.00000000000E+00  0.00000000000E+00  0.74505805969E-08  0.10566000000E+00  0.10566000000E+00 0.  1.
     999900   -1    0    0    0    0 -0.00000000000E+00 -0.00000000000E+00 -0.74505805969E-08  0.93827000000E+00  0.93827000000E+00 0.  1.
     999902    2    1    2    0    0 -0.29889391626E-02  0.93139500788E-02  0.98595596690E-02  0.10300413593E+01  0.10299477208E+01 0.  0.
     999903    2    3    3    0    0  0.60492331441E-01 -0.96505775481E-01  0.66924302129E-01  0.13960097901E+00  0.45131854167E-01 0.  0.
         14    1    1    2    0    0  0.29889391626E-02 -0.93139500788E-02 -0.98595596690E-02  0.13888640691E-01  0.00000000000E+00 0. -1.
     999901    1    3    3    0    0 -0.63481270604E-01  0.10581972556E+00 -0.57064742460E-01  0.89044038030E+00  0.88000000000E+00 0. -1.
        -11    1    4    4    0    0  0.66196766858E-01 -0.75501217172E-01  0.58806396717E-01  0.11636536922E+00  0.51100000000E-03 0. -1.
         11    1    4    4    0    0 -0.57044354172E-02 -0.21004558309E-01  0.81179054126E-02  0.23235609794E-01  0.51100000000E-03 0.  1.
</event>
<event>
 8    1  0.2025822E+004  0.1043930E+01  0.7957747E-01            NaN
         13   -1    0    0    0    0  0.00000000000E+00  0.00000000000E+00  0.74505805969E-08  0.10566000000E+00  0.10566000000E+00 0.  1.
     999900   -1    0    0    0    0 -0.00000000000E+00 -0.00000000000E+00 -0.74505805969E-08  0.93827000000E+00  0.93827000000E+00 0.  1.
     999902    2    1    2    0    0  0.42508816467E-02 -0.11220998741E-01 -0.52408064511E-02  0.10308362282E+01  0.10307530657E+01 0.  0.
     999903    2    3    3    0    0 -0.88135389475E-01  0.93297011153E-01  0.28588982513E-01  0.13920643277E+00  0.45704724441E-01 0.  0.
         14    1    1    2    0    0 -0.42508816467E-02  0.11220998741E-01  0.52408064511E-02  0.13093771794E-01  0.00000000000E+00 0. -1.
     999901    1    3    3    0    0  0.92386271121E-01 -0.10451800989E+00 -0.33829788964E-01  0.89162979543E+00  0.88000000000E+00 0.  1.
        -11    1    4    4    0    0 -0.46317231770E-01  0.54523495381E-01 -0.71570300889E-02  0.71899803255E-01  0.51100000000E-03 0. -1.
         11    1    4    4    0    0 -0.41818157704E-01  0.38773515772E-01  0.35746012601E-01  0.67306629518E-01  0.51100000000E-03 0.  1.
</event>
<event>
 8    1  0.2025822E+004  0.1043930E+01  0.7957747E-01            NaN
         13   -1    0    0    0    0  0.00000000000E+00  0.00000000000E+00  0.74505805969E-08  0.10566000000E+00  0.10566000000E+00 0. -1.
     999900   -1    0    0    0    0 -0.00000000000E+00 -0.00000000000E+00 -0.74505805969E-08  0.93827000000E+00  0.93827000000E+00 0. -1.
     999902    2    1    2    0    0 -0.14043964658E-01  0.30502406555E-02  0.71119523809E-03  0.10295410212E+01  0.10294404653E+01 0.  0.
     999903    2    3    3    0    0 -0.84542599196E-01 -0.58103608965E-01  0.85160301159E-01  0.14058573423E+00  0.44593624229E-01 0.  0.
         14    1    1    2    0    0  0.14043964658E-01 -0.30502406555E-02 -0.71119523809E-03  0.14388978770E-01  0.00000000000E+00 0.  1.
     999901    1    3    3    0    0  0.70498634538E-01  0.61153849621E-01 -0.84449105920E-01  0.88895528700E+00  0.88000000000E+00 0. -1.
        -11    1    4    4    0    0 -0.27631986237E-01 -0.28748072970E-01  0.86363840808E-02  0.40802286870E-01  0.51100000000E-03 0. -1.
         11    1    4    4    0    0 -0.56910612959E-01 -0.29355535995E-01  0.76523917078E-01  0.99783447359E-01  0.51100000000E-03 0.  1.
</event>
<event>
 8    1  0.2025822E+004  0.1043930E+01  0.7957747E-01            NaN
         13   -1    0    0    0    0  0.00000000000E+00  0.00000000000E+00  0.74505805969E-08  0.10566000000E+00  0.10566000000E+00 0. -1.
     999900   -1    0    0    0    0 -0.00000000000E+00 -0.00000000000E+00 -0.74505805969E-08  0.93827000000E+00  0.93827000000E+00 0.  1.
     999902    2    1    2    0    0 -0.11088616994E-01 -0.29018432022E-02  0.59682310603E-02  0.10310072332E+01  0.10309262422E+01 0.  0.
     999903    2    3    3    0    0 -0.42298127466E-01  0.10941764624E+00  0.64747856866E-01  0.14137542974E+00  0.45092951416E-01 0.  0.
         14    1    1    2    0    0  0.11088616994E-01  0.29018432022E-02 -0.59682310603E-02  0.12922766840E-01  0.00000000000E+00 0. -1.
     999901    1    3    3    0    0  0.31209510473E-01 -0.11231948945E+00 -0.58779625806E-01  0.88963180342E+00  0.88000000000E+00 0. -1.
        -11    1    4    4    0    0 -0.24423397014E-02  0.51159006522E-01  0.44732882736E-01  0.68003682918E-01  0.51100000000E-03 0. -1.
         11    1    4    4    0    0 -0.39855787765E-01  0.58258639723E-01  0.20014974131E-01  0.73371746818E-01  0.51100000000E-03 0.  1.
</event>
<event>
 8    1  0.2025822E+004  0.1043930E+01  0.7957747E-01            NaN
         13   -1    0    0    0    0  0.00000000000E+00  0.00000000000E+00  0.74505805969E-08  0.10566000000E+00  0.10566000000E+00 0.  1.
     999900   -1    0    0    0    0 -0.00000000000E+00 -0.00000000000E+00 -0.74505805969E-08  0.93827000000E+00  0.93827000000E+00 0.  1.
     999902    2    1    2    0    0 -0.10800856170E-01  0.66540151146E-02  0.27366835240E-02  0.10309521786E+01  0.10308704917E+01 0.  0.
     999903    2    3    3    0    0 -0.10436787430E+00  0.38311981846E-01 -0.75546174042E-01  0.14197230284E+00  0.45699553869E-01 0.  0.
         14    1    1    2    0    0  0.10800856170E-01 -0.66540151146E-02 -0.27366835240E-02  0.12977821384E-01  0.00000000000E+00 0. -1.
     999901    1    3    3    0    0  0.93567018129E-01 -0.31657966732E-01  0.78282857566E-01  0.88897987577E+00  0.88000000000E+00 0. -1.
        -11    1    4    4    0    0 -0.44899319511E-01  0.15385469222E-01 -0.63378334006E-02  0.47886227759E-01  0.51100000000E-03 0. -1.
         11    1    4    4    0    0 -0.59468554788E-01  0.22926512624E-01 -0.69208340641E-01  0.94086075085E-01  0.51100000000E-03 0.  1.
</event>
<event>
 8    1  0.2025822E+004  0.1043930E+01  0.7957747E-01            NaN
         13   -1    0    0    0    0  0.00000000000E+00  0.00000000000E+00  0.74505805969E-08  0.10566000000E+00  0.10566000000E+00 0. -1.
     999900   -1    0    0    0    0 -0.00000000000E+00 -0.00000000000E+00 -0.74505805969E-08  0.93827000000E+00  0.93827000000E+00 0.  1.
     999902    2    1    2    0    0  0.81021685155E-02  0.70785513446E-03  0.11303349809E-01  0.10300047743E+01  0.10299106385E+01 0.  0.
     999903    2    3    3    0    0  0.45901140886E-01  0.99058807071E-01  0.79941156050E-01  0.14106561976E+00  0.39866761259E-01 0.  0.
         14    1    1    2    0    0 -0.81021685155E-02 -0.70785513446E-03 -0.11303349809E-01  0.13925225688E-01  0.00000000000E+00 0.  1.
     999901    1    3    3    0    0 -0.37798972371E-01 -0.98350951937E-01 -0.68637806241E-01  0.88893915456E+00  0.88000000000E+00 0.  1.
        -11    1    4    4    0    0  0.34298786538E-01  0.54975970296E-01  0.24471068496E-01  0.69266574784E-01  0.51100000000E-03 0. -1.
         11    1    4    4    0    0  0.11602354349E-01  0.44082836775E-01  0.55470087554E-01  0.71799044971E-01  0.51100000000E-03 0.  1.
</event>
<event>
 8    1  0.2025822E+004  0.1043930E+01  0.7957747E-01            NaN
         13   -1    0    0    0    0  0.00000000000E+00  0.00000000000E+00  0.74505805969E-08  0.10566000000E+00  0.10566000000E+00 0. -1.
     999900   -1    0    0    0    0 -0.00000000000E+00 -0.00000000000E+00 -0.74505805969E-08  0.93827000000E+00  0.93827000000E+00 0. -1.
     999902    2    1    2    0    0  0.14158712641E-02 -0.10561470543E-01 -0.76166368508E-02  0.10308318128E+01  0.10307485939E+01 0.  0.
     999903    2    3    3    0    0  0.95382487481E-01 -0.87638482599E-01 -0.36784741498E-01  0.14200035009E+00  0.45085027085E-01 0.  0.
         14    1    1    2    0    0 -0.14158712641E-02  0.10561470543E-01  0.76166368508E-02  0.13098187217E-01  0.00000000000E+00 0. -1.
     999901    1    3    3    0    0 -0.93966616217E-01  0.77077012056E-01  0.29168104647E-01  0.88883146270E+00  0.88000000000E+00 0.  1.
        -11    1    4    4    0    0  0.28279761914E-01 -0.46374622675E-01  0.16568159201E-02  0.54344794803E-01  0.51100000000E-03 0.  1.
         11    1    4    4    0    0  0.67102725566E-01 -0.41263859924E-01 -0.38441557418E-01  0.87655555283E-01  0.51100000000E-03 0. -1.
</event>
<event>
 8    1  0.2025822E+004  0.1043930E+01  0.7957747E-01            NaN
         13   -1    0    0    0    0  0.00000000000E+00  0.00000000000E+00  0.74505805969E-08  0.10566000000E+00  0.10566000000E+00 0.  1.
     999900   -1    0    0    0    0 -0.00000000000E+00 -0.00000000000E+00 -0.74505805969E-08  0.93827000000E+00  0.93827000000E+00 0. -1.
     999902    2    1    2    0    0  0.65162121189E-02  0.11337293588E-01 -0.38619042907E-03  0.10308477835E+01  0.10307647687E+01 0.  0.
     999903    2    3    3    0    0 -0.99139777629E-01 -0.74237882266E-01 -0.50596804427E-01  0.13899162654E+00  0.37665328342E-01 0.  0.
         14    1    1    2    0    0 -0.65162121189E-02 -0.11337293588E-01  0.38619042907E-03  0.13082216530E-01  0.00000000000E+00 0.  1.
     999901    1    3    3    0    0  0.10565598975E+00  0.85575175854E-01  0.50210613998E-01  0.89185615693E+00  0.88000000000E+00 0. -1.
        -11    1    4    4    0    0 -0.72639561593E-01 -0.40319367383E-01 -0.18031809781E-01  0.85015084424E-01  0.51100000000E-03 0.  1.
         11    1    4    4    0    0 -0.26500216036E-01 -0.33918514882E-01 -0.32564994646E-01  0.53976542119E-01  0.51100000000E-03 0. -1.
</event>
<event>
 8    1  0.2025822E+004  0.1043930E+01  0.7957747E-01            NaN
         13   -1    0    0    0    0  0.00000000000E+00  0.00000000000E+00  0.74505805969E-08  0.10566000000E+00  0.10566000000E+00 0. -1.
     999900   -1    0    0    0    0 -0.00000000000E+00 -0.00000000000E+00 -0.74505805969E-08  0.93827000000E+00  0.93827000000E+00 0.  1.
     999902    2    1    2    0    0 -0.11524487799E-01  0.11747787831E-03 -0.49955340208E-02  0.10313688305E+01  0.10312923356E+01 0.  0.
     999903    2    3    3    0    0 -0.80731918493E-02 -0.89048484430E-01 -0.10059541614E+00  0.14170495138E+00  0.44340122806E-01 0.  0.
         14    1    1    2    0    0  0.11524487799E-01 -0.11747787831E-03  0.49955340208E-02  0.12561169541E-01  0.00000000000E+00 0. -1.
     999901    1    3    3    0    0 -0.34512959501E-02  0.89165962308E-01  0.95599882122E-01  0.88966387908E+00  0.88000000000E+00 0. -1.
        -11    1    4    4    0    0 -0.16225039593E-01 -0.16961606154E-01 -0.96892893892E-02  0.25398650417E-01  0.51100000000E-03 0.  1.
         11    1    4    4    0    0  0.81518477437E-02 -0.72086878276E-01 -0.90906126754E-01  0.11630630096E+00  0.51100000000E-03 0. -1.
</event>
<event>
 8    1  0.2025822E+004  0.1043930E+01  0.7957747E-01            NaN
         13   -1    0    0    0    0  0.00000000000E+00  0.00000000000E+00  0.74505805969E-08  0.10566000000E+00  0.10566000000E+00 0.  1.
     999900   -1    0    0    0    0 -0.00000000000E+00 -0.00000000000E+00 -0.74505805969E-08  0.93827000000E+00  0.93827000000E+00 0. -1.
     999902    2    1    2    0    0 -0.64122052012E-03  0.10554956934E-01  0.64230260995E-02  0.10315577106E+01  0.10314835126E+01 0.  0.
     999903    2    3    3    0    0  0.18521511089E-01 -0.33787601855E-01  0.12876170088E+00  0.14178233216E+00  0.45144276355E-01 0.  0.
         14    1    1    2    0    0  0.64122052012E-03 -0.10554956934E-01 -0.64230260995E-02  0.12372289356E-01  0.00000000000E+00 0. -1.
     999901    1    3    3    0    0 -0.19162731609E-01  0.44342558789E-01 -0.12233867478E+00  0.88977537848E+00  0.88000000000E+00 0. -1.
        -11    1    4    4    0    0  0.30646982380E-01 -0.35267545395E-01  0.94865282803E-01  0.10574838197E+00  0.51100000000E-03 0. -1.
         11    1    4    4    0    0 -0.12125471291E-01  0.14799435397E-02  0.33896418079E-01  0.36033950193E-01  0.51100000000E-03 0.  1.
</event>
<event>
 8    1  0.2025822E+004  0.1043930E+01  0.7957747E-01            NaN
         13   -1    0    0    0    0  0.00000000000E+00  0.00000000000E+00  0.74505805969E-08  0.10566000000E+00  0.10566000000E+00 0. -1.
     999900   -1    0    0    0    0 -0.00000000000E+00 -0.00000000000E+00 -0.74505805969E-08  0.93827000000E+00  0.93827000000E+00 0.  1.
     999902    2    1    2    0    0  0.12736663220E-01  0.31444235572E-02  0.25668406775E-02  0.10305621782E+01  0.10304754749E+01 0.  0.
     999903    2    3    3    0    0  0.75000231085E-01  0.77490551117E-01 -0.79596177542E-01  0.14143065801E+00  0.45136009703E-01 0.  0.
         14    1    1    2    0    0 -0.12736663220E-01 -0.31444235572E-02 -0.25668406775E-02  0.13367821833E-01  0.00000000000E+00 0. -1.
     999901    1    3    3    0    0 -0.62263567865E-01 -0.74346127559E-01  0.82163018220E-01  0.88913152015E+00  0.88000000000E+00 0. -1.
        -11    1    4    4    0    0  0.40382925814E-01  0.57574025644E-01 -0.26871159137E-01  0.75285253806E-01  0.51100000000E-03 0.  1.
         11    1    4    4    0    0  0.34617305271E-01  0.19916525472E-01 -0.52725018405E-01  0.66145404209E-01  0.51100000000E-03 0. -1.
</event>
<event>
 8    1  0.2025822E+004  0.1043930E+01  0.7957747E-01            NaN
         13   -1    0    0    0    0  0.00000000000E+00  0.00000000000E+00  0.74505805969E-08  0.10566000000E+00  0.10566000000E+00 0. -1.
     999900   -1    0    0    0    0 -0.00000000000E+00 -0.00000000000E+00 -0.74505805969E-08  0.93827000000E+00  0.93827000000E+00 0. -1.
     999902    2    1    2    0    0 -0.72488933235E-02 -0.17738206180E-02 -0.11079672600E-01  0.10305714058E+01  0.10304848230E+01 0.  0.
     999903    2    3    3    0    0  0.11032853185E+00  0.70223723770E-01  0.16633137812E-01  0.13940582233E+00  0.45316285213E-01 0.  0.
         14    1    1    2    0    0  0.72488933235E-02  0.17738206180E-02  0.11079672600E-01  0.13358594197E-01  0.00000000000E+00 0. -1.
     999901    1    3    3    0    0 -0.11757742517E+00 -0.71997544388E-01 -0.27712810412E-01  0.89116558347E+00  0.88000000000E+00 0. -1.
        -11    1    4    4    0    0  0.68369967178E-01  0.65736723133E-01  0.20468934861E-01  0.97030962046E-01  0.51100000000E-03 0. -1.
         11    1    4    4    0    0  0.41958564672E-01  0.44870006370E-02 -0.38357970482E-02  0.42374860283E-01  0.51100000000E-03 0.  1.
</event>
<event>
 8    1  0.2025822E+004  0.1043930E+01  0.7957747E-01            NaN
         13   -1    0    0    0    0  0.00000000000E+00  0.00000000000E+00  0.74505805969E-08  0.10566000000E+00  0.10566000000E+00 0. -1.
     999900   -1    0    0    0    0 -0.00000000000E+00 -0.00000000000E+00 -0.74505805969E-08  0.93827000000E+00  0.93827000000E+00 0.  1.
     999902    2    1    2    0    0 -0.71602090789E-02 -0.49912072270E-02  0.10561050731E-01  0.10302290316E+01  0.10301379233E+01 0.  0.
     999903    2    3    3    0    0 -0.89453891888E-01 -0.15598293974E-02  0.10017006819E+00  0.14185197164E+00  0.45645453840E-01 0.  0.
         14    1    1    2    0    0  0.71602090789E-02  0.49912072270E-02 -0.10561050731E-01  0.13700968439E-01  0.00000000000E+00 0.  1.
     999901    1    3    3    0    0  0.82293682809E-01 -0.34313778295E-02 -0.89609017455E-01  0.88837705992E+00  0.88000000000E+00 0.  1.
        -11    1    4    4    0    0 -0.77973817364E-01 -0.16047123822E-01  0.91925303337E-01  0.12160571077E+00  0.51100000000E-03 0.  1.
         11    1    4    4    0    0 -0.11480074524E-01  0.14487294424E-01  0.82447648486E-02  0.20246260870E-01  0.51100000000E-03 0. -1.
</event>
<event>
 8    1  0.2025822E+004  0.1043930E+01  0.7957747E-01            NaN
         13   -1    0    0    0    0  0.00000000000E+00  0.00000000000E+00  0.74505805969E-08  0.10566000000E+00  0.10566000000E+00 0. -1.
     999900   -1    0    0    0    0 -0.00000000000E+00 -0.00000000000E+00 -0.74505805969E-08  0.93827000000E+00  0.93827000000E+00 0.  1.
     999902    2    1    2    0    0 -0.76319499048E-02 -0.38973398077E-02  0.10686225618E-01  0.10302321412E+01  0.10301410746E+01 0.  0.
     999903    2    3    3    0    0 -0.11597062450E+00  0.18737289557E-01  0.64926666250E-01  0.14164246075E+00  0.45242048238E-01 0.  0.
         14    1    1    2    0    0  0.76319499048E-02  0.38973398077E-02 -0.10686225618E-01  0.13697858770E-01  0.00000000000E+00 0.  1.
     999901    1    3    3    0    0  0.10833867460E+00 -0.22634629364E-01 -0.54240440632E-01  0.88858968048E+00  0.88000000000E+00 0. -1.
        -11    1    4    4    0    0 -0.71472508191E-01  0.33439787804E-01  0.37878660439E-01  0.87530525379E-01  0.51100000000E-03 0. -1.
         11    1    4    4    0    0 -0.44498116311E-01 -0.14702498247E-01  0.27048005811E-01  0.54111935369E-01  0.51100000000E-03 0.  1.
</event>
<event>
 8    1  0.2025822E+004  0.1043930E+01  0.7957747E-01            NaN
         13   -1    0    0    0    0  0.00000000000E+00  0.00000000000E+00  0.74505805969E-08  0.10566000000E+00  0.10566000000E+00 0. -1.
     999900   -1    0    0    0    0 -0.00000000000E+00 -0.00000000000E+00 -0.74505805969E-08  0.93827000000E+00  0.93827000000E+00 0.  1.
     999902    2    1    2    0    0 -0.68042731805E-02 -0.47136006011E-02 -0.16627715786E-01  0.10253559025E+01  0.10251876559E+01 0.  0.
     999903    2    3    3    0    0 -0.67983513695E-01 -0.10640570290E+00 -0.29179383143E-01  0.13730087750E+00  0.45344931559E-01 0.  0.
         14    1    1    2    0    0  0.68042731805E-02  0.47136006011E-02  0.16627715786E-01  0.18574097459E-01  0.00000000000E+00 0. -1.
     999901    1    3    3    0    0  0.61179240515E-01  0.10169210230E+00  0.12551667357E-01  0.88805502504E+00  0.88000000000E+00 0. -1.
        -11    1    4    4    0    0 -0.23487006741E-01 -0.68098975535E-02 -0.31493189580E-03  0.24461694410E-01  0.51100000000E-03 0. -1.
         11    1    4    4    0    0 -0.44496506954E-01 -0.99595805350E-01 -0.28864451248E-01  0.11283918309E+00  0.51100000000E-03 0.  1.
</event>
<event>
 8    1  0.2025822E+004  0.1043930E+01  0.7957747E-01            NaN
         13   -1    0    0    0    0  0.00000000000E+00  0.00000000000E+00  0.74505805969E-08  0.10566000000E+00  0.10566000000E+00 0.  1.
     999900   -1    0    0    0    0 -0.00000000000E+00 -0.00000000000E+00 -0.74505805969E-08  0.93827000000E+00  0.93827000000E+00 0.  1.
     999902    2    1    2    0    0  0.66754870839E-02 -0.88932531145E-02  0.29328772131E-03  0.10328062373E+01  0.10327463317E+01 0.  0.
     999903    2    3    3    0    0 -0.33017562500E-01  0.80003826011E-01 -0.10143224853E+00  0.14161247971E+00  0.47695091541E-01 0.  0.
         14    1    1    2    0    0 -0.66754870839E-02  0.88932531145E-02 -0.29328772131E-03  0.11123762693E-01  0.00000000000E+00 0. -1.
     999901    1    3    3    0    0  0.39693049584E-01 -0.88897079126E-01  0.10172553625E+00  0.89119375760E+00  0.88000000000E+00 0. -1.
        -11    1    4    4    0    0 -0.15599739349E-01 -0.34593520963E-03 -0.94852422107E-02  0.18267525276E-01  0.51100000000E-03 0. -1.
         11    1    4    4    0    0 -0.17417823151E-01  0.80349761221E-01 -0.91947006317E-01  0.12334495443E+00  0.51100000000E-03 0.  1.
</event>
<event>
 8    1  0.2025822E+004  0.1043930E+01  0.7957747E-01            NaN
         13   -1    0    0    0    0  0.00000000000E+00  0.00000000000E+00  0.74505805969E-08  0.10566000000E+00  0.10566000000E+00 0. -1.
     999900   -1    0    0    0    0 -0.00000000000E+00 -0.00000000000E+00 -0.74505805969E-08  0.93827000000E+00  0.93827000000E+00 0.  1.
     999902    2    1    2    0    0 -0.46009877115E-02  0.14197585857E-01 -0.76624454681E-03  0.10289858485E+01  0.10288773245E+01 0.  0.
     999903    2    3    3    0    0  0.10846307727E+00 -0.39173145156E-01 -0.61218738288E-01  0.13809504619E+00  0.44985924824E-01 0.  0.
         14    1    1    2    0    0  0.46009877115E-02 -0.14197585857E-01  0.76624454681E-03  0.14944151458E-01  0.00000000000E+00 0.  1.
     999901    1    3    3    0    0 -0.11306406498E+00  0.53370731012E-01  0.60452493741E-01  0.89089080235E+00  0.88000000000E+00 0. -1.
        -11    1    4    4    0    0  0.45772427109E-01 -0.27553311012E-01 -0.50350729192E-01  0.73414964975E-01  0.51100000000E-03 0.  1.
         11    1    4    4    0    0  0.62690650161E-01 -0.11619834144E-01 -0.10868009095E-01  0.64680081214E-01  0.51100000000E-03 0. -1.
</event>
<event>
 8    1  0.2025822E+004  0.1043930E+01  0.7957747E-01            NaN
         13   -1    0    0    0    0  0.00000000000E+00  0.00000000000E+00  0.74505805969E-08  0.10566000000E+00  0.10566000000E+00 0. -1.
     999900   -1    0    0    0    0 -0.00000000000E+00 -0.00000000000E+00 -0.74505805969E-08  0.93827000000E+00  0.93827000000E+00 0.  1.
     999902    2    1    2    0    0  0.21486550724E-02 -0.13498167780E-01 -0.25341450487E-02  0.10300289517E+01  0.10299351447E+01 0.  0.
     999903    2    3    3    0    0  0.19492342967E-01  0.10624114102E+00  0.74148989805E-01  0.13844686983E+00  0.44747420004E-01 0.  0.
         14    1    1    2    0    0 -0.21486550724E-02  0.13498167780E-01  0.25341450487E-02  0.13901048276E-01  0.00000000000E+00 0. -1.
     999901    1    3    3    0    0 -0.17343687895E-01 -0.11973930880E+00 -0.76683134853E-01  0.89158208189E+00  0.88000000000E+00 0.  1.
        -11    1    4    4    0    0  0.98537187851E-02  0.66910108964E-02  0.23467197902E-01  0.26321776139E-01  0.51100000000E-03 0.  1.
         11    1    4    4    0    0  0.96386241821E-02  0.99550130125E-01  0.50681791902E-01  0.11212509369E+00  0.51100000000E-03 0. -1.
</event>
<event>
 8    1  0.2025822E+004  0.1043930E+01  0.7957747E-01            NaN
         13   -1    0    0    0    0  0.00000000000E+00  0.00000000000E+00  0.74505805969E-08  0.10566000000E+00  0.10566000000E+00 0. -1.
     999900   -1    0    0    0    0 -0.00000000000E+00 -0.00000000000E+00 -0.74505805969E-08  0.93827000000E+00  0.93827000000E+00 0.  1.
     999902    2    1    2    0    0 -0.58950664558E-02  0.22485654403E-02  0.11789712895E-01  0.10305581944E+01  0.10304714391E+01 0.  0.
     999903    2    3    3    0    0  0.34389624995E-01 -0.81493772408E-01  0.10047834102E+00  0.14123187168E+00  0.45018477497E-01 0.  0.
         14    1    1    2    0    0  0.58950664558E-02 -0.22485654403E-02 -0.11789712895E-01  0.13371805607E-01  0.00000000000E+00 0.  1.
     999901    1    3    3    0    0 -0.40284691451E-01  0.83742337849E-01 -0.88688628120E-01  0.88932632271E+00  0.88000000000E+00 0.  1.
        -11    1    4    4    0    0  0.35990067665E-02 -0.36542373997E-01  0.69365921097E-01  0.78486878379E-01  0.51100000000E-03 0.  1.
         11    1    4    4    0    0  0.30790618228E-01 -0.44951398412E-01  0.31112419918E-01  0.62744993300E-01  0.51100000000E-03 0. -1.
</event>
<event>
 8    1  0.2025822E+004  0.1043930E+01  0.7957747E-01            NaN
         13   -1    0    0    0    0  0.00000000000E+00  0.00000000000E+00  0.74505805969E-08  0.10566000000E+00  0.10566000000E+00 0. -1.
     999900   -1    0    0    0    0 -0.00000000000E+00 -0.00000000000E+00 -0.74505805969E-08  0.93827000000E+00  0.93827000000E+00 0. -1.
     999902    2    1    2    0    0 -0.75192793060E-02 -0.63800855054E-02  0.92188459497E-02  0.10304306603E+01  0.10303422312E+01 0.  0.
     999903    2    3    3    0    0  0.39816312369E-01 -0.85093201132E-01  0.95640833161E-01  0.14143956207E+00  0.45075371792E-01 0.  0.
         14    1    1    2    0    0  0.75192793060E-02  0.63800855054E-02 -0.92188459497E-02  0.13499339724E-01  0.00000000000E+00 0.  1.
     999901    1    3    3    0    0 -0.47335591675E-01  0.78713115627E-01 -0.86421987211E-01  0.88899109820E+00  0.88000000000E+00 0. -1.
        -11    1    4    4    0    0  0.30969589113E-01 -0.72108591340E-01  0.49723061125E-01  0.92905372954E-01  0.51100000000E-03 0. -1.
         11    1    4    4    0    0  0.88467232554E-02 -0.12984609792E-01  0.45917772035E-01  0.48534189119E-01  0.51100000000E-03 0.  1.
</event>
<event>
 8    1  0.2025822E+004  0.1043930E+01  0.7957747E-01            NaN
         13   -1    0    0    0    0  0.00000000000E+00  0.00000000000E+00  0.74505805969E-08  0.10566000000E+00  0.10566000000E+00 0.  1.
     999900   -1    0    0    0    0 -0.00000000000E+00 -0.00000000000E+00 -0.74505805969E-08  0.93827000000E+00  0.93827000000E+00 0. -1.
     999902    2    1    2    0    0 -0.80613843290E-02  0.98167286253E-02  0.56016901818E-02  0.10300471685E+01  0.10299536088E+01 0.  0.
     999903    2    3    3    0    0  0.66366987489E-01 -0.30200215110E-01 -0.10923141508E+00  0.13857222190E+00  0.44205527036E-01 0.  0.
         14    1    1    2    0    0  0.80613843290E-02 -0.98167286253E-02 -0.56016901818E-02  0.13882831523E-01  0.00000000000E+00 0. -1.
     999901    1    3    3    0    0 -0.74428371818E-01  0.40016943735E-01  0.11483310526E+00  0.89147494658E+00  0.88000000000E+00 0.  1.
        -11    1    4    4    0    0  0.66957907027E-01 -0.18860053602E-01 -0.74053458302E-01  0.10160334021E+00  0.51100000000E-03 0.  1.
         11    1    4    4    0    0 -0.59091953814E-03 -0.11340161508E-01 -0.35177956775E-01  0.36968881682E-01  0.51100000000E-03 0. -1.
</event>
<event>
 8    1  0.2025822E+004  0.1043930E+01  0.7957747E-01            NaN
         13   -1    0    0    0    0  0.00000000000E+00  0.00000000000E+00  0.74505805969E-08  0.10566000000E+00  0.10566000000E+00 0. -1.
     999900   -1    0    0    0    0 -0.00000000000E+00 -0.00000000000E+00 -0.74505805969E-08  0.93827000000E+00  0.93827000000E+00 0. -1.
     999902    2    1    2    0    0  0.77970182197E-02  0.10191570366E-01 -0.40988321076E-02  0.10304592159E+01  0.10303711630E+01 0.  0.
     999903    2    3    3    0    0 -0.69619489047E-01  0.10900716760E+00  0.33008771928E-01  0.14077679383E+00  0.44711193386E-01 0.  0.
         14    1    1    2    0    0 -0.77970182197E-02 -0.10191570366E-01  0.40988321076E-02  0.13470784100E-01  0.00000000000E+00 0. -1.
     999901    1    3    3    0    0  0.77416507267E-01 -0.98815597237E-01 -0.37107604036E-01  0.88968242207E+00  0.88000000000E+00 0. -1.
        -11    1    4    4    0    0 -0.29609689888E-01  0.17536231470E-01  0.20748072828E-01  0.40187022738E-01  0.51100000000E-03 0.  1.
         11    1    4    4    0    0 -0.40009799159E-01  0.91470936133E-01  0.12260699100E-01  0.10058977110E+00  0.51100000000E-03 0. -1.
</event>
<event>
 8    1  0.2025822E+004  0.1043930E+01  0.7957747E-01            NaN
         13   -1    0    0    0    0  0.00000000000E+00  0.00000000000E+00  0.74505805969E-08  0.10566000000E+00  0.10566000000E+00 0.  1.
     999900   -1    0    0    0    0 -0.00000000000E+00 -0.00000000000E+00 -0.74505805969E-08  0.93827000000E+00  0.93827000000E+00 0.  1.
     999902    2    1    2    0    0 -0.39449576103E-03 -0.79183568119E-02 -0.11073273596E-01  0.10303111385E+01  0.10302211261E+01 0.  0.
     999903    2    3    3    0    0 -0.33462785542E-01 -0.10439840651E+00  0.74724457027E-01  0.14027565470E+00  0.45549198932E-01 0.  0.
         14    1    1    2    0    0  0.39449576103E-03  0.79183568119E-02  0.11073273596E-01  0.13618861540E-01  0.00000000000E+00 0.  1.
     999901    1    3    3    0    0  0.33068289781E-01  0.96480049703E-01 -0.85797730623E-01  0.89003548376E+00  0.88000000000E+00 0.  1.
        -11    1    4    4    0    0 -0.43047300951E-01 -0.69491028429E-01  0.44248585116E-01  0.92953061042E-01  0.51100000000E-03 0. -1.
         11    1    4    4    0    0  0.95845154086E-02 -0.34907378085E-01  0.30475871911E-01  0.47322593654E-01  0.51100000000E-03 0.  1.
</event>
<event>
 8    1  0.2025822E+004  0.1043930E+01  0.7957747E-01            NaN
         13   -1    0    0    0    0  0.00000000000E+00  0.00000000000E+00  0.74505805969E-08  0.10566000000E+00  0.10566000000E+00 0. -1.
     999900   -1    0    0    0    0 -0.00000000000E+00 -0.00000000000E+00 -0.74505805969E-08  0.93827000000E+00  0.93827000000E+00 0. -1.
     999902    2    1    2    0    0 -0.11569327318E-02 -0.13064431857E-01 -0.61939428671E-02  0.10294254214E+01  0.10293232317E+01 0.  0.
     999903    2    3    3    0    0 -0.11628977791E+00  0.55794935348E-02 -0.63956685920E-01  0.13985265735E+00  0.43747741638E-01 0.  0.
         14    1    1    2    0    0  0.11569327318E-02  0.13064431857E-01  0.61939428671E-02  0.14504578634E-01  0.00000000000E+00 0. -1.
     999901    1    3    3    0    0  0.11513284518E+00 -0.18643925392E-01  0.57762743053E-01  0.88957276402E+00  0.88000000000E+00 0.  1.
        -11    1    4    4    0    0 -0.43086785139E-01 -0.18806656047E-01 -0.28054757077E-01  0.54749355074E-01  0.51100000000E-03 0. -1.
         11    1    4    4    0    0 -0.73202992775E-01  0.24386149582E-01 -0.35901928843E-01  0.85103302277E-01  0.51100000000E-03 0.  1.
</event>
<event>
 8    1  0.2025822E+004  0.1043930E+01  0.7957747E-01            NaN
         13   -1    0    0    0    0  0.00000000000E+00  0.00000000000E+00  0.74505805969E-08  0.10566000000E+00  0.10566000000E+00 0.  1.
     999900   -1    0    0    0    0 -0.00000000000E+00 -0.00000000000E+00 -0.74505805969E-08  0.93827000000E+00  0.93827000000E+00 0. -1.
     999902    2    1    2    0    0 -0.91589165597E-02 -0.10957181505E-01  0.10876528088E-03  0.10296486342E+01  0.10295495872E+01 0.  0.
     999903    2    3    3    0    0  0.10693151143E+00  0.64265261599E-01  0.37621655420E-01  0.13805308669E+00  0.45594887897E-01 0.  0.
         14    1    1    2    0    0  0.91589165597E-02  0.10957181505E-01 -0.10876528088E-03  0.14281365795E-01  0.00000000000E+00 0. -1.
     999901    1    3    3    0    0 -0.11609042799E+00 -0.75222443105E-01 -0.37512890140E-01  0.89159554751E+00  0.88000000000E+00 0.  1.
        -11    1    4    4    0    0  0.44516690741E-01  0.19211473076E-01 -0.71331626521E-02  0.49009790682E-01  0.51100000000E-03 0.  1.
         11    1    4    4    0    0  0.62414820694E-01  0.45053788523E-01  0.44754818073E-01  0.89043296010E-01  0.51100000000E-03 0. -1.
</event>
<event>
 8    1  0.2025822E+004  0.1043930E+01  0.7957747E-01            NaN
         13   -1    0    0    0    0  0.00000000000E+00  0.00000000000E+00  0.74505805969E-08  0.10566000000E+00  0.10566000000E+00 0.  1.
     999900   -1    0    0    0    0 -0.00000000000E+00 -0.00000000000E+00 -0.74505805969E-08  0.93827000000E+00  0.93827000000E+00 0.  1.
     999902    2    1    2    0    0  0.43883628680E-03  0.11576788098E-01 -0.24305840334E-02  0.10320926718E+01  0.10320247869E+01 0.  0.
     999903    2    3    3    0    0 -0.11144405529E+00 -0.57650580510E-01 -0.46767848247E-01  0.14120771684E+00  0.44822101375E-01 0.  0.
         14    1    1    2    0    0 -0.43883628680E-03 -0.11576788098E-01  0.24305840334E-02  0.11837328191E-01  0.00000000000E+00 0.  1.
     999901    1    3    3    0    0  0.11188289158E+00  0.69227368608E-01  0.44337264214E-01  0.89088495497E+00  0.88000000000E+00 0. -1.
        -11    1    4    4    0    0 -0.70480952527E-01 -0.59096483427E-01 -0.28188410604E-01  0.96201905573E-01  0.51100000000E-03 0. -1.
         11    1    4    4    0    0 -0.40963102768E-01  0.14459029169E-02 -0.18579437643E-01  0.45005811266E-01  0.51100000000E-03 0.  1.
</event>
<event>
 8    1  0.2025822E+004  0.1043930E+01  0.7957747E-01            NaN
         13   -1    0    0    0    0  0.00000000000E+00  0.00000000000E+00  0.74505805969E-08  0.10566000000E+00  0.10566000000E+00 0. -1.
     999900   -1    0    0    0    0 -0.00000000000E+00 -0.00000000000E+00 -0.74505805969E-08  0.93827000000E+00  0.93827000000E+00 0.  1.
     999902    2    1    2    0    0 -0.33354776349E-02  0.12343184757E-01  0.36528859270E-02  0.10306325116E+01  0.10305467242E+01 0.  0.
     999903    2    3    3    0    0 -0.93536236742E-01 -0.78239910756E-02  0.95229552485E-01  0.14106566324E+00  0.44951209753E-01 0.  0.
         14    1    1    2    0    0  0.33354776349E-02 -0.12343184757E-01 -0.36528859270E-02  0.13297488356E-01  0.00000000000E+00 0. -1.
     999901    1    3    3    0    0  0.90200759107E-01  0.20167175832E-01 -0.91576666558E-01  0.88956684841E+00  0.88000000000E+00 0.  1.
        -11    1    4    4    0    0 -0.39799848152E-01 -0.16157923043E-01  0.17920508904E-01  0.46545807012E-01  0.51100000000E-03 0.  1.
         11    1    4    4    0    0 -0.53736388590E-01  0.83339319678E-02  0.77309043581E-01  0.94519856227E-01  0.51100000000E-03 0. -1.
</event>
<event>
 8    1  0.2025822E+004  0.1043930E+01  0.7957747E-01            NaN
         13   -1    0    0    0    0  0.00000000000E+00  0.00000000000E+00  0.74505805969E-08  0.10566000000E+00  0.10566000000E+00 0. -1.
     999900   -1    0    0    0    0 -0.00000000000E+00 -0.00000000000E+00 -0.74505805969E-08  0.93827000000E+00  0.93827000000E+00 0.  1.
     999902    2    1    2    0    0  0.56828918976E-03  0.12055776167E-01 -0.93663528548E-02  0.10286527863E+01  0.10285393340E+01 0.  0.
     999903    2    3    3    0    0 -0.59478828010E-01 -0.30920078631E-01 -0.11374143603E+00  0.13941337067E+00  0.44779363641E-01 0.  0.
         14    1    1    2    0    0 -0.56828918976E-03 -0.12055776167E-01  0.93663528548E-02  0.15277213666E-01  0.00000000000E+00 0. -1.
     999901    1    3    3    0    0  0.60047117199E-01  0.42975854798E-01  0.10437508317E+00  0.88923941566E+00  0.88000000000E+00 0. -1.
        -11    1    4    4    0    0 -0.11876405837E-01 -0.29031923762E-01 -0.32076429740E-01  0.44867138072E-01  0.51100000000E-03 0. -1.
         11    1    4    4    0    0 -0.47602422173E-01 -0.18881548690E-02 -0.81665006290E-01  0.94546232600E-01  0.51100000000E-03 0.  1.
</event>
<event>
 8    1  0.2025822E+004  0.1043930E+01  0.7957747E-01            NaN
         13   -1    0    0    0    0  0.00000000000E+00  0.00000000000E+00  0.74505805969E-08  0.10566000000E+00  0.10566000000E+00 0.  1.
     999900   -1    0    0    0    0 -0.00000000000E+00 -0.00000000000E+00 -0.74505805969E-08  0.93827000000E+00  0.93827000000E+00 0. -1.
     999902    2    1    2    0    0 -0.95198382676E-02  0.73021710757E-02  0.70495661557E-02  0.10300143467E+01  0.10299203411E+01 0.  0.
     999903    2    3    3    0    0 -0.10689133360E+00  0.80065073029E-01  0.15200725691E-01  0.14162136532E+00  0.44602420759E-01 0.  0.
         14    1    1    2    0    0  0.95198382676E-02 -0.73021710757E-02 -0.70495661557E-02  0.13915653274E-01  0.00000000000E+00 0. -1.
     999901    1    3    3    0    0  0.97371495328E-01 -0.72762901953E-01 -0.81511595355E-02  0.88839298140E+00  0.88000000000E+00 0. -1.
        -11    1    4    4    0    0 -0.84944766871E-01  0.64279575506E-01 -0.68289355057E-02  0.10674442715E+00  0.51100000000E-03 0.  1.
         11    1    4    4    0    0 -0.21946566725E-01  0.15785497523E-01  0.22029661197E-01  0.34876938176E-01  0.51100000000E-03 0. -1.
</event>
<event>
 8    1  0.2025822E+004  0.1043930E+01  0.7957747E-01            NaN
         13   -1    0    0    0    0  0.00000000000E+00  0.00000000000E+00  0.74505805969E-08  0.10566000000E+00  0.10566000000E+00 0.  1.
     999900   -1    0    0    0    0 -0.00000000000E+00 -0.00000000000E+00 -0.74505805969E-08  0.93827000000E+00  0.93827000000E+00 0.  1.
     999902    2    1    2    0    0  0.87512529112E-02 -0.29969106444E-03 -0.10476124985E-01  0.10302763032E+01  0.10301858267E+01 0.  0.
     999903    2    3    3    0    0 -0.55284953576E-01 -0.84442014361E-02  0.11732993959E+00  0.13870389505E+00  0.48422362051E-01 0.  0.
         14    1    1    2    0    0 -0.87512529112E-02  0.29969106444E-03  0.10476124985E-01  0.13653696824E-01  0.00000000000E+00 0.  1.
     999901    1    3    3    0    0  0.64036206487E-01  0.81445103717E-02 -0.12780606458E+00  0.89157240813E+00  0.88000000000E+00 0.  1.
        -11    1    4    4    0    0 -0.32663353622E-01  0.12597081879E-01  0.30130534910E-01  0.46191897522E-01  0.51100000000E-03 0.  1.
         11    1    4    4    0    0 -0.22621599954E-01 -0.21041283316E-01  0.87199404685E-01  0.92511997527E-01  0.51100000000E-03 0. -1.
</event>
<event>
 8    1  0.2025822E+004  0.1043930E+01  0.7957747E-01            NaN
         13   -1    0    0    0    0  0.00000000000E+00  0.00000000000E+00  0.74505805969E-08  0.10566000000E+00  0.10566000000E+00 0. -1.
     999900   -1    0    0    0    0 -0.00000000000E+00 -0.00000000000E+00 -0.74505805969E-08  0.93827000000E+00  0.93827000000E+00 0. -1.
     999902    2    1    2    0    0 -0.17520291450E-01 -0.98840125854E-02  0.17933380134E-02  0.10237341990E+01  0.10235349724E+01 0.  0.
     999903    2    3    3    0    0 -0.10295675389E+00 -0.11280625588E-01  0.69085320419E-01  0.13703833764E+00  0.57265860684E-01 0.  0.
         14    1    1    2    0    0  0.17520291450E-01  0.98840125854E-02 -0.17933380134E-02  0.20195801012E-01  0.00000000000E+00 0. -1.
     999901    1    3    3    0    0  0.85436462439E-01  0.13966130025E-02 -0.67291982406E-01  0.88669586135E+00  0.88000000000E+00 0. -1.
        -11    1    4    4    0    0 -0.81236844533E-01 -0.17379784225E-01  0.23762111543E-01  0.86408222267E-01  0.51100000000E-03 0.  1.
         11    1    4    4    0    0 -0.21719909355E-01  0.60991586369E-02  0.45323208876E-01  0.50630115369E-01  0.51100000000E-03 0. -1.
</event>
<event>
 8    1  0.2025822E+004  0.1043930E+01  0.7957747E-01            NaN
         13   -1    0    0    0    0  0.00000000000E+00  0.00000000000E+00  0.74505805969E-08  0.10566000000E+00  0.10566000000E+00 0.  1.
     999900   -1    0    0    0    0 -0.00000000000E+00 -0.00000000000E+00 -0.74505805969E-08  0.93827000000E+00  0.93827000000E+00 0.  1.
     999902    2    1    2    0    0  0.10821307361E-01  0.19263317975E-02  0.90808987040E-02  0.10296725750E+01  0.10295738621E+01 0.  0.
     999903    2    3    3    0    0 -0.67562324725E-01  0.76451873663E-01 -0.80388565123E-01  0.13854809706E+00  0.48204741347E-01 0.  0.
         14    1    1    2    0    0 -0.10821307361E-01 -0.19263317975E-02 -0.90808987040E-02  0.14257425029E-01  0.00000000000E+00 0.  1.
     999901    1    3    3    0    0  0.78383632086E-01 -0.74525541866E-01  0.89469463827E-01  0.89112447791E+00  0.88000000000E+00 0. -1.
        -11    1    4    4    0    0 -0.30175089965E-01  0.52687382659E-02 -0.11688641563E-01  0.32789954557E-01  0.51100000000E-03 0. -1.
         11    1    4    4    0    0 -0.37387234760E-01  0.71183135397E-01 -0.68699923561E-01  0.10575814251E+00  0.51100000000E-03 0.  1.
</event>
<event>
 7    1  0.2025822E+004  0.1043930E+01  0.7957747E-01            NaN
         13   -1    0    0    0    0  0.00000000000E+00  0.00000000000E+00  0.74505805969E-08  0.10566000000E+00  0.10566000000E+00 0. -1.
     999900   -1    0    0    0    0 -0.00000000000E+00 -0.00000000000E+00 -0.74505805969E-08  0.93827000000E+00  0.93827000000E+00 0. -1.
     999903    2    1    2    0    0 -0.86101581713E-01 -0.17675492789E-01 -0.49317505651E-02  0.98795080562E-01  0.44835704085E-01 0.  0.
         14    1    1    2    0    0 -0.33904754617E-01 -0.41162637943E-01  0.13466441878E-01  0.55002183637E-01  0.00000000000E+00 0. -1.
     999901    1    1    2    0    0  0.12000633633E+00  0.58838130732E-01 -0.85346913129E-02  0.89013273580E+00  0.88000000000E+00 0. -1.
        -11    1    3    3    0    0 -0.33049981729E-01 -0.29511157329E-01 -0.25728050734E-02  0.44385697541E-01  0.51100000000E-03 0.  1.
         11    1    3    3    0    0 -0.53051599984E-01  0.11835664540E-01 -0.23589454917E-02  0.54409383022E-01  0.51100000000E-03 0. -1.
</event>
<event>
 7    1  0.2025822E+004  0.1043930E+01  0.7957747E-01            NaN
         13   -1    0    0    0    0  0.00000000000E+00  0.00000000000E+00  0.74505805969E-08  0.10566000000E+00  0.10566000000E+00 0.  1.
     999900   -1    0    0    0    0 -0.00000000000E+00 -0.00000000000E+00 -0.74505805969E-08  0.93827000000E+00  0.93827000000E+00 0. -1.
     999903    2    1    2    0    0 -0.90437139667E-01 -0.66623943279E-01  0.24253308283E-01  0.12373536016E+00  0.45875814359E-01 0.  0.
         14    1    1    2    0    0  0.18176226887E-01  0.30136269189E-01 -0.90935397781E-02  0.36349173446E-01  0.00000000000E+00 0.  1.
     999901    1    1    2    0    0  0.72260912780E-01  0.36487674089E-01 -0.15159768505E-01  0.88384546639E+00  0.88000000000E+00 0.  1.
        -11    1    3    3    0    0 -0.68925293929E-01 -0.68174598256E-01  0.91033593446E-02  0.97373529580E-01  0.51100000000E-03 0.  1.
         11    1    3    3    0    0 -0.21511845738E-01  0.15506549766E-02  0.15149948939E-01  0.26361830584E-01  0.51100000000E-03 0. -1.
</event>
<event>
 8    1  0.2025822E+004  0.1043930E+01  0.7957747E-01            NaN
         13   -1    0    0    0    0  0.00000000000E+00  0.00000000000E+00  0.74505805969E-08  0.10566000000E+00  0.10566000000E+00 0.  1.
     999900   -1    0    0    0    0 -0.00000000000E+00 -0.00000000000E+00 -0.74505805969E-08  0.93827000000E+00  0.93827000000E+00 0.  1.
     999902    2    1    2    0    0  0.88126140970E-02 -0.10345223864E-01 -0.25673762968E-02  0.10300996983E+01  0.10300068501E+01 0.  0.
     999903    2    3    3    0    0 -0.87947625543E-01  0.48474283369E-01  0.83698910198E-01  0.13866032819E+00  0.46223782379E-01 0.  0.
         14    1    1    2    0    0 -0.88126140970E-02  0.10345223864E-01  0.25673762968E-02  0.13830301699E-01  0.00000000000E+00 0. -1.
     999901    1    3    3    0    0  0.96760239640E-01 -0.58819507233E-01 -0.86266286495E-01  0.89143937012E+00  0.88000000000E+00 0. -1.
        -11    1    4    4    0    0 -0.22141578378E-01 -0.22313233395E-02  0.23431492727E-02  0.22382577296E-01  0.51100000000E-03 0. -1.
         11    1    4    4    0    0 -0.65806047165E-01  0.50705606709E-01  0.81355760926E-01  0.11627775089E+00  0.51100000000E-03 0.  1.
</event>
<event>
 8    1  0.2025822E+004  0.1043930E+01  0.7957747E-01            NaN
         13   -1    0    0    0    0  0.00000000000E+00  0.00000000000E+00  0.74505805969E-08  0.10566000000E+00  0.10566000000E+00 0.  1.
     999900   -1    0    0    0    0 -0.00000000000E+00 -0.00000000000E+00 -0.74505805969E-08  0.93827000000E+00  0.93827000000E+00 0.  1.
     999902    2    1    2    0    0  0.20554500735E-02  0.63869618195E-02 -0.11992906345E-01  0.10301878037E+01  0.10300961426E+01 0.  0.
     999903    2    3    3    0    0  0.32028569964E-02 -0.46407294919E-01  0.12252030416E+00  0.13840175656E+00  0.44496359101E-01 0.  0.
         14    1    1    2    0    0 -0.20554500735E-02 -0.63869618195E-02  0.11992906345E-01  0.13742196290E-01  0.00000000000E+00 0.  1.
     999901    1    3    3    0    0 -0.11474069229E-02  0.52794256738E-01 -0.13451321051E+00  0.89178604715E+00  0.88000000000E+00 0. -1.
        -11    1    4    4    0    0 -0.11157936474E-01 -0.35519259170E-01  0.43078085714E-01  0.56939440707E-01  0.51100000000E-03 0.  1.
         11    1    4    4    0    0  0.14360793471E-01 -0.10888035749E-01  0.79442218447E-01  0.81462315854E-01  0.51100000000E-03 0. -1.
</event>
<event>
 8    1  0.2025822E+004  0.1043930E+01  0.7957747E-01            NaN
         13   -1    0    0    0    0  0.00000000000E+00  0.00000000000E+00  0.74505805969E-08  0.10566000000E+00  0.10566000000E+00 0.  1.
     999900   -1    0    0    0    0 -0.00000000000E+00 -0.00000000000E+00 -0.74505805969E-08  0.93827000000E+00  0.93827000000E+00 0.  1.
     999902    2    1    2    0    0 -0.83792371213E-03 -0.95087489994E-02  0.10149960626E-01  0.10299965825E+01  0.10299023351E+01 0.  0.
     999903    2    3    3    0    0  0.91840390937E-01  0.16405734517E-01 -0.92266210024E-01  0.13884569598E+00  0.45401192133E-01 0.  0.
         14    1    1    2    0    0  0.83792371213E-03  0.95087489994E-02 -0.10149960626E-01  0.13933417542E-01  0.00000000000E+00 0.  1.
     999901    1    3    3    0    0 -0.92678314649E-01 -0.25914483516E-01  0.10241617065E+00  0.89115088648E+00  0.88000000000E+00 0.  1.
        -11    1    4    4    0    0  0.41918081552E-01 -0.17692080832E-02 -0.13966663853E-01  0.44221990892E-01  0.51100000000E-03 0. -1.
         11    1    4    4    0    0  0.49922309385E-01  0.18174942600E-01 -0.78299546171E-01  0.94623705087E-01  0.51100000000E-03 0.  1.
</event>
<event>
 8    1  0.2025822E+004  0.1043930E+01  0.7957747E-01            NaN
         13   -1    0    0    0    0  0.00000000000E+00  0.00000000000E+00  0.74505805969E-08  0.10566000000E+00  0.10566000000E+00 0. -1.
     999900   -1    0    0    0    0 -0.00000000000E+00 -0.00000000000E+00 -0.74505805969E-08  0.93827000000E+00  0.93827000000E+00 0.  1.
     999902    2    1    2    0    0  0.31191460553E-02 -0.12555458545E-01 -0.49489971833E-02  0.10300786035E+01  0.10299854699E+01 0.  0.
     999903    2    3    3    0    0 -0.37694732027E-01 -0.74006511825E-01  0.10428003101E+00  0.14026233867E+00  0.43604382423E-01 0.  0.
         14    1    1    2    0    0 -0.31191460553E-02  0.12555458545E-01  0.49489971833E-02  0.13851396483E-01  0.00000000000E+00 0.  1.
     999901    1    3    3    0    0  0.40813878082E-01  0.61451053279E-01 -0.10922902819E+00  0.88981626485E+00  0.88000000000E+00 0.  1.
        -11    1    4    4    0    0 -0.16783717960E-01 -0.44209001264E-01  0.26085007652E-01  0.54007571011E-01  0.51100000000E-03 0. -1.
         11    1    4    4    0    0 -0.20911014067E-01 -0.29797510561E-01  0.78195023355E-01  0.86254767656E-01  0.51100000000E-03 0.  1.
</event>
<event>
 8    1  0.2025822E+004  0.1043930E+01  0.7957747E-01            NaN
         13   -1    0    0    0    0  0.00000000000E+00  0.00000000000E+00  0.74505805969E-08  0.10566000000E+00  0.10566000000E+00 0.  1.
     999900   -1    0    0    0    0 -0.00000000000E+00 -0.00000000000E+00 -0.74505805969E-08  0.93827000000E+00  0.93827000000E+00 0.  1.
     999902    2    1    2    0    0 -0.13491094902E-01 -0.25980004397E-02  0.25715778957E-03  0.10301886253E+01  0.10300969752E+01 0.  0.
     999903    2    3    3    0    0  0.47063305482E-02  0.12361273605E+00 -0.46957586958E-01  0.13974518050E+00  0.44960454163E-01 0.  0.
         14    1    1    2    0    0  0.13491094902E-01  0.25980004397E-02 -0.25715778957E-03  0.13741374679E-01  0.00000000000E+00 0.  1.
     999901    1    3    3    0    0 -0.18197425450E-01 -0.12621073649E+00  0.47214744748E-01  0.89044344482E+00  0.88000000000E+00 0. -1.
        -11    1    4    4    0    0  0.94784708263E-02  0.10746282492E+00 -0.54981612291E-01  0.12108401613E+00  0.51100000000E-03 0. -1.
         11    1    4    4    0    0 -0.47721402782E-02  0.16149911130E-01  0.80240253330E-02  0.18661164376E-01  0.51100000000E-03 0.  1.
</event>
<event>
 8    1  0.2025822E+004  0.1043930E+01  0.7957747E-01            NaN
         13   -1    0    0    0    0  0.00000000000E+00  0.00000000000E+00  0.74505805969E-08  0.10566000000E+00  0.10566000000E+00 0. -1.
     999900   -1    0    0    0    0 -0.00000000000E+00 -0.00000000000E+00 -0.74505805969E-08  0.93827000000E+00  0.93827000000E+00 0.  1.
     999902    2    1    2    0    0 -0.11729340664E-01 -0.25009755158E-02  0.72100358258E-02  0.10299365398E+01  0.10298414728E+01 0.  0.
     999903    2    3    3    0    0 -0.17770104145E-01  0.11248117692E+00 -0.66575244851E-01  0.13937399074E+00  0.45000603363E-01 0.  0.
         14    1    1    2    0    0  0.11729340664E-01  0.25009755158E-02 -0.72100358258E-02  0.13993460171E-01  0.00000000000E+00 0.  1.
     999901    1    3    3    0    0  0.60407634814E-02 -0.11498215244E+00  0.73785280677E-01  0.89056254909E+00  0.88000000000E+00 0. -1.
        -11    1    4    4    0    0  0.49868171380E-02  0.77922339092E-02 -0.20990065819E-01  0.22944089403E-01  0.51100000000E-03 0.  1.
         11    1    4    4    0    0 -0.22756921284E-01  0.10468894301E+00 -0.45585179033E-01  0.11642990133E+00  0.51100000000E-03 0. -1.
</event>
<event>
 8    1  0.2025822E+004  0.1043930E+01  0.7957747E-01            NaN
         13   -1    0    0    0    0  0.00000000000E+00  0.00000000000E+00  0.74505805969E-08  0.10566000000E+00  0.10566000000E+00 0.  1.
     999900   -1    0    0    0    0 -0.00000000000E+00 -0.00000000000E+00 -0.74505805969E-08  0.93827000000E+00  0.93827000000E+00 0. -1.
     999902    2    1    2    0    0  0.26869063796E-02  0.14541015570E-01  0.40884902950E-03  0.10291371721E+01  0.10290308505E+01 0.  0.
     999903    2    3    3    0    0  0.21720241168E-01 -0.87015104915E-01 -0.94548689038E-01  0.13801829817E+00  0.45455458103E-01 0.  0.
         14    1    1    2    0    0 -0.26869063796E-02 -0.14541015570E-01 -0.40884902950E-03  0.14792827898E-01  0.00000000000E+00 0.  1.
     999901    1    3    3    0    0 -0.19033334789E-01  0.10155612048E+00  0.94957538068E-01  0.89111887393E+00  0.88000000000E+00 0. -1.
        -11    1    4    4    0    0  0.20075892742E-02 -0.41356992372E-02 -0.31991527621E-01  0.32324191922E-01  0.51100000000E-03 0. -1.
         11    1    4    4    0    0  0.19712651894E-01 -0.82879405678E-01 -0.62557161417E-01  0.10569410625E+00  0.51100000000E-03 0.  1.
</event>
<event>
 8    1  0.2025822E+004  0.1043930E+01  0.7957747E-01            NaN
         13   -1    0    0    0    0  0.00000000000E+00  0.00000000000E+00  0.74505805969E-08  0.10566000000E+00  0.10566000000E+00 0. -1.
     999900   -1    0    0    0    0 -0.00000000000E+00 -0.00000000000E+00 -0.74505805969E-08  0.93827000000E+00  0.93827000000E+00 0.  1.
     999902    2    1    2    0    0 -0.30165796458E-02  0.12665590306E-01 -0.48233497890E-02  0.10300454174E+01  0.10299518340E+01 0.  0.
     999903    2    3    3    0    0 -0.10680252814E+00 -0.72117989457E-01  0.27417743660E-01  0.13931579142E+00  0.45269997254E-01 0.  0.
         14    1    1    2    0    0  0.30165796458E-02 -0.12665590306E-01  0.48233497890E-02  0.13884582592E-01  0.00000000000E+00 0.  1.
     999901    1    3    3    0    0  0.10378594850E+00  0.84783579763E-01 -0.32241093449E-01  0.89072962599E+00  0.88000000000E+00 0. -1.
        -11    1    4    4    0    0 -0.17109948797E-01 -0.33719488184E-01  0.16076935694E-01  0.41091157364E-01  0.51100000000E-03 0.  1.
         11    1    4    4    0    0 -0.89692579344E-01 -0.38398501274E-01  0.11340807966E-01  0.98224634058E-01  0.51100000000E-03 0. -1.
</event>
<event>
 8    1  0.2025822E+004  0.1043930E+01  0.7957747E-01            NaN
         13   -1    0    0    0    0  0.00000000000E+00  0.00000000000E+00  0.74505805969E-08  0.10566000000E+00  0.10566000000E+00 0.  1.
     999900   -1    0    0    0    0 -0.00000000000E+00 -0.00000000000E+00 -0.74505805969E-08  0.93827000000E+00  0.93827000000E+00 0. -1.
     999902    2    1    2    0    0  0.56387104669E-02 -0.68059445106E-02 -0.11003332891E-01  0.10298165571E+01  0.10297198415E+01 0.  0.
     999903    2    3    3    0    0  0.68239830440E-01  0.28208439997E-01 -0.11183241920E+00  0.14115947361E+00  0.44352186668E-01 0.  0.
         14    1    1    2    0    0 -0.56387104669E-02  0.68059445106E-02  0.11003332891E-01  0.14113442922E-01  0.00000000000E+00 0.  1.
     999901    1    3    3    0    0 -0.62601119973E-01 -0.35014384508E-01  0.10082908631E+00  0.88865708346E+00  0.88000000000E+00 0.  1.
        -11    1    4    4    0    0  0.28690110602E-01 -0.97210663390E-02 -0.50681795379E-01  0.59046821091E-01  0.51100000000E-03 0. -1.
         11    1    4    4    0    0  0.39549719838E-01  0.37929506336E-01 -0.61150623818E-01  0.82112652524E-01  0.51100000000E-03 0.  1.
</event>
<event>
 8    1  0.2025822E+004  0.1043930E+01  0.7957747E-01            NaN
         13   -1    0    0    0    0  0.00000000000E+00  0.00000000000E+00  0.74505805969E-08  0.10566000000E+00  0.10566000000E+00 0. -1.
     999900   -1    0    0    0    0 -0.00000000000E+00 -0.00000000000E+00 -0.74505805969E-08  0.93827000000E+00  0.93827000000E+00 0. -1.
     999902    2    1    2    0    0 -0.42061428864E-02 -0.10408433586E-01  0.61240561193E-02  0.10311420685E+01  0.10310627693E+01 0.  0.
     999903    2    3    3    0    0  0.12204088827E+00  0.45453009470E-01  0.21334501104E-01  0.14024916177E+00  0.47483807349E-01 0.  0.
         14    1    1    2    0    0  0.42061428864E-02  0.10408433586E-01 -0.61240561193E-02  0.12787931461E-01  0.00000000000E+00 0. -1.
     999901    1    3    3    0    0 -0.12624703116E+00 -0.55861443056E-01 -0.15210444984E-01  0.89089290677E+00  0.88000000000E+00 0.  1.
        -11    1    4    4    0    0  0.56740011917E-01  0.31287551272E-01 -0.11479021811E-01  0.65805538367E-01  0.51100000000E-03 0. -1.
         11    1    4    4    0    0  0.65300876351E-01  0.14165458198E-01  0.32813522915E-01  0.74443623403E-01  0.51100000000E-03 0.  1.
</event>
<event>
 8    1  0.2025822E+004  0.1043930E+01  0.7957747E-01            NaN
         13   -1    0    0    0    0  0.00000000000E+00  0.00000000000E+00  0.74505805969E-08  0.10566000000E+00  0.10566000000E+00 0.  1.
     999900   -1    0    0    0    0 -0.00000000000E+00 -0.00000000000E+00 -0.74505805969E-08  0.93827000000E+00  0.93827000000E+00 0.  1.
     999902    2    1    2    0    0 -0.71453306409E-03 -0.13222964728E-01 -0.19631264887E-02  0.10305430205E+01  0.10304560670E+01 0.  0.
     999903    2    3    3    0    0 -0.83695750995E-02 -0.96758101181E-01  0.92704858132E-01  0.14149929495E+00  0.44673032325E-01 0.  0.
         14    1    1    2    0    0  0.71453306409E-03  0.13222964728E-01  0.19631264887E-02  0.13386979469E-01  0.00000000000E+00 0. -1.
     999901    1    3    3    0    0  0.76550420354E-02  0.83535136453E-01 -0.94667984621E-01  0.88904372559E+00  0.88000000000E+00 0.  1.
        -11    1    4    4    0    0 -0.14142188416E-01 -0.71017385393E-01  0.40411570257E-01  0.82926634159E-01  0.51100000000E-03 0. -1.
         11    1    4    4    0    0  0.57726133165E-02 -0.25740715788E-01  0.52293287875E-01  0.58572660786E-01  0.51100000000E-03 0.  1.
</event>
<event>
 8    1  0.2025822E+004  0.1043930E+01  0.7957747E-01            NaN
         13   -1    0    0    0    0  0.00000000000E+00  0.00000000000E+00  0.74505805969E-08  0.10566000000E+00  0.10566000000E+00 0. -1.
     999900   -1    0    0    0    0 -0.00000000000E+00 -0.00000000000E+00 -0.74505805969E-08  0.93827000000E+00  0.93827000000E+00 0. -1.
     999902    2    1    2    0    0 -0.10572592895E-01  0.13332510593E-02  0.88479360537E-02  0.10300792509E+01  0.10299861260E+01 0.  0.
     999903    2    3    3    0    0 -0.85032365207E-01 -0.45356722590E-03 -0.10190689634E+00  0.14001516143E+00  0.44592836355E-01 0.  0.
         14    1    1    2    0    0  0.10572592895E-01 -0.13332510593E-02 -0.88479360537E-02  0.13850749125E-01  0.00000000000E+00 0.  1.
     999901    1    3    3    0    0  0.74459772312E-01  0.17868182852E-02  0.11075483239E+00  0.89006408944E+00  0.88000000000E+00 0.  1.
        -11    1    4    4    0    0 -0.35940276234E-01 -0.19423608688E-01 -0.60707652046E-01  0.73175543511E-01  0.51100000000E-03 0. -1.
         11    1    4    4    0    0 -0.49092088974E-01  0.18970041462E-01 -0.41199244293E-01  0.66839617923E-01  0.51100000000E-03 0.  1.
</event>
<event>
 8    1  0.2025822E+004  0.1043930E+01  0.7957747E-01            NaN
         13   -1    0    0    0    0  0.00000000000E+00  0.00000000000E+00  0.74505805969E-08  0.10566000000E+00  0.10566000000E+00 0.  1.
     999900   -1    0    0    0    0 -0.00000000000E+00 -0.00000000000E+00 -0.74505805969E-08  0.93827000000E+00  0.93827000000E+00 0.  1.
     999902    2    1    2    0    0  0.15480170487E-01 -0.12765159796E-02  0.80280951801E-02  0.10264452786E+01  0.10262963482E+01 0.  0.
     999903    2    3    3    0    0 -0.30373422443E-01 -0.78391862983E-01  0.99021949004E-01  0.13721571869E+00  0.44215134262E-01 0.  0.
         14    1    1    2    0    0 -0.15480170487E-01  0.12765159796E-02 -0.80280951801E-02  0.17484721433E-01  0.00000000000E+00 0. -1.
     999901    1    3    3    0    0  0.45853592929E-01  0.77115347004E-01 -0.90993853824E-01  0.88922955988E+00  0.88000000000E+00 0.  1.
        -11    1    4    4    0    0 -0.13757729807E-01 -0.12648304365E-01  0.50449299463E-01  0.53801929984E-01  0.51100000000E-03 0.  1.
         11    1    4    4    0    0 -0.16615692635E-01 -0.65743558619E-01  0.48572649541E-01  0.83413788704E-01  0.51100000000E-03 0. -1.
</event>
<event>
 8    1  0.2025822E+004  0.1043930E+01  0.7957747E-01            NaN
         13   -1    0    0    0    0  0.00000000000E+00  0.00000000000E+00  0.74505805969E-08  0.10566000000E+00  0.10566000000E+00 0.  1.
     999900   -1    0    0    0    0 -0.00000000000E+00 -0.00000000000E+00 -0.74505805969E-08  0.93827000000E+00  0.93827000000E+00 0.  1.
     999902    2    1    2    0    0  0.10341379329E-01  0.80858411882E-02  0.49562240051E-02  0.10298982820E+01  0.10298026909E+01 0.  0.
     999903    2    3    3    0    0 -0.31122552555E-01  0.41981713191E-01  0.12273498740E+00  0.14043775734E+00  0.43906822182E-01 0.  0.
         14    1    1    2    0    0 -0.10341379329E-01 -0.80858411882E-02 -0.49562240051E-02  0.14031718018E-01  0.00000000000E+00 0. -1.
     999901    1    3    3    0    0  0.41463931885E-01 -0.33895872003E-01 -0.11777876340E+00  0.88946052464E+00  0.88000000000E+00 0.  1.
        -11    1    4    4    0    0  0.23917540956E-02 -0.64054845865E-02  0.28632038349E-01  0.29441560105E-01  0.51100000000E-03 0. -1.
         11    1    4    4    0    0 -0.33514306651E-01  0.48387197778E-01  0.94102949055E-01  0.11099619724E+00  0.51100000000E-03 0.  1.
</event>
<event>
 8    1  0.2025822E+004  0.1043930E+01  0.7957747E-01            NaN
         13   -1    0    0    0    0  0.00000000000E+00  0.00000000000E+00  0.74505805969E-08  0.10566000000E+00  0.10566000000E+00 0.  1.
     999900   -1    0    0    0    0 -0.00000000000E+00 -0.00000000000E+00 -0.74505805969E-08  0.93827000000E+00  0.93827000000E+00 0.  1.
     999902    2    1    2    0    0  0.79976424759E-02  0.18115489010E-02  0.11667788012E-01  0.10296688194E+01  0.10295700542E+01 0.  0.
     999903    2    3    3    0    0  0.98031939605E-01 -0.84530567378E-01 -0.33068530947E-01  0.13974608460E+00  0.40984904762E-01 0.  0.
         14    1    1    2    0    0 -0.79976424759E-02 -0.18115489010E-02 -0.11667788012E-01  0.14261180585E-01  0.00000000000E+00 0. -1.
     999901    1    3    3    0    0 -0.90034297129E-01  0.86342116279E-01  0.44736318960E-01  0.88992273481E+00  0.88000000000E+00 0.  1.
        -11    1    4    4    0    0  0.62611640130E-01 -0.76931431149E-01 -0.28660821733E-01  0.10324905037E+00  0.51100000000E-03 0. -1.
         11    1    4    4    0    0  0.35420299475E-01 -0.75991362294E-02 -0.44077092146E-02  0.36497034234E-01  0.51100000000E-03 0.  1.
</event>
<event>
 8    1  0.2025822E+004  0.1043930E+01  0.7957747E-01            NaN
         13   -1    0    0    0    0  0.00000000000E+00  0.00000000000E+00  0.74505805969E-08  0.10566000000E+00  0.10566000000E+00 0. -1.
     999900   -1    0    0    0    0 -0.00000000000E+00 -0.00000000000E+00 -0.74505805969E-08  0.93827000000E+00  0.93827000000E+00 0.  1.
     999902    2    1    2    0    0  0.20533156133E-02 -0.10861003496E-01 -0.89465930359E-02  0.10297096263E+01  0.10296114293E+01 0.  0.
     999903    2    3    3    0    0  0.10438767473E+00  0.55853285137E-01  0.56368558724E-01  0.13887339755E+00  0.45738714863E-01 0.  0.
         14    1    1    2    0    0 -0.20533156133E-02  0.10861003496E-01  0.89465930359E-02  0.14220373726E-01  0.00000000000E+00 0. -1.
     999901    1    3    3    0    0 -0.10233435912E+00 -0.66714288633E-01 -0.65315151760E-01  0.89083622873E+00  0.88000000000E+00 0.  1.
        -11    1    4    4    0    0  0.53673561567E-01  0.32460497185E-01  0.54328970231E-01  0.82984536006E-01  0.51100000000E-03 0.  1.
         11    1    4    4    0    0  0.50714113164E-01  0.23392787951E-01  0.20395884938E-02  0.55888861541E-01  0.51100000000E-03 0. -1.
</event>
<event>
 8    1  0.2025822E+004  0.1043930E+01  0.7957747E-01            NaN
         13   -1    0    0    0    0  0.00000000000E+00  0.00000000000E+00  0.74505805969E-08  0.10566000000E+00  0.10566000000E+00 0. -1.
     999900   -1    0    0    0    0 -0.00000000000E+00 -0.00000000000E+00 -0.74505805969E-08  0.93827000000E+00  0.93827000000E+00 0. -1.
     999902    2    1    2    0    0 -0.32045566307E-02 -0.37549734739E-02  0.13141653858E-01  0.10298917638E+01  0.10297960833E+01 0.  0.
     999903    2    3    3    0    0  0.12170478276E+00  0.50559625012E-01  0.56843867811E-02  0.13938178100E+00  0.45018205130E-01 0.  0.
         14    1    1    2    0    0  0.32045566307E-02  0.37549734739E-02 -0.13141653858E-01  0.14038236182E-01  0.00000000000E+00 0.  1.
     999901    1    3    3    0    0 -0.12490933939E+00 -0.54314598486E-01  0.74572670766E-02  0.89050998282E+00  0.88000000000E+00 0. -1.
        -11    1    4    4    0    0  0.27611136799E-01  0.33828944203E-01  0.30171918038E-02  0.43773701107E-01  0.51100000000E-03 0.  1.
         11    1    4    4    0    0  0.94093645957E-01  0.16730680810E-01  0.26671949773E-02  0.95608079888E-01  0.51100000000E-03 0. -1.
</event>
<event>
 8    1  0.2025822E+004  0.1043930E+01  0.7957747E-01            NaN
         13   -1    0    0    0    0  0.00000000000E+00  0.00000000000E+00  0.74505805969E-08  0.10566000000E+00  0.10566000000E+00 0.  1.
     999900   -1    0    0    0    0 -0.00000000000E+00 -0.00000000000E+00 -0.74505805969E-08  0.93827000000E+00  0.93827000000E+00 0. -1.
     999902    2    1    2    0    0 -0.89748962459E-02 -0.36965966250E-02 -0.98159564388E-02  0.10301254142E+01  0.10300329132E+01 0.  0.
     999903    2    3    3    0    0  0.11971815534E+00 -0.35466850235E-01  0.41488090422E-01  0.13872014395E+00  0.43950910208E-01 0.  0.
         14    1    1    2    0    0  0.89748962459E-02  0.36965966250E-02  0.98159564388E-02  0.13804585834E-01  0.00000000000E+00 0. -1.
     999901    1    3    3    0    0 -0.12869305158E+00  0.31770253610E-01 -0.51304046861E-01  0.89140527021E+00  0.88000000000E+00 0.  1.
        -11    1    4    4    0    0  0.60780738357E-01 -0.10235628561E-01  0.42030175458E-01  0.74604711764E-01  0.51100000000E-03 0.  1.
         11    1    4    4    0    0  0.58937416981E-01 -0.25231221674E-01 -0.54208503589E-03  0.64115432189E-01  0.51100000000E-03 0. -1.
</event>
<event>
 8    1  0.2025822E+004  0.1043930E+01  0.7957747E-01            NaN
         13   -1    0    0    0    0  0.00000000000E+00  0.00000000000E+00  0.74505805969E-08  0.10566000000E+00  0.10566000000E+00 0. -1.
     999900   -1    0    0    0    0 -0.00000000000E+00 -0.00000000000E+00 -0.74505805969E-08  0.93827000000E+00  0.93827000000E+00 0.  1.
     999902    2    1    2    0    0 -0.37131793626E-02 -0.17436873084E-02  0.11328730833E-01  0.10318814196E+01  0.10318110757E+01 0.  0.
     999903    2    3    3    0    0  0.65141371458E-01  0.11361716933E+00 -0.26228780551E-01  0.14089340453E+00  0.44841309849E-01 0.  0.
         14    1    1    2    0    0  0.37131793626E-02  0.17436873084E-02 -0.11328730833E-01  0.12048580360E-01  0.00000000000E+00 0.  1.
     999901    1    3    3    0    0 -0.68854550820E-01 -0.11536085664E+00  0.37557511384E-01  0.89098801511E+00  0.88000000000E+00 0. -1.
        -11    1    4    4    0    0  0.67015141013E-01  0.10480417990E+00 -0.13274521457E-01  0.12510563253E+00  0.51100000000E-03 0. -1.
         11    1    4    4    0    0 -0.18737695555E-02  0.88129894239E-02 -0.12954259094E-01  0.15787771996E-01  0.51100000000E-03 0.  1.
</event>
<event>
 8    1  0.2057457E+004  0.1043930E+01  0.7957747E-01            NaN
         13   -1    0    0    0    0  0.00000000000E+00  0.00000000000E+00  0.74505805969E-08  0.10566000000E+00  0.10566000000E+00 0.  1.
     999900   -1    0    0    0    0 -0.00000000000E+00 -0.00000000000E+00 -0.74505805969E-08  0.93827000000E+00  0.93827000000E+00 0.  1.
     999902    2    1    2    0    0 -0.33045179429E-02 -0.10948727508E-01 -0.71997116290E-02  0.10304159214E+01  0.10303272979E+01 0.  0.
     999903    2    3    3    0    0 -0.11730108287E+00 -0.64588944583E-01  0.37011720040E-02  0.14137637280E+00  0.45191861090E-01 0.  0.
         14    1    1    2    0    0  0.33045179429E-02  0.10948727508E-01  0.71997116290E-02  0.13514078600E-01  0.00000000000E+00 0.  1.
     999901    1    3    3    0    0  0.11399656493E+00  0.53640217075E-01 -0.10900883633E-01  0.88903954860E+00  0.88000000000E+00 0. -1.
        -11    1    4    4    0    0 -0.68001304990E-01 -0.23302354834E-01  0.20803504578E-01  0.74834645352E-01  0.51100000000E-03 0.  1.
         11    1    4    4    0    0 -0.49299777878E-01 -0.41286589749E-01 -0.17102332574E-01  0.66541727453E-01  0.51100000000E-03 0. -1.
</event>
<event>
 8    1  0.2025822E+004  0.1043930E+01  0.7957747E-01            NaN
         13   -1    0    0    0    0  0.00000000000E+00  0.00000000000E+00  0.74505805969E-08  0.10566000000E+00  0.10566000000E+00 0.  1.
     999900   -1    0    0    0    0 -0.00000000000E+00 -0.00000000000E+00 -0.74505805969E-08  0.93827000000E+00  0.93827000000E+00 0. -1.
     999902    2    1    2    0    0  0.56513824868E-02  0.12808000859E-01  0.47116264273E-02  0.10291590003E+01  0.10290529944E+01 0.  0.
     999903    2    3    3    0    0 -0.82136517966E-01  0.10384407808E+00  0.36973856433E-02  0.14011720623E+00  0.45707337343E-01 0.  0.
         14    1    1    2    0    0 -0.56513824868E-02 -0.12808000859E-01 -0.47116264273E-02  0.14770999750E-01  0.00000000000E+00 0. -1.
     999901    1    3    3    0    0  0.87787900453E-01 -0.91036077219E-01  0.10142407840E-02  0.88904179402E+00  0.88000000000E+00 0. -1.
        -11    1    4    4    0    0 -0.54173907157E-01  0.72405354464E-01  0.23762272945E-01  0.93500023038E-01  0.51100000000E-03 0.  1.
         11    1    4    4    0    0 -0.27962610810E-01  0.31438723614E-01 -0.20064887301E-01  0.46617183197E-01  0.51100000000E-03 0. -1.
</event>
<event>
 8    1  0.2025822E+004  0.1043930E+01  0.7957747E-01            NaN
         13   -1    0    0    0    0  0.00000000000E+00  0.00000000000E+00  0.74505805969E-08  0.10566000000E+00  0.10566000000E+00 0.  1.
     999900   -1    0    0    0    0 -0.00000000000E+00 -0.00000000000E+00 -0.74505805969E-08  0.93827000000E+00  0.93827000000E+00 0.  1.
     999902    2    1    2    0    0 -0.10040154563E-01 -0.39532568780E-02 -0.69052226152E-02  0.10311192606E+01  0.10310396765E+01 0.  0.
     999903    2    3    3    0    0  0.45061671184E-01 -0.12559530546E+00  0.32188678145E-02  0.14098696913E+00  0.45411775893E-01 0.  0.
         14    1    1    2    0    0  0.10040154563E-01  0.39532568780E-02  0.69052226152E-02  0.12810739360E-01  0.00000000000E+00 0.  1.
     999901    1    3    3    0    0 -0.55101825747E-01  0.12164204859E+00 -0.10124090430E-01  0.89013229151E+00  0.88000000000E+00 0. -1.
        -11    1    4    4    0    0  0.40107087510E-01 -0.10869960564E+00  0.18910155823E-01  0.11739692436E+00  0.51100000000E-03 0.  1.
         11    1    4    4    0    0  0.49545836747E-02 -0.16895699828E-01 -0.15691288008E-01  0.23590044773E-01  0.51100000000E-03 0. -1.
</event>
<event>
 8    1  0.2025822E+004  0.1043930E+01  0.7957747E-01            NaN
         13   -1    0    0    0    0  0.00000000000E+00  0.00000000000E+00  0.74505805969E-08  0.10566000000E+00  0.10566000000E+00 0. -1.
     999900   -1    0    0    0    0 -0.00000000000E+00 -0.00000000000E+00 -0.74505805969E-08  0.93827000000E+00  0.93827000000E+00 0.  1.
     999902    2    1    2    0    0  0.71909891697E-02  0.61176076869E-02 -0.62395095702E-02  0.10326133340E+01  0.10325513211E+01 0.  0.
     999903    2    3    3    0    0 -0.11260089589E+00 -0.25248842467E-02  0.71683042765E-01  0.14104353163E+00  0.45491564015E-01 0.  0.
         14    1    1    2    0    0 -0.71909891697E-02 -0.61176076869E-02  0.62395095702E-02  0.11316665972E-01  0.00000000000E+00 0. -1.
     999901    1    3    3    0    0  0.11979188506E+00  0.86424919337E-02 -0.77922552335E-01  0.89156980240E+00  0.88000000000E+00 0.  1.
        -11    1    4    4    0    0 -0.41323982549E-01 -0.49812658202E-03  0.53221696263E-01  0.67384937026E-01  0.51100000000E-03 0.  1.
         11    1    4    4    0    0 -0.71276913346E-01 -0.20267576647E-02  0.18461346502E-01  0.73658594600E-01  0.51100000000E-03 0. -1.
</event>
<event>
 8    1  0.2025822E+004  0.1043930E+01  0.7957747E-01            NaN
         13   -1    0    0    0    0  0.00000000000E+00  0.00000000000E+00  0.74505805969E-08  0.10566000000E+00  0.10566000000E+00 0.  1.
     999900   -1    0    0    0    0 -0.00000000000E+00 -0.00000000000E+00 -0.74505805969E-08  0.93827000000E+00  0.93827000000E+00 0. -1.
     999902    2    1    2    0    0 -0.24212833335E-03  0.70576900123E-02 -0.11600517265E-01  0.10303490716E+01  0.10302595633E+01 0.  0.
     999903    2    3    3    0    0 -0.87023522829E-01 -0.99290739862E-01  0.46790283047E-02  0.13955952153E+00  0.44980242293E-01 0.  0.
         14    1    1    2    0    0  0.24212833335E-03 -0.70576900123E-02  0.11600517265E-01  0.13580928365E-01  0.00000000000E+00 0.  1.
     999901    1    3    3    0    0  0.86781394496E-01  0.10634842987E+00 -0.16279545570E-01  0.89078955010E+00  0.88000000000E+00 0.  1.
        -11    1    4    4    0    0 -0.78958979762E-01 -0.68771784784E-01  0.16191762669E-01  0.10595524134E+00  0.51100000000E-03 0.  1.
         11    1    4    4    0    0 -0.80645430667E-02 -0.30518955078E-01 -0.11512734365E-01  0.33604280196E-01  0.51100000000E-03 0. -1.
</event>
<event>
 8    1  0.2025822E+004  0.1043930E+01  0.7957747E-01            NaN
         13   -1    0    0    0    0  0.00000000000E+00  0.00000000000E+00  0.74505805969E-08  0.10566000000E+00  0.10566000000E+00 0.  1.
     999900   -1    0    0    0    0 -0.00000000000E+00 -0.00000000000E+00 -0.74505805969E-08  0.93827000000E+00  0.93827000000E+00 0.  1.
     999902    2    1    2    0    0 -0.40265460606E-02  0.12204153292E-01  0.44329260861E-02  0.10303356900E+01  0.10302460040E+01 0.  0.
     999903    2    3    3    0    0 -0.12223947256E+00  0.11094157338E-01  0.54646238617E-01  0.14101184300E+00  0.42808404474E-01 0.  0.
         14    1    1    2    0    0  0.40265460606E-02 -0.12204153292E-01 -0.44329260861E-02  0.13594310002E-01  0.00000000000E+00 0. -1.
     999901    1    3    3    0    0  0.11821292650E+00  0.11099959540E-02 -0.50213312531E-01  0.88932384700E+00  0.88000000000E+00 0. -1.
        -11    1    4    4    0    0 -0.76339495686E-01  0.36443117143E-02  0.10965487561E-01  0.77210767694E-01  0.51100000000E-03 0.  1.
         11    1    4    4    0    0 -0.45899976871E-01  0.74498456233E-02  0.43680751056E-01  0.63801075307E-01  0.51100000000E-03 0. -1.
</event>
<event>
 8    1  0.2025822E+004  0.1043930E+01  0.7957747E-01            NaN
         13   -1    0    0    0    0  0.00000000000E+00  0.00000000000E+00  0.74505805969E-08  0.10566000000E+00  0.10566000000E+00 0. -1.
     999900   -1    0    0    0    0 -0.00000000000E+00 -0.00000000000E+00 -0.74505805969E-08  0.93827000000E+00  0.93827000000E+00 0.  1.
     999902    2    1    2    0    0  0.76546308232E-02 -0.36056684024E-02  0.11406963580E-01  0.10297274286E+01  0.10296294790E+01 0.  0.
     999903    2    3    3    0    0  0.10425391254E+00 -0.17056590983E-01  0.82951732533E-01  0.14145325775E+00  0.44364722729E-01 0.  0.
         14    1    1    2    0    0 -0.76546308232E-02  0.36056684024E-02 -0.11406963580E-01  0.14202571450E-01  0.00000000000E+00 0.  1.
     999901    1    3    3    0    0 -0.96599281713E-01  0.13450922580E-01 -0.71544768952E-01  0.88827417080E+00  0.88000000000E+00 0.  1.
        -11    1    4    4    0    0  0.51151635844E-01 -0.25386284523E-01  0.60510244901E-01  0.83202789319E-01  0.51100000000E-03 0. -1.
         11    1    4    4    0    0  0.53102276692E-01  0.83296935403E-02  0.22441487632E-01  0.58250468432E-01  0.51100000000E-03 0.  1.
</event>
<event>
 8    1  0.2025822E+004  0.1043930E+01  0.7957747E-01            NaN
         13   -1    0    0    0    0  0.00000000000E+00  0.00000000000E+00  0.74505805969E-08  0.10566000000E+00  0.10566000000E+00 0.  1.
     999900   -1    0    0    0    0 -0.00000000000E+00 -0.00000000000E+00 -0.74505805969E-08  0.93827000000E+00  0.93827000000E+00 0. -1.
     999902    2    1    2    0    0 -0.13257500306E-01 -0.38403600819E-02  0.15326766864E-02  0.10300426396E+01  0.10299490185E+01 0.  0.
     999903    2    3    3    0    0  0.65363841790E-01 -0.37143837078E-01  0.10852671925E+00  0.13945959345E+00  0.44931425172E-01 0.  0.
         14    1    1    2    0    0  0.13257500306E-01  0.38403600819E-02 -0.15326766864E-02  0.13887360359E-01  0.00000000000E+00 0. -1.
     999901    1    3    3    0    0 -0.78621342096E-01  0.33303476996E-01 -0.10699404257E+00  0.89058304619E+00  0.88000000000E+00 0. -1.
        -11    1    4    4    0    0  0.45650017012E-01 -0.21287502894E-01  0.10131696340E+00  0.11314800054E+00  0.51100000000E-03 0. -1.
         11    1    4    4    0    0  0.19713824778E-01 -0.15856334184E-01  0.72097558518E-02  0.26311592912E-01  0.51100000000E-03 0.  1.
</event>
<event>
 8    1  0.2025822E+004  0.1043930E+01  0.7957747E-01            NaN
         13   -1    0    0    0    0  0.00000000000E+00  0.00000000000E+00  0.74505805969E-08  0.10566000000E+00  0.10566000000E+00 0. -1.
     999900   -1    0    0    0    0 -0.00000000000E+00 -0.00000000000E+00 -0.74505805969E-08  0.93827000000E+00  0.93827000000E+00 0. -1.
     999902    2    1    2    0    0  0.30032782949E-02 -0.41896098405E-02 -0.15304663558E-01  0.10277805344E+01  0.10276536487E+01 0.  0.
     999903    2    3    3    0    0  0.20918347656E-01  0.70496661901E-01  0.10471667327E+00  0.13631875164E+00  0.47009188258E-01 0.  0.
         14    1    1    2    0    0 -0.30032782949E-02  0.41896098405E-02  0.15304663558E-01  0.16149465556E-01  0.00000000000E+00 0. -1.
     999901    1    3    3    0    0 -0.17915069362E-01 -0.74686271742E-01 -0.12002133683E+00  0.89146178280E+00  0.88000000000E+00 0. -1.
        -11    1    4    4    0    0  0.25760077926E-03  0.48846154641E-01  0.33966729752E-01  0.59498008642E-01  0.51100000000E-03 0.  1.
         11    1    4    4    0    0  0.20660746877E-01  0.21650507260E-01  0.70749943521E-01  0.76820743002E-01  0.51100000000E-03 0. -1.
</event>
<event>
 8    1  0.2025822E+004  0.1043930E+01  0.7957747E-01            NaN
         13   -1    0    0    0    0  0.00000000000E+00  0.00000000000E+00  0.74505805969E-08  0.10566000000E+00  0.10566000000E+00 0. -1.
     999900   -1    0    0    0    0 -0.00000000000E+00 -0.00000000000E+00 -0.74505805969E-08  0.93827000000E+00  0.93827000000E+00 0.  1.
     999902    2    1    2    0    0  0.75840221998E-03  0.12303859102E-01 -0.64725588940E-02  0.10300068487E+01  0.10299127411E+01 0.  0.
     999903    2    3    3    0    0 -0.23183951657E-01 -0.35764678605E-01 -0.12561182254E+00  0.14035636412E+00  0.45879964442E-01 0.  0.
         14    1    1    2    0    0 -0.75840221998E-03 -0.12303859102E-01  0.64725588940E-02  0.13923151273E-01  0.00000000000E+00 0.  1.
     999901    1    3    3    0    0  0.23942353877E-01  0.48068537707E-01  0.11913926364E+00  0.88965048461E+00  0.88000000000E+00 0. -1.
        -11    1    4    4    0    0 -0.14384639448E-01  0.83270797635E-02 -0.46156304938E-01  0.49060408844E-01  0.51100000000E-03 0. -1.
         11    1    4    4    0    0 -0.87993122094E-02 -0.44091758369E-01 -0.79455517598E-01  0.91295955273E-01  0.51100000000E-03 0.  1.
</event>
<event>
 8    1  0.2025822E+004  0.1043930E+01  0.7957747E-01            NaN
         13   -1    0    0    0    0  0.00000000000E+00  0.00000000000E+00  0.74505805969E-08  0.10566000000E+00  0.10566000000E+00 0. -1.
     999900   -1    0    0    0    0 -0.00000000000E+00 -0.00000000000E+00 -0.74505805969E-08  0.93827000000E+00  0.93827000000E+00 0. -1.
     999902    2    1    2    0    0  0.71067711206E-02 -0.12278428753E-01  0.14485741690E-02  0.10296694118E+01  0.10295706548E+01 0.  0.
     999903    2    3    3    0    0  0.86588049105E-01  0.58539666929E-01  0.81202594166E-01  0.13967324332E+00  0.44613571337E-01 0.  0.
         14    1    1    2    0    0 -0.71067711206E-02  0.12278428753E-01 -0.14485741690E-02  0.14260588190E-01  0.00000000000E+00 0. -1.
     999901    1    3    3    0    0 -0.79481277984E-01 -0.70818095682E-01 -0.79754019997E-01  0.88999616849E+00  0.88000000000E+00 0. -1.
        -11    1    4    4    0    0  0.45464266414E-01  0.46107024483E-01  0.69820367570E-01  0.95226057756E-01  0.51100000000E-03 0. -1.
         11    1    4    4    0    0  0.41123782691E-01  0.12432642446E-01  0.11382226597E-01  0.44447185561E-01  0.51100000000E-03 0.  1.
</event>
<event>
 8    1  0.2025822E+004  0.1043930E+01  0.7957747E-01            NaN
         13   -1    0    0    0    0  0.00000000000E+00  0.00000000000E+00  0.74505805969E-08  0.10566000000E+00  0.10566000000E+00 0. -1.
     999900   -1    0    0    0    0 -0.00000000000E+00 -0.00000000000E+00 -0.74505805969E-08  0.93827000000E+00  0.93827000000E+00 0. -1.
     999902    2    1    2    0    0 -0.15821426874E-01 -0.29374030146E-02  0.73486862666E-02  0.10262396333E+01  0.10260871483E+01 0.  0.
     999903    2    3    3    0    0  0.33282123009E-02  0.25304244112E-01 -0.12569324819E+00  0.13558568497E+00  0.43969347963E-01 0.  0.
         14    1    1    2    0    0  0.15821426874E-01  0.29374030146E-02 -0.73486862666E-02  0.17690366719E-01  0.00000000000E+00 0. -1.
     999901    1    3    3    0    0 -0.19149639175E-01 -0.28241647126E-01  0.13304193446E+00  0.89065394831E+00  0.88000000000E+00 0.  1.
        -11    1    4    4    0    0  0.11976770605E-01  0.25761640783E-01 -0.37918993779E-01  0.47383714292E-01  0.51100000000E-03 0. -1.
         11    1    4    4    0    0 -0.86485583043E-02 -0.45739667079E-03 -0.87774254416E-01  0.88201970680E-01  0.51100000000E-03 0.  1.
</event>
<event>
 8    1  0.2084171E+004  0.1043930E+01  0.7957747E-01            NaN
         13   -1    0    0    0    0  0.00000000000E+00  0.00000000000E+00  0.74505805969E-08  0.10566000000E+00  0.10566000000E+00 0.  1.
     999900   -1    0    0    0    0 -0.00000000000E+00 -0.00000000000E+00 -0.74505805969E-08  0.93827000000E+00  0.93827000000E+00 0. -1.
     999902    2    1    2    0    0  0.57594599732E-02 -0.12738779176E-01 -0.92204791560E-03  0.10299193595E+01  0.10298240573E+01 0.  0.
     999903    2    3    3    0    0  0.72211557267E-01  0.43771357720E-01  0.10168206896E+00  0.13967395426E+00  0.45156722535E-01 0.  0.
         14    1    1    2    0    0 -0.57594599732E-02  0.12738779176E-01  0.92204791560E-03  0.14010640472E-01  0.00000000000E+00 0.  1.
     999901    1    3    3    0    0 -0.66452097294E-01 -0.56510136897E-01 -0.10260411687E+00  0.89024540527E+00  0.88000000000E+00 0. -1.
        -11    1    4    4    0    0  0.27461558250E-01 -0.44012962347E-02  0.44790132460E-01  0.52725000492E-01  0.51100000000E-03 0.  1.
         11    1    4    4    0    0  0.44749999018E-01  0.48172653955E-01  0.56891936499E-01  0.86948953764E-01  0.51100000000E-03 0. -1.
</event>
<event>
 8    1  0.2025822E+004  0.1043930E+01  0.7957747E-01            NaN
         13   -1    0    0    0    0  0.00000000000E+00  0.00000000000E+00  0.74505805969E-08  0.10566000000E+00  0.10566000000E+00 0.  1.
     999900   -1    0    0    0    0 -0.00000000000E+00 -0.00000000000E+00 -0.74505805969E-08  0.93827000000E+00  0.93827000000E+00 0. -1.
     999902    2    1    2    0    0  0.12303463296E-01 -0.40861925662E-02  0.25608359517E-02  0.10307152333E+01  0.10306305167E+01 0.  0.
     999903    2    3    3    0    0 -0.15215698273E-01 -0.41598088016E-01  0.12608347511E+00  0.14087126441E+00  0.44561777793E-01 0.  0.
         14    1    1    2    0    0 -0.12303463296E-01  0.40861925662E-02 -0.25608359517E-02  0.13214766723E-01  0.00000000000E+00 0.  1.
     999901    1    3    3    0    0  0.27519161569E-01  0.37511895450E-01 -0.12352263915E+00  0.88984396887E+00  0.88000000000E+00 0. -1.
        -11    1    4    4    0    0 -0.11991294427E-04 -0.11844353384E-01  0.93327712588E-01  0.94077690814E-01  0.51100000000E-03 0. -1.
         11    1    4    4    0    0 -0.15203706979E-01 -0.29753734632E-01  0.32755762517E-01  0.46793573592E-01  0.51100000000E-03 0.  1.
</event>
<event>
 8    1  0.2025822E+004  0.1043930E+01  0.7957747E-01            NaN
         13   -1    0    0    0    0  0.00000000000E+00  0.00000000000E+00  0.74505805969E-08  0.10566000000E+00  0.10566000000E+00 0. -1.
     999900   -1    0    0    0    0 -0.00000000000E+00 -0.00000000000E+00 -0.74505805969E-08  0.93827000000E+00  0.93827000000E+00 0.  1.
     999902    2    1    2    0    0 -0.78201679847E-02 -0.95433726168E-02 -0.69530468240E-02  0.10297675197E+01  0.10296701262E+01 0.  0.
     999903    2    3    3    0    0  0.16757792399E-01 -0.13024653970E+00 -0.27497555313E-01  0.14095066145E+00  0.43197091378E-01 0.  0.
         14    1    1    2    0    0  0.78201679847E-02  0.95433726168E-02  0.69530468240E-02  0.14162480304E-01  0.00000000000E+00 0. -1.
     999901    1    3    3    0    0 -0.24577960384E-01  0.12070316709E+00  0.20544508489E-01  0.88881685825E+00  0.88000000000E+00 0.  1.
        -11    1    4    4    0    0  0.14521689168E-01 -0.14028359615E-01  0.38412347439E-02  0.20559439077E-01  0.51100000000E-03 0.  1.
         11    1    4    4    0    0  0.22361032305E-02 -0.11621818009E+00 -0.31338790057E-01  0.12039122237E+00  0.51100000000E-03 0. -1.
</event>
<event>
 8    1  0.2025822E+004  0.1043930E+01  0.7957747E-01            NaN
         13   -1    0    0    0    0  0.00000000000E+00  0.00000000000E+00  0.74505805969E-08  0.10566000000E+00  0.10566000000E+00 0. -1.
     999900   -1    0    0    0    0 -0.00000000000E+00 -0.00000000000E+00 -0.74505805969E-08  0.93827000000E+00  0.93827000000E+00 0.  1.
     999902    2    1    2    0    0  0.91468433313E-02 -0.10141011299E-01  0.75576221745E-02  0.10283215886E+01  0.10282031254E+01 0.  0.
     999903    2    3    3    0    0 -0.89430511025E-01  0.16922816878E-01  0.93911144884E-01  0.13820537346E+00  0.44690313129E-01 0.  0.
         14    1    1    2    0    0 -0.91468433313E-02  0.10141011299E-01 -0.75576221745E-02  0.15608411387E-01  0.00000000000E+00 0.  1.
     999901    1    3    3    0    0  0.98577354356E-01 -0.27063828177E-01 -0.86353522709E-01  0.89011621515E+00  0.88000000000E+00 0.  1.
        -11    1    4    4    0    0 -0.22851150191E-01 -0.11162963751E-01  0.42463398775E-01  0.49499375564E-01  0.51100000000E-03 0. -1.
         11    1    4    4    0    0 -0.66579360834E-01  0.28085780628E-01  0.51447746109E-01  0.88705997899E-01  0.51100000000E-03 0.  1.
</event>
<event>
 8    1  0.2025822E+004  0.1043930E+01  0.7957747E-01            NaN
         13   -1    0    0    0    0  0.00000000000E+00  0.00000000000E+00  0.74505805969E-08  0.10566000000E+00  0.10566000000E+00 0. -1.
     999900   -1    0    0    0    0 -0.00000000000E+00 -0.00000000000E+00 -0.74505805969E-08  0.93827000000E+00  0.93827000000E+00 0. -1.
     999902    2    1    2    0    0  0.90858207410E-02  0.10053942380E-01 -0.12400905107E-02  0.10303222184E+01  0.10302323534E+01 0.  0.
     999903    2    3    3    0    0  0.13240718375E+00  0.12970162933E-02 -0.22035563251E-01  0.14143679607E+00  0.44558463534E-01 0.  0.
         14    1    1    2    0    0 -0.90858207410E-02 -0.10053942380E-01  0.12400905107E-02  0.13607781612E-01  0.00000000000E+00 0.  1.
     999901    1    3    3    0    0 -0.12332136301E+00  0.87569260867E-02  0.20795472740E-01  0.88888542232E+00  0.88000000000E+00 0. -1.
        -11    1    4    4    0    0  0.97050386940E-01  0.20498675506E-01 -0.11606940221E-01  0.99869692524E-01  0.51100000000E-03 0.  1.
         11    1    4    4    0    0  0.35356796815E-01 -0.19201659212E-01 -0.10428623030E-01  0.41567103542E-01  0.51100000000E-03 0. -1.
</event>
<event>
 8    1  0.2025822E+004  0.1043930E+01  0.7957747E-01            NaN
         13   -1    0    0    0    0  0.00000000000E+00  0.00000000000E+00  0.74505805969E-08  0.10566000000E+00  0.10566000000E+00 0.  1.
     999900   -1    0    0    0    0 -0.00000000000E+00 -0.00000000000E+00 -0.74505805969E-08  0.93827000000E+00  0.93827000000E+00 0.  1.
     999902    2    1    2    0    0 -0.78294283297E-02  0.84256024032E-02 -0.71566760228E-02  0.10303834604E+01  0.10302944078E+01 0.  0.
     999903    2    3    3    0    0  0.97461145962E-01 -0.55762850900E-01 -0.69627106751E-01  0.13959234161E+00  0.45054603863E-01 0.  0.
         14    1    1    2    0    0  0.78294283297E-02 -0.84256024032E-02  0.71566760228E-02  0.13546539614E-01  0.00000000000E+00 0.  1.
     999901    1    3    3    0    0 -0.10529057429E+00  0.64188453303E-01  0.62470430728E-01  0.89079111877E+00  0.88000000000E+00 0. -1.
        -11    1    4    4    0    0  0.84700858260E-01 -0.38424135099E-01 -0.72417887685E-01  0.11787816221E+00  0.51100000000E-03 0.  1.
         11    1    4    4    0    0  0.12760287702E-01 -0.17338715801E-01  0.27907809342E-02  0.21714179401E-01  0.51100000000E-03 0. -1.
</event>
<event>
 8    1  0.2025822E+004  0.1043930E+01  0.7957747E-01            NaN
         13   -1    0    0    0    0  0.00000000000E+00  0.00000000000E+00  0.74505805969E-08  0.10566000000E+00  0.10566000000E+00 0.  1.
     999900   -1    0    0    0    0 -0.00000000000E+00 -0.00000000000E+00 -0.74505805969E-08  0.93827000000E+00  0.93827000000E+00 0. -1.
     999902    2    1    2    0    0  0.12712507855E-02 -0.13109879566E-01  0.44300002879E-02  0.10300336003E+01  0.10299398565E+01 0.  0.
     999903    2    3    3    0    0  0.82771532817E-01 -0.10570811160E+00 -0.15530629586E-02  0.14140964974E+00  0.44372801708E-01 0.  0.
         14    1    1    2    0    0 -0.12712507855E-02  0.13109879566E-01 -0.44300002879E-02  0.13896399654E-01  0.00000000000E+00 0. -1.
     999901    1    3    3    0    0 -0.81500282031E-01  0.92598232036E-01  0.59830632465E-02  0.88862395061E+00  0.88000000000E+00 0.  1.
        -11    1    4    4    0    0  0.98096780612E-02 -0.21661411930E-01 -0.16731545780E-01  0.29080101369E-01  0.51100000000E-03 0.  1.
         11    1    4    4    0    0  0.72961854756E-01 -0.84046699672E-01  0.15178482822E-01  0.11232954837E+00  0.51100000000E-03 0. -1.
</event>
<event>
 8    1  0.2025822E+004  0.1043930E+01  0.7957747E-01            NaN
         13   -1    0    0    0    0  0.00000000000E+00  0.00000000000E+00  0.74505805969E-08  0.10566000000E+00  0.10566000000E+00 0.  1.
     999900   -1    0    0    0    0 -0.00000000000E+00 -0.00000000000E+00 -0.74505805969E-08  0.93827000000E+00  0.93827000000E+00 0.  1.
     999902    2    1    2    0    0 -0.65078392847E-02 -0.34847002940E-03 -0.98062342010E-02  0.10321556366E+01  0.10320884761E+01 0.  0.
     999903    2    3    3    0    0 -0.59435007148E-01  0.69799994841E-01  0.97545261235E-01  0.14128727610E+00  0.45193550916E-01 0.  0.
         14    1    1    2    0    0  0.65078392847E-02  0.34847002940E-03  0.98062342010E-02  0.11774363368E-01  0.00000000000E+00 0.  1.
     999901    1    3    3    0    0  0.52927167863E-01 -0.70148464871E-01 -0.10735149544E+00  0.89086836053E+00  0.88000000000E+00 0.  1.
        -11    1    4    4    0    0 -0.18858614941E-01  0.54298970227E-01  0.66464077267E-01  0.87873546721E-01  0.51100000000E-03 0. -1.
         11    1    4    4    0    0 -0.40576392207E-01  0.15501024614E-01  0.31081183967E-01  0.53413729381E-01  0.51100000000E-03 0.  1.
</event>
<event>
 8    1  0.2025822E+004  0.1043930E+01  0.7957747E-01            NaN
         13   -1    0    0    0    0  0.00000000000E+00  0.00000000000E+00  0.74505805969E-08  0.10566000000E+00  0.10566000000E+00 0. -1.
     999900   -1    0    0    0    0 -0.00000000000E+00 -0.00000000000E+00 -0.74505805969E-08  0.93827000000E+00  0.93827000000E+00 0.  1.
     999902    2    1    2    0    0  0.21417809040E-02 -0.46382961777E-02 -0.99236607018E-02  0.10327684563E+01  0.10327081409E+01 0.  0.
     999903    2    3    3    0    0  0.10659286892E-01  0.12872596688E+00 -0.40274869398E-01  0.14216205025E+00  0.43634716448E-01 0.  0.
         14    1    1    2    0    0 -0.21417809040E-02  0.46382961777E-02  0.99236607018E-02  0.11161543737E-01  0.00000000000E+00 0. -1.
     999901    1    3    3    0    0 -0.85175059885E-02 -0.13336426306E+00  0.30351208697E-01  0.89060640602E+00  0.88000000000E+00 0.  1.
        -11    1    4    4    0    0 -0.24140159019E-03  0.57773388608E-01  0.38400659418E-02  0.57903626255E-01  0.51100000000E-03 0. -1.
         11    1    4    4    0    0  0.10900688483E-01  0.70952578269E-01 -0.44114935340E-01  0.84258423992E-01  0.51100000000E-03 0.  1.
</event>
<event>
 8    1  0.2025822E+004  0.1043930E+01  0.7957747E-01            NaN
         13   -1    0    0    0    0  0.00000000000E+00  0.00000000000E+00  0.74505805969E-08  0.10566000000E+00  0.10566000000E+00 0. -1.
     999900   -1    0    0    0    0 -0.00000000000E+00 -0.00000000000E+00 -0.74505805969E-08  0.93827000000E+00  0.93827000000E+00 0. -1.
     999902    2    1    2    0    0  0.51426674228E-02 -0.85525659551E-02  0.91339725542E-02  0.10304014056E+01  0.10303125903E+01 0.  0.
     999903    2    3    3    0    0 -0.59813648496E-01 -0.36891361069E-01  0.11519647299E+00  0.14120420344E+00  0.41590318720E-01 0.  0.
         14    1    1    2    0    0 -0.51426674228E-02  0.85525659551E-02 -0.91339725542E-02  0.13528594430E-01  0.00000000000E+00 0.  1.
     999901    1    3    3    0    0  0.64956315919E-01  0.28338795114E-01 -0.10606250043E+00  0.88919720213E+00  0.88000000000E+00 0. -1.
        -11    1    4    4    0    0 -0.58292300997E-01 -0.34328825687E-01  0.75431308014E-01  0.10132425168E+00  0.51100000000E-03 0. -1.
         11    1    4    4    0    0 -0.15213474997E-02 -0.25625353816E-02  0.39765164972E-01  0.39879951756E-01  0.51100000000E-03 0.  1.
</event>
<event>
 8    1  0.2025822E+004  0.1043930E+01  0.7957747E-01            NaN
         13   -1    0    0    0    0  0.00000000000E+00  0.00000000000E+00  0.74505805969E-08  0.10566000000E+00  0.10566000000E+00 0.  1.
     999900   -1    0    0    0    0 -0.00000000000E+00 -0.00000000000E+00 -0.74505805969E-08  0.93827000000E+00  0.93827000000E+00 0. -1.
     999902    2    1    2    0    0 -0.58876087067E-02 -0.54611929314E-02  0.11001072567E-01  0.10303097150E+01  0.10302196837E+01 0.  0.
     999903    2    3    3    0    0 -0.67342159380E-01  0.11436422081E+00 -0.16958060714E-02  0.13997494526E+00  0.44451862829E-01 0.  0.
         14    1    1    2    0    0  0.58876087067E-02  0.54611929314E-02 -0.11001072567E-01  0.13620284951E-01  0.00000000000E+00 0. -1.
     999901    1    3    3    0    0  0.61454550673E-01 -0.11982541374E+00  0.12696878638E-01  0.89033476979E+00  0.88000000000E+00 0. -1.
        -11    1    4    4    0    0 -0.22321858568E-01  0.11599003623E-01 -0.10863339382E-01  0.27405757032E-01  0.51100000000E-03 0.  1.
         11    1    4    4    0    0 -0.45020300811E-01  0.10276521719E+00  0.91675333105E-02  0.11256918822E+00  0.51100000000E-03 0. -1.
</event>
<event>
 8    1  0.2025822E+004  0.1043930E+01  0.7957747E-01            NaN
         13   -1    0    0    0    0  0.00000000000E+00  0.00000000000E+00  0.74505805969E-08  0.10566000000E+00  0.10566000000E+00 0. -1.
     999900   -1    0    0    0    0 -0.00000000000E+00 -0.00000000000E+00 -0.74505805969E-08  0.93827000000E+00  0.93827000000E+00 0. -1.
     999902    2    1    2    0    0  0.78412573532E-03  0.11176423826E-01 -0.53337195952E-02  0.10315212987E+01  0.10314466607E+01 0.  0.
     999903    2    3    3    0    0  0.10308680544E-01  0.14561343595E-01 -0.13355517615E+00  0.14217158306E+00  0.45359368739E-01 0.  0.
         14    1    1    2    0    0 -0.78412573532E-03 -0.11176423826E-01  0.53337195952E-02  0.12408701279E-01  0.00000000000E+00 0. -1.
     999901    1    3    3    0    0 -0.95245548084E-02 -0.33849197684E-02  0.12822145655E+00  0.88934971566E+00  0.88000000000E+00 0.  1.
        -11    1    4    4    0    0 -0.15756618664E-01  0.56806987330E-02 -0.82268246836E-01  0.83957530503E-01  0.51100000000E-03 0.  1.
         11    1    4    4    0    0  0.26065299207E-01  0.88806448619E-02 -0.51286929311E-01  0.58214052556E-01  0.51100000000E-03 0. -1.
</event>
<event>
 8    1  0.2025822E+004  0.1043930E+01  0.7957747E-01            NaN
         13   -1    0    0    0    0  0.00000000000E+00  0.00000000000E+00  0.74505805969E-08  0.10566000000E+00  0.10566000000E+00 0.  1.
     999900   -1    0    0    0    0 -0.00000000000E+00 -0.00000000000E+00 -0.74505805969E-08  0.93827000000E+00  0.93827000000E+00 0. -1.
     999902    2    1    2    0    0 -0.38385057597E-02  0.13174005672E-01 -0.22054322432E-01  0.10179553645E+01  0.10176239199E+01 0.  0.
     999903    2    3    3    0    0  0.19422249427E-02  0.10579236548E+00  0.59307047285E-01  0.12934338511E+00  0.44906442547E-01 0.  0.
         14    1    1    2    0    0  0.38385057597E-02 -0.13174005672E-01  0.22054322432E-01  0.25974635510E-01  0.00000000000E+00 0.  1.
     999901    1    3    3    0    0 -0.57807307024E-02 -0.92618359806E-01 -0.81361369718E-01  0.88861197938E+00  0.88000000000E+00 0. -1.
        -11    1    4    4    0    0  0.19112098654E-01  0.40247247590E-01  0.10335579425E-01  0.45740557240E-01  0.51100000000E-03 0.  1.
         11    1    4    4    0    0 -0.17169873711E-01  0.65545117887E-01  0.48971467860E-01  0.83602827868E-01  0.51100000000E-03 0. -1.
</event>
<event>
 8    1  0.2025822E+004  0.1043930E+01  0.7957747E-01            NaN
         13   -1    0    0    0    0  0.00000000000E+00  0.00000000000E+00  0.74505805969E-08  0.10566000000E+00  0.10566000000E+00 0. -1.
     999900   -1    0    0    0    0 -0.00000000000E+00 -0.00000000000E+00 -0.74505805969E-08  0.93827000000E+00  0.93827000000E+00 0. -1.
     999902    2    1    2    0    0  0.79489338375E-02  0.98364579978E-02  0.29630657323E-02  0.10309407270E+01  0.10308588950E+01 0.  0.
     999903    2    3    3    0    0  0.47592886097E-01  0.51707827385E-01  0.11451812482E+00  0.14202600343E+00  0.46023934193E-01 0.  0.
         14    1    1    2    0    0 -0.79489338375E-02 -0.98364579978E-02 -0.29630657323E-02  0.12989273022E-01  0.00000000000E+00 0. -1.
     999901    1    3    3    0    0 -0.39643952260E-01 -0.41871369387E-01 -0.11155505909E+00  0.88891472354E+00  0.88000000000E+00 0. -1.
        -11    1    4    4    0    0  0.41063149051E-01  0.11307517975E-01  0.50782656714E-01  0.66281079628E-01  0.51100000000E-03 0. -1.
         11    1    4    4    0    0  0.65297370464E-02  0.40400309410E-01  0.63735468109E-01  0.75744923806E-01  0.51100000000E-03 0.  1.
</event>
<event>
 8    1  0.2025822E+004  0.1043930E+01  0.7957747E-01            NaN
         13   -1    0    0    0    0  0.00000000000E+00  0.00000000000E+00  0.74505805969E-08  0.10566000000E+00  0.10566000000E+00 0.  1.
     999900   -1    0    0    0    0 -0.00000000000E+00 -0.00000000000E+00 -0.74505805969E-08  0.93827000000E+00  0.93827000000E+00 0. -1.
     999902    2    1    2    0    0 -0.81230309818E-02  0.76463358868E-02 -0.67884514054E-02  0.10308711655E+01  0.10307884491E+01 0.  0.
     999903    2    3    3    0    0 -0.20408616980E-02 -0.12284188130E+00 -0.49921969053E-01  0.14018341557E+00  0.45441105712E-01 0.  0.
         14    1    1    2    0    0  0.81230309818E-02 -0.76463358868E-02  0.67884514054E-02  0.13058834454E-01  0.00000000000E+00 0.  1.
     999901    1    3    3    0    0 -0.60821692837E-02  0.13048821719E+00  0.43133517647E-01  0.89068774997E+00  0.88000000000E+00 0.  1.
        -11    1    4    4    0    0 -0.55826524411E-02 -0.77652393270E-01 -0.76986357051E-02  0.78234201610E-01  0.51100000000E-03 0. -1.
         11    1    4    4    0    0  0.35417907431E-02 -0.45189488035E-01 -0.42223333348E-01  0.61949213962E-01  0.51100000000E-03 0.  1.
</event>
<event>
 8    1  0.2025822E+004  0.1043930E+01  0.7957747E-01            NaN
         13   -1    0    0    0    0  0.00000000000E+00  0.00000000000E+00  0.74505805969E-08  0.10566000000E+00  0.10566000000E+00 0. -1.
     999900   -1    0    0    0    0 -0.00000000000E+00 -0.00000000000E+00 -0.74505805969E-08  0.93827000000E+00  0.93827000000E+00 0. -1.
     999902    2    1    2    0    0  0.10775379163E-01  0.10350280451E-03 -0.90570997959E-02  0.10298534036E+01  0.10297571958E+01 0.  0.
     999903    2    3    3    0    0  0.14511168188E-02  0.13022233907E+00  0.21889432213E-01  0.13969861862E+00  0.45569655124E-01 0.  0.
         14    1    1    2    0    0 -0.10775379163E-01 -0.10350280451E-03  0.90570997959E-02  0.14076596380E-01  0.00000000000E+00 0.  1.
     999901    1    3    3    0    0  0.93242623440E-02 -0.13011883627E+00 -0.30946532009E-01  0.89015478500E+00  0.88000000000E+00 0.  1.
        -11    1    4    4    0    0  0.11934439465E-01  0.26328487237E-01 -0.98750831801E-02  0.30551570735E-01  0.51100000000E-03 0.  1.
         11    1    4    4    0    0 -0.10483322646E-01  0.10389385183E+00  0.31764515393E-01  0.10914704788E+00  0.51100000000E-03 0. -1.
</event>
<event>
 8    1  0.2025822E+004  0.1043930E+01  0.7957747E-01            NaN
         13   -1    0    0    0    0  0.00000000000E+00  0.00000000000E+00  0.74505805969E-08  0.10566000000E+00  0.10566000000E+00 0. -1.
     999900   -1    0    0    0    0 -0.00000000000E+00 -0.00000000000E+00 -0.74505805969E-08  0.93827000000E+00  0.93827000000E+00 0.  1.
     999902    2    1    2    0    0 -0.12310508458E-01 -0.67877864098E-02 -0.10044489003E-02  0.10298363284E+01  0.10297398854E+01 0.  0.
     999903    2    3    3    0    0 -0.61209078227E-01 -0.22645422615E-01 -0.11595559491E+00  0.14087271790E+00  0.46260741825E-01 0.  0.
         14    1    1    2    0    0  0.12310508458E-01  0.67877864098E-02  0.10044489003E-02  0.14093671645E-01  0.00000000000E+00 0. -1.
     999901    1    3    3    0    0  0.48898569769E-01  0.15857636205E-01  0.11495114601E+00  0.88896361046E+00  0.88000000000E+00 0. -1.
        -11    1    4    4    0    0  0.64668076428E-02 -0.83508093742E-02 -0.11846696830E-01  0.15879576980E-01  0.51100000000E-03 0. -1.
         11    1    4    4    0    0 -0.67675885870E-01 -0.14294613241E-01 -0.10410889808E+00  0.12499314092E+00  0.51100000000E-03 0.  1.
</event>
<event>
 8    1  0.2025822E+004  0.1043930E+01  0.7957747E-01            NaN
         13   -1    0    0    0    0  0.00000000000E+00  0.00000000000E+00  0.74505805969E-08  0.10566000000E+00  0.10566000000E+00 0. -1.
     999900   -1    0    0    0    0 -0.00000000000E+00 -0.00000000000E+00 -0.74505805969E-08  0.93827000000E+00  0.93827000000E+00 0.  1.
     999902    2    1    2    0    0  0.50164815177E-02  0.99949060409E-02  0.75463749964E-02  0.10304388544E+01  0.10303505334E+01 0.  0.
     999903    2    3    3    0    0 -0.11356554834E-01 -0.16160679618E-01  0.13221948248E+00  0.14111575525E+00  0.45183248316E-01 0.  0.
         14    1    1    2    0    0 -0.50164815177E-02 -0.99949060409E-02 -0.75463749964E-02  0.13491145584E-01  0.00000000000E+00 0.  1.
     999901    1    3    3    0    0  0.16373036352E-01  0.26155585659E-01 -0.12467310749E+00  0.88932309917E+00  0.88000000000E+00 0.  1.
        -11    1    4    4    0    0 -0.24822776791E-01  0.26735678909E-02  0.83824521688E-01  0.87465020266E-01  0.51100000000E-03 0. -1.
         11    1    4    4    0    0  0.13466221957E-01 -0.18834247509E-01  0.48394960795E-01  0.53650734984E-01  0.51100000000E-03 0.  1.
</event>
<event>
 8    1  0.2025822E+004  0.1043930E+01  0.7957747E-01            NaN
         13   -1    0    0    0    0  0.00000000000E+00  0.00000000000E+00  0.74505805969E-08  0.10566000000E+00  0.10566000000E+00 0.  1.
     999900   -1    0    0    0    0 -0.00000000000E+00 -0.00000000000E+00 -0.74505805969E-08  0.93827000000E+00  0.93827000000E+00 0. -1.
     999902    2    1    2    0    0 -0.69640955707E-02  0.20677716505E-03 -0.15382700382E-01  0.10270430567E+01  0.10269042172E+01 0.  0.
     999903    2    3    3    0    0 -0.20403179005E-01  0.84163031477E-01 -0.99053623282E-01  0.13899458674E+00  0.44812601778E-01 0.  0.
         14    1    1    2    0    0  0.69640955707E-02 -0.20677716505E-03  0.15382700382E-01  0.16886943328E-01  0.00000000000E+00 0.  1.
     999901    1    3    3    0    0  0.13439083434E-01 -0.83956254312E-01  0.83670922900E-01  0.88804846993E+00  0.88000000000E+00 0.  1.
        -11    1    4    4    0    0 -0.81095945425E-02  0.49115168188E-03 -0.25982914898E-01  0.27228289355E-01  0.51100000000E-03 0.  1.
         11    1    4    4    0    0 -0.12293584462E-01  0.83671879795E-01 -0.73070708384E-01  0.11176629739E+00  0.51100000000E-03 0. -1.
</event>
<event>
 8    1  0.2025822E+004  0.1043930E+01  0.7957747E-01            NaN
         13   -1    0    0    0    0  0.00000000000E+00  0.00000000000E+00  0.74505805969E-08  0.10566000000E+00  0.10566000000E+00 0. -1.
     999900   -1    0    0    0    0 -0.00000000000E+00 -0.00000000000E+00 -0.74505805969E-08  0.93827000000E+00  0.93827000000E+00 0.  1.
     999902    2    1    2    0    0 -0.89432170889E-02 -0.97938174458E-02 -0.19852995337E-02  0.10305195039E+01  0.10304322425E+01 0.  0.
     999903    2    3    3    0    0  0.12028023764E+00 -0.44112372263E-01  0.33771258086E-01  0.13970246550E+00  0.44306252839E-01 0.  0.
         14    1    1    2    0    0  0.89432170889E-02  0.97938174458E-02  0.19852995337E-02  0.13410496124E-01  0.00000000000E+00 0.  1.
     999901    1    3    3    0    0 -0.12922345472E+00  0.34318554817E-01 -0.35756557620E-01  0.89081703838E+00  0.88000000000E+00 0. -1.
        -11    1    4    4    0    0  0.34522792503E-01 -0.19758414268E-01 -0.90573161481E-02  0.40798458713E-01  0.51100000000E-03 0. -1.
         11    1    4    4    0    0  0.85757445132E-01 -0.24353957995E-01  0.42828574235E-01  0.98904006782E-01  0.51100000000E-03 0.  1.
</event>
<event>
 8    1  0.2025822E+004  0.1043930E+01  0.7957747E-01            NaN
         13   -1    0    0    0    0  0.00000000000E+00  0.00000000000E+00  0.74505805969E-08  0.10566000000E+00  0.10566000000E+00 0. -1.
     999900   -1    0    0    0    0 -0.00000000000E+00 -0.00000000000E+00 -0.74505805969E-08  0.93827000000E+00  0.93827000000E+00 0.  1.
     999902    2    1    2    0    0  0.43926356980E-02  0.23478599034E-02 -0.12433746190E-01  0.10305357573E+01  0.10304487087E+01 0.  0.
     999903    2    3    3    0    0  0.84327086358E-01 -0.83990202496E-01 -0.61549892448E-01  0.14134726585E+00  0.45002763173E-01 0.  0.
         14    1    1    2    0    0 -0.43926356980E-02 -0.23478599034E-02  0.12433746190E-01  0.13394242749E-01  0.00000000000E+00 0. -1.
     999901    1    3    3    0    0 -0.79934450660E-01  0.86338062400E-01  0.49116146258E-01  0.88918849140E+00  0.88000000000E+00 0. -1.
        -11    1    4    4    0    0 -0.47506571325E-02 -0.91275119630E-03 -0.52538918033E-02  0.71600529341E-02  0.51100000000E-03 0. -1.
         11    1    4    4    0    0  0.89077743491E-01 -0.83077451300E-01 -0.56296000644E-01  0.13418721291E+00  0.51100000000E-03 0.  1.
</event>
<event>
 8    1  0.2025822E+004  0.1043930E+01  0.7957747E-01            NaN
         13   -1    0    0    0    0  0.00000000000E+00  0.00000000000E+00  0.74505805969E-08  0.10566000000E+00  0.10566000000E+00 0. -1.
     999900   -1    0    0    0    0 -0.00000000000E+00 -0.00000000000E+00 -0.74505805969E-08  0.93827000000E+00  0.93827000000E+00 0.  1.
     999902    2    1    2    0    0 -0.98115500017E-02  0.59244745627E-02 -0.81052634262E-02  0.10298921509E+01  0.10297964757E+01 0.  0.
     999903    2    3    3    0    0 -0.73520220739E-01 -0.10744106657E+00 -0.21716450076E-01  0.14023165102E+00  0.47376218701E-01 0.  0.
         14    1    1    2    0    0  0.98115500017E-02 -0.59244745627E-02  0.81052634262E-02  0.14037849105E-01  0.00000000000E+00 0.  1.
     999901    1    3    3    0    0  0.63708670738E-01  0.11336554114E+00  0.13611186649E-01  0.88966049988E+00  0.88000000000E+00 0. -1.
        -11    1    4    4    0    0 -0.58782281330E-01 -0.89303502980E-01  0.19973320697E-02  0.10693326283E+00  0.51100000000E-03 0. -1.
         11    1    4    4    0    0 -0.14737939409E-01 -0.18137563595E-01 -0.23713782145E-01  0.33298388186E-01  0.51100000000E-03 0.  1.
</event>
<event>
 8    1  0.2025822E+004  0.1043930E+01  0.7957747E-01            NaN
         13   -1    0    0    0    0  0.00000000000E+00  0.00000000000E+00  0.74505805969E-08  0.10566000000E+00  0.10566000000E+00 0. -1.
     999900   -1    0    0    0    0 -0.00000000000E+00 -0.00000000000E+00 -0.74505805969E-08  0.93827000000E+00  0.93827000000E+00 0.  1.
     999902    2    1    2    0    0  0.10445319762E-03 -0.11175205634E-01 -0.79277489633E-02  0.10302279806E+01  0.10301368582E+01 0.  0.
     999903    2    3    3    0    0  0.27308590908E-01  0.12814604058E+00 -0.30903795338E-02  0.13883924674E+00  0.45821601176E-01 0.  0.
         14    1    1    2    0    0 -0.10445319762E-03  0.11175205634E-01  0.79277489633E-02  0.13702019379E-01  0.00000000000E+00 0. -1.
     999901    1    3    3    0    0 -0.27204137711E-01 -0.13932124622E+00 -0.48373694295E-02  0.89138873389E+00  0.88000000000E+00 0. -1.
        -11    1    4    4    0    0  0.23898670336E-01  0.12867864383E+00 -0.98314416212E-02  0.13124884071E+00  0.51100000000E-03 0. -1.
         11    1    4    4    0    0  0.34099205726E-02 -0.53260325290E-03  0.67410620874E-02  0.75904060235E-02  0.51100000000E-03 0.  1.
</event>
<event>
 8    1  0.2025822E+004  0.1043930E+01  0.7957747E-01            NaN
         13   -1    0    0    0    0  0.00000000000E+00  0.00000000000E+00  0.74505805969E-08  0.10566000000E+00  0.10566000000E+00 0. -1.
     999900   -1    0    0    0    0 -0.00000000000E+00 -0.00000000000E+00 -0.74505805969E-08  0.93827000000E+00  0.93827000000E+00 0. -1.
     999902    2    1    2    0    0 -0.63194681650E-02 -0.22026458515E-02 -0.11561201753E-01  0.10305715303E+01  0.10304849491E+01 0.  0.
     999903    2    3    3    0    0 -0.43365495082E-01 -0.31148722633E-01 -0.12405150790E+00  0.14216601904E+00  0.44402604346E-01 0.  0.
         14    1    1    2    0    0  0.63194681650E-02  0.22026458515E-02  0.11561201753E-01  0.13358469696E-01  0.00000000000E+00 0. -1.
     999901    1    3    3    0    0  0.37046026917E-01  0.28946076781E-01  0.11249030614E+00  0.88840551127E+00  0.88000000000E+00 0.  1.
        -11    1    4    4    0    0  0.10445878514E-02 -0.18508136083E-01 -0.62660158103E-01  0.65346758141E-01  0.51100000000E-03 0. -1.
         11    1    4    4    0    0 -0.44410082933E-01 -0.12640586550E-01 -0.61391349793E-01  0.76819260898E-01  0.51100000000E-03 0.  1.
</event>
<event>
 8    1  0.2025822E+004  0.1043930E+01  0.7957747E-01            NaN
         13   -1    0    0    0    0  0.00000000000E+00  0.00000000000E+00  0.74505805969E-08  0.10566000000E+00  0.10566000000E+00 0. -1.
     999900   -1    0    0    0    0 -0.00000000000E+00 -0.00000000000E+00 -0.74505805969E-08  0.93827000000E+00  0.93827000000E+00 0.  1.
     999902    2    1    2    0    0  0.92300574973E-02 -0.31629524774E-03 -0.77630785470E-02  0.10318652003E+01  0.10317946657E+01 0.  0.
     999903    2    3    3    0    0  0.17330485833E-02  0.26586248660E-01 -0.13227262708E+00  0.14266186037E+00  0.46330621115E-01 0.  0.
         14    1    1    2    0    0 -0.92300574973E-02  0.31629524774E-03  0.77630785470E-02  0.12064799734E-01  0.00000000000E+00 0. -1.
     999901    1    3    3    0    0  0.74970089140E-02 -0.26902543908E-01  0.12450954854E+00  0.88920333990E+00  0.88000000000E+00 0. -1.
        -11    1    4    4    0    0 -0.16600412289E-01  0.26666711788E-01 -0.10644788283E+00  0.11098693655E+00  0.51100000000E-03 0.  1.
         11    1    4    4    0    0  0.18333460872E-01 -0.80463127881E-04 -0.25824744255E-01  0.31674923815E-01  0.51100000000E-03 0. -1.
</event>
<event>
 8    1  0.2025822E+004  0.1043930E+01  0.7957747E-01            NaN
         13   -1    0    0    0    0  0.00000000000E+00  0.00000000000E+00  0.74505805969E-08  0.10566000000E+00  0.10566000000E+00 0. -1.
     999900   -1    0    0    0    0 -0.00000000000E+00 -0.00000000000E+00 -0.74505805969E-08  0.93827000000E+00  0.93827000000E+00 0.  1.
     999902    2    1    2    0    0  0.10234027080E-01  0.52265620651E-02  0.24451035159E-02  0.10321813493E+01  0.10321144835E+01 0.  0.
     999903    2    3    3    0    0 -0.80033618004E-01 -0.63455544854E-01 -0.86745934427E-01  0.14042997097E+00  0.41996826357E-01 0.  0.
         14    1    1    2    0    0 -0.10234027080E-01 -0.52265620651E-02 -0.24451035159E-02  0.11748650667E-01  0.00000000000E+00 0.  1.
     999901    1    3    3    0    0  0.90267645084E-01  0.68682106919E-01  0.89191037943E-01  0.89175137836E+00  0.88000000000E+00 0. -1.
        -11    1    4    4    0    0 -0.37041279762E-02 -0.20229375315E-01 -0.28435711573E-01  0.35096994221E-01  0.51100000000E-03 0. -1.
         11    1    4    4    0    0 -0.76329490028E-01 -0.43226169540E-01 -0.58310222854E-01  0.10533297675E+00  0.51100000000E-03 0.  1.
</event>
<event>
 8    1  0.2025822E+004  0.1043930E+01  0.7957747E-01            NaN
         13   -1    0    0    0    0  0.00000000000E+00  0.00000000000E+00  0.74505805969E-08  0.10566000000E+00  0.10566000000E+00 0. -1.
     999900   -1    0    0    0    0 -0.00000000000E+00 -0.00000000000E+00 -0.74505805969E-08  0.93827000000E+00  0.93827000000E+00 0.  1.
     999902    2    1    2    0    0 -0.12181216046E-01 -0.95457713282E-03  0.82623103403E-02  0.10291801182E+01  0.10290744174E+01 0.  0.
     999903    2    3    3    0    0 -0.97201442352E-01  0.48882672977E-01  0.77976332449E-01  0.14093902744E+00  0.44111958937E-01 0.  0.
         14    1    1    2    0    0  0.12181216046E-01  0.95457713282E-03 -0.82623103403E-02  0.14749881831E-01  0.00000000000E+00 0.  1.
     999901    1    3    3    0    0  0.85020226306E-01 -0.49837250110E-01 -0.69714022109E-01  0.88824109073E+00  0.88000000000E+00 0.  1.
        -11    1    4    4    0    0 -0.28384962953E-01  0.24349336189E-01  0.51025855793E-02  0.37747765434E-01  0.51100000000E-03 0.  1.
         11    1    4    4    0    0 -0.68816479399E-01  0.24533336788E-01  0.72873746869E-01  0.10319126201E+00  0.51100000000E-03 0. -1.
</event>
<event>
 8    1  0.2025822E+004  0.1043930E+01  0.7957747E-01            NaN
         13   -1    0    0    0    0  0.00000000000E+00  0.00000000000E+00  0.74505805969E-08  0.10566000000E+00  0.10566000000E+00 0. -1.
     999900   -1    0    0    0    0 -0.00000000000E+00 -0.00000000000E+00 -0.74505805969E-08  0.93827000000E+00  0.93827000000E+00 0.  1.
     999902    2    1    2    0    0 -0.94650623771E-02 -0.26818699704E-02 -0.10585060673E-01  0.10294792788E+01  0.10293778520E+01 0.  0.
     999903    2    3    3    0    0 -0.11799969979E+00 -0.32277254966E-01 -0.53589847729E-01  0.14127599916E+00  0.46057418735E-01 0.  0.
         14    1    1    2    0    0  0.94650623771E-02  0.26818699704E-02  0.10585060673E-01  0.14450721151E-01  0.00000000000E+00 0.  1.
     999901    1    3    3    0    0  0.10853463742E+00  0.29595384996E-01  0.43004787056E-01  0.88820327968E+00  0.88000000000E+00 0. -1.
        -11    1    4    4    0    0 -0.70056941521E-01  0.33851006788E-02 -0.36797631091E-01  0.79207075042E-01  0.51100000000E-03 0.  1.
         11    1    4    4    0    0 -0.47942758274E-01 -0.35662355645E-01 -0.16792216638E-01  0.62068924122E-01  0.51100000000E-03 0. -1.
</event>
<event>
 8    1  0.2025822E+004  0.1043930E+01  0.7957747E-01            NaN
         13   -1    0    0    0    0  0.00000000000E+00  0.00000000000E+00  0.74505805969E-08  0.10566000000E+00  0.10566000000E+00 0. -1.
     999900   -1    0    0    0    0 -0.00000000000E+00 -0.00000000000E+00 -0.74505805969E-08  0.93827000000E+00  0.93827000000E+00 0.  1.
     999902    2    1    2    0    0 -0.95891111135E-02 -0.64315387208E-02 -0.81246500576E-02  0.10298117253E+01  0.10297149430E+01 0.  0.
     999903    2    3    3    0    0 -0.10545567320E+00 -0.78821148547E-01  0.26492573802E-01  0.14097596683E+00  0.42879998697E-01 0.  0.
         14    1    1    2    0    0  0.95891111135E-02  0.64315387208E-02  0.81246500576E-02  0.14118274711E-01  0.00000000000E+00 0. -1.
     999901    1    3    3    0    0  0.95866562082E-01  0.72389609826E-01 -0.34617223859E-01  0.88883575846E+00  0.88000000000E+00 0.  1.
        -11    1    4    4    0    0 -0.62252420382E-01 -0.63135176386E-01  0.32885183529E-01  0.94568021854E-01  0.51100000000E-03 0.  1.
         11    1    4    4    0    0 -0.43203252813E-01 -0.15685972161E-01 -0.63926097275E-02  0.46407944971E-01  0.51100000000E-03 0. -1.
</event>
<event>
 8    1  0.2025822E+004  0.1043930E+01  0.7957747E-01            NaN
         13   -1    0    0    0    0  0.00000000000E+00  0.00000000000E+00  0.74505805969E-08  0.10566000000E+00  0.10566000000E+00 0. -1.
     999900   -1    0    0    0    0 -0.00000000000E+00 -0.00000000000E+00 -0.74505805969E-08  0.93827000000E+00  0.93827000000E+00 0.  1.
     999902    2    1    2    0    0  0.76014536303E-02  0.11389236969E-01 -0.43284713055E-02  0.10295692034E+01  0.10294690438E+01 0.  0.
     999903    2    3    3    0    0 -0.85681230146E-01  0.10003391286E+00  0.13779195863E-01  0.14002582316E+00  0.45489647107E-01 0.  0.
         14    1    1    2    0    0 -0.76014536303E-02 -0.11389236969E-01  0.43284713055E-02  0.14360796631E-01  0.00000000000E+00 0. -1.
     999901    1    3    3    0    0  0.93282683776E-01 -0.88644675886E-01 -0.18107667169E-01  0.88954338020E+00  0.88000000000E+00 0.  1.
        -11    1    4    4    0    0 -0.59058838257E-01  0.71745164552E-01  0.30395084210E-01  0.97772374820E-01  0.51100000000E-03 0.  1.
         11    1    4    4    0    0 -0.26622391889E-01  0.28288748303E-01 -0.16615888347E-01  0.42253448344E-01  0.51100000000E-03 0. -1.
</event>
<event>
 8    1  0.2025822E+004  0.1043930E+01  0.7957747E-01            NaN
         13   -1    0    0    0    0  0.00000000000E+00  0.00000000000E+00  0.74505805969E-08  0.10566000000E+00  0.10566000000E+00 0. -1.
     999900   -1    0    0    0    0 -0.00000000000E+00 -0.00000000000E+00 -0.74505805969E-08  0.93827000000E+00  0.93827000000E+00 0.  1.
     999902    2    1    2    0    0  0.45479819340E-02 -0.13365226003E-01  0.49305544322E-02  0.10289759446E+01  0.10288672756E+01 0.  0.
     999903    2    3    3    0    0  0.49370470639E-01 -0.34737132572E-01 -0.11691939037E+00  0.13919326162E+00  0.45392824182E-01 0.  0.
         14    1    1    2    0    0 -0.45479819340E-02  0.13365226003E-01 -0.49305544322E-02  0.14954055396E-01  0.00000000000E+00 0. -1.
     999901    1    3    3    0    0 -0.44822488705E-01  0.21371906569E-01  0.12184994480E+00  0.88978268298E+00  0.88000000000E+00 0. -1.
        -11    1    4    4    0    0  0.27108138911E-02 -0.21824383674E-01 -0.62981976520E-01  0.66713137552E-01  0.51100000000E-03 0.  1.
         11    1    4    4    0    0  0.46659656748E-01 -0.12912748898E-01 -0.53937413847E-01  0.72480124072E-01  0.51100000000E-03 0. -1.
</event>
<event>
 8    1  0.2025822E+004  0.1043930E+01  0.7957747E-01            NaN
         13   -1    0    0    0    0  0.00000000000E+00  0.00000000000E+00  0.74505805969E-08  0.10566000000E+00  0.10566000000E+00 0.  1.
     999900   -1    0    0    0    0 -0.00000000000E+00 -0.00000000000E+00 -0.74505805969E-08  0.93827000000E+00  0.93827000000E+00 0. -1.
     999902    2    1    2    0    0  0.88555094927E-02  0.29968998272E-02  0.10043425426E-01  0.10302087810E+01  0.10301174014E+01 0.  0.
     999903    2    3    3    0    0  0.86875648880E-01 -0.37944648843E-01  0.95602635068E-01  0.14167981077E+00  0.44114965757E-01 0.  0.
         14    1    1    2    0    0 -0.88555094927E-02 -0.29968998272E-02 -0.10043425426E-01  0.13721219014E-01  0.00000000000E+00 0. -1.
     999901    1    3    3    0    0 -0.78020139387E-01  0.40941548670E-01 -0.85559209642E-01  0.88852897022E+00  0.88000000000E+00 0. -1.
        -11    1    4    4    0    0  0.49338303736E-01 -0.27887238970E-01  0.26877513889E-01  0.62726614661E-01  0.51100000000E-03 0.  1.
         11    1    4    4    0    0  0.37537345144E-01 -0.10057409873E-01  0.68725121180E-01  0.78953196110E-01  0.51100000000E-03 0. -1.
</event>
<event>
 8    1  0.2025822E+004  0.1043930E+01  0.7957747E-01            NaN
         13   -1    0    0    0    0  0.00000000000E+00  0.00000000000E+00  0.74505805969E-08  0.10566000000E+00  0.10566000000E+00 0. -1.
     999900   -1    0    0    0    0 -0.00000000000E+00 -0.00000000000E+00 -0.74505805969E-08  0.93827000000E+00  0.93827000000E+00 0.  1.
     999902    2    1    2    0    0  0.15743082535E-02  0.13271179751E-01 -0.21235389427E-02  0.10303981089E+01  0.10303092501E+01 0.  0.
     999903    2    3    3    0    0 -0.77674438269E-01  0.98935884886E-01 -0.47638756408E-01  0.14152779186E+00  0.44034498736E-01 0.  0.
         14    1    1    2    0    0 -0.15743082535E-02 -0.13271179751E-01  0.21235389427E-02  0.13531891076E-01  0.00000000000E+00 0.  1.
     999901    1    3    3    0    0  0.79248746522E-01 -0.85664705135E-01  0.45515217465E-01  0.88887031706E+00  0.88000000000E+00 0. -1.
        -11    1    4    4    0    0 -0.32281199470E-01  0.33407131893E-01 -0.40249937503E-01  0.61468942487E-01  0.51100000000E-03 0. -1.
         11    1    4    4    0    0 -0.45393238799E-01  0.65528752993E-01 -0.73888189044E-02  0.80058849375E-01  0.51100000000E-03 0.  1.
</event>
<event>
 8    1  0.2025822E+004  0.1043930E+01  0.7957747E-01            NaN
         13   -1    0    0    0    0  0.00000000000E+00  0.00000000000E+00  0.74505805969E-08  0.10566000000E+00  0.10566000000E+00 0. -1.
     999900   -1    0    0    0    0 -0.00000000000E+00 -0.00000000000E+00 -0.74505805969E-08  0.93827000000E+00  0.93827000000E+00 0.  1.
     999902    2    1    2    0    0 -0.15476747798E-02  0.14015208669E-01 -0.16574965825E-02  0.10297325120E+01  0.10296346330E+01 0.  0.
     999903    2    3    3    0    0  0.85947778782E-01 -0.77292168711E-01 -0.58873928329E-01  0.13885305233E+00  0.49527070202E-01 0.  0.
         14    1    1    2    0    0  0.15476747798E-02 -0.14015208669E-01  0.16574965825E-02  0.14197488024E-01  0.00000000000E+00 0.  1.
     999901    1    3    3    0    0 -0.87495453562E-01  0.91307377380E-01  0.57216431746E-01  0.89087945965E+00  0.88000000000E+00 0. -1.
        -11    1    4    4    0    0  0.48277400564E-01 -0.69256065003E-01 -0.26357478601E-01  0.88442567490E-01  0.51100000000E-03 0. -1.
         11    1    4    4    0    0  0.37670378218E-01 -0.80361037075E-02 -0.32516449728E-01  0.50410484840E-01  0.51100000000E-03 0.  1.
</event>
<event>
 8    1  0.2025822E+004  0.1043930E+01  0.7957747E-01            NaN
         13   -1    0    0    0    0  0.00000000000E+00  0.00000000000E+00  0.74505805969E-08  0.10566000000E+00  0.10566000000E+00 0.  1.
     999900   -1    0    0    0    0 -0.00000000000E+00 -0.00000000000E+00 -0.74505805969E-08  0.93827000000E+00  0.93827000000E+00 0. -1.
     999902    2    1    2    0    0 -0.49647978471E-02 -0.20474896819E-02  0.12758257079E-01  0.10300875091E+01  0.10299944960E+01 0.  0.
     999903    2    3    3    0    0  0.17983234181E-01 -0.79545821539E-01 -0.10289725908E+00  0.13884747291E+00  0.45164592019E-01 0.  0.
         14    1    1    2    0    0  0.49647978471E-02  0.20474896819E-02 -0.12758257079E-01  0.13842490938E-01  0.00000000000E+00 0. -1.
     999901    1    3    3    0    0 -0.22948032028E-01  0.77498331857E-01  0.11565551616E+00  0.89124003615E+00  0.88000000000E+00 0.  1.
        -11    1    4    4    0    0  0.30311306749E-01 -0.72481938018E-01 -0.91670385228E-01  0.12073163340E+00  0.51100000000E-03 0. -1.
         11    1    4    4    0    0 -0.12328072567E-01 -0.70638835209E-02 -0.11226873854E-01  0.18115839510E-01  0.51100000000E-03 0.  1.
</event>
<event>
 8    1  0.2025822E+004  0.1043930E+01  0.7957747E-01            NaN
         13   -1    0    0    0    0  0.00000000000E+00  0.00000000000E+00  0.74505805969E-08  0.10566000000E+00  0.10566000000E+00 0.  1.
     999900   -1    0    0    0    0 -0.00000000000E+00 -0.00000000000E+00 -0.74505805969E-08  0.93827000000E+00  0.93827000000E+00 0.  1.
     999902    2    1    2    0    0 -0.12582104016E-01  0.34174478796E-02  0.53281566278E-02  0.10298453436E+01  0.10297490249E+01 0.  0.
     999903    2    3    3    0    0  0.12790712488E+00  0.11488085232E-02 -0.25231302045E-01  0.13817486041E+00  0.45761567842E-01 0.  0.
         14    1    1    2    0    0  0.12582104016E-01 -0.34174478796E-02 -0.53281566278E-02  0.14084656352E-01  0.00000000000E+00 0. -1.
     999901    1    3    3    0    0 -0.14048922890E+00  0.22686393564E-02  0.30559458672E-01  0.89167048324E+00  0.88000000000E+00 0. -1.
        -11    1    4    4    0    0  0.15415820608E-01 -0.27901483606E-02  0.11864219906E-01  0.19658415192E-01  0.51100000000E-03 0.  1.
         11    1    4    4    0    0  0.11249130427E+00  0.39389568838E-02 -0.37095521950E-01  0.11851644522E+00  0.51100000000E-03 0. -1.
</event>
<event>
 8    1  0.2025822E+004  0.1043930E+01  0.7957747E-01            NaN
         13   -1    0    0    0    0  0.00000000000E+00  0.00000000000E+00  0.74505805969E-08  0.10566000000E+00  0.10566000000E+00 0.  1.
     999900   -1    0    0    0    0 -0.00000000000E+00 -0.00000000000E+00 -0.74505805969E-08  0.93827000000E+00  0.93827000000E+00 0. -1.
     999902    2    1    2    0    0  0.29211528339E-02  0.10603041934E-01 -0.80353678562E-02  0.10303092523E+01  0.10302192148E+01 0.  0.
     999903    2    3    3    0    0 -0.63392186215E-01  0.13271510766E-01 -0.11685254778E+00  0.14112661731E+00  0.45469791291E-01 0.  0.
         14    1    1    2    0    0 -0.29211528339E-02 -0.10603041934E-01  0.80353678562E-02  0.13620747730E-01  0.00000000000E+00 0.  1.
     999901    1    3    3    0    0  0.66313339049E-01 -0.26684688322E-02  0.10881717993E+00  0.88918263496E+00  0.88000000000E+00 0.  1.
        -11    1    4    4    0    0  0.71618854363E-03 -0.47559607506E-02 -0.36248292207E-01  0.36569548775E-01  0.51100000000E-03 0.  1.
         11    1    4    4    0    0 -0.64108374759E-01  0.18027471517E-01 -0.80604255575E-01  0.10455706854E+00  0.51100000000E-03 0. -1.
</event>
<event>
 8    1  0.2025822E+004  0.1043930E+01  0.7957747E-01            NaN
         13   -1    0    0    0    0  0.00000000000E+00  0.00000000000E+00  0.74505805969E-08  0.10566000000E+00  0.10566000000E+00 0. -1.
     999900   -1    0    0    0    0 -0.00000000000E+00 -0.00000000000E+00 -0.74505805969E-08  0.93827000000E+00  0.93827000000E+00 0.  1.
     999902    2    1    2    0    0 -0.55224009643E-02 -0.46933209029E-02  0.11247836590E-01  0.10305494917E+01  0.10304626228E+01 0.  0.
     999903    2    3    3    0    0  0.91905218881E-01 -0.22324523550E-01 -0.91171654742E-01  0.13909407915E+00  0.45715846459E-01 0.  0.
         14    1    1    2    0    0  0.55224009643E-02  0.46933209029E-02 -0.11247836590E-01  0.13380508267E-01  0.00000000000E+00 0.  1.
     999901    1    3    3    0    0 -0.97427619845E-01  0.17631202647E-01  0.10241949133E+00  0.89145541258E+00  0.88000000000E+00 0. -1.
        -11    1    4    4    0    0  0.18900867398E-01  0.13838076211E-01 -0.23475597759E-01  0.33167754714E-01  0.51100000000E-03 0.  1.
         11    1    4    4    0    0  0.73004351483E-01 -0.36162599761E-01 -0.67696056984E-01  0.10592632444E+00  0.51100000000E-03 0. -1.
</event>
<event>
 8    1  0.2025822E+004  0.1043930E+01  0.7957747E-01            NaN
         13   -1    0    0    0    0  0.00000000000E+00  0.00000000000E+00  0.74505805969E-08  0.10566000000E+00  0.10566000000E+00 0. -1.
     999900   -1    0    0    0    0 -0.00000000000E+00 -0.00000000000E+00 -0.74505805969E-08  0.93827000000E+00  0.93827000000E+00 0. -1.
     999902    2    1    2    0    0 -0.76832525552E-02  0.33554027643E-02 -0.11189797830E-01  0.10299477730E+01  0.10298528596E+01 0.  0.
     999903    2    3    3    0    0  0.74005064918E-01 -0.10740491161E+00 -0.39123678954E-02  0.13922122152E+00  0.48525016507E-01 0.  0.
         14    1    1    2    0    0  0.76832525552E-02 -0.33554027643E-02  0.11189797830E-01  0.13982227040E-01  0.00000000000E+00 0. -1.
     999901    1    3    3    0    0 -0.81688317473E-01  0.11076031438E+00 -0.72774299343E-02  0.89072655144E+00  0.88000000000E+00 0.  1.
        -11    1    4    4    0    0  0.22669933507E-01 -0.59846015135E-01 -0.20685230971E-01  0.67257797422E-01  0.51100000000E-03 0. -1.
         11    1    4    4    0    0  0.51335131411E-01 -0.47558896478E-01  0.16772863076E-01  0.71963424099E-01  0.51100000000E-03 0.  1.
</event>
<event>
 8    1  0.2025822E+004  0.1043930E+01  0.7957747E-01            NaN
         13   -1    0    0    0    0  0.00000000000E+00  0.00000000000E+00  0.74505805969E-08  0.10566000000E+00  0.10566000000E+00 0.  1.
     999900   -1    0    0    0    0 -0.00000000000E+00 -0.00000000000E+00 -0.74505805969E-08  0.93827000000E+00  0.93827000000E+00 0.  1.
     999902    2    1    2    0    0  0.82743794824E-02  0.86167847777E-02 -0.50671082798E-02  0.10309534858E+01  0.10308718154E+01 0.  0.
     999903    2    3    3    0    0 -0.71835568203E-01  0.95883768300E-01 -0.59649310576E-01  0.14133989158E+00  0.45440937673E-01 0.  0.
         14    1    1    2    0    0 -0.82743794824E-02 -0.86167847777E-02  0.50671082798E-02  0.12976514249E-01  0.00000000000E+00 0. -1.
     999901    1    3    3    0    0  0.80109947686E-01 -0.87266983522E-01  0.54582202296E-01  0.88961359417E+00  0.88000000000E+00 0. -1.
        -11    1    4    4    0    0 -0.62519661901E-02  0.28837025078E-01  0.12060034931E-02  0.29536023125E-01  0.51100000000E-03 0. -1.
         11    1    4    4    0    0 -0.65583602013E-01  0.67046743222E-01 -0.60855314069E-01  0.11180386845E+00  0.51100000000E-03 0.  1.
</event>
<event>
 8    1  0.2025822E+004  0.1043930E+01  0.7957747E-01            NaN
         13   -1    0    0    0    0  0.00000000000E+00  0.00000000000E+00  0.74505805969E-08  0.10566000000E+00  0.10566000000E+00 0. -1.
     999900   -1    0    0    0    0 -0.00000000000E+00 -0.00000000000E+00 -0.74505805969E-08  0.93827000000E+00  0.93827000000E+00 0.  1.
     999902    2    1    2    0    0 -0.12449383294E-01 -0.25887791427E-02 -0.63823239388E-02  0.10297024570E+01  0.10296041603E+01 0.  0.
     999903    2    3    3    0    0  0.68535521712E-01  0.10402887065E+00  0.36461101508E-01  0.13854509870E+00  0.48437679399E-01 0.  0.
         14    1    1    2    0    0  0.12449383294E-01  0.25887791427E-02  0.63823239388E-02  0.14227543031E-01  0.00000000000E+00 0. -1.
     999901    1    3    3    0    0 -0.80984905006E-01 -0.10661764980E+00 -0.42843425447E-01  0.89115735827E+00  0.88000000000E+00 0.  1.
        -11    1    4    4    0    0  0.52027516053E-01  0.61350602136E-01  0.44728731145E-01  0.92041725972E-01  0.51100000000E-03 0. -1.
         11    1    4    4    0    0  0.16508005659E-01  0.42678268518E-01 -0.82676296369E-02  0.46503372731E-01  0.51100000000E-03 0.  1.
</event>
<event>
 8    1  0.2025822E+004  0.1043930E+01  0.7957747E-01            NaN
         13   -1    0    0    0    0  0.00000000000E+00  0.00000000000E+00  0.74505805969E-08  0.10566000000E+00  0.10566000000E+00 0.  1.
     999900   -1    0    0    0    0 -0.00000000000E+00 -0.00000000000E+00 -0.74505805969E-08  0.93827000000E+00  0.93827000000E+00 0.  1.
     999902    2    1    2    0    0  0.11021826216E-01  0.61697155559E-02 -0.81962291380E-02  0.10288726358E+01  0.10287624491E+01 0.  0.
     999903    2    3    3    0    0  0.39932041095E-01 -0.88957151454E-01  0.86801765696E-01  0.13819337799E+00  0.45331230864E-01 0.  0.
         14    1    1    2    0    0 -0.11021826216E-01 -0.61697155559E-02  0.81962291380E-02  0.15057364154E-01  0.00000000000E+00 0. -1.
     999901    1    3    3    0    0 -0.28910214879E-01  0.95126867010E-01 -0.94997994834E-01  0.89067925786E+00  0.88000000000E+00 0.  1.
        -11    1    4    4    0    0  0.34068514160E-01 -0.58065545629E-01  0.30951161044E-01  0.74097953664E-01  0.51100000000E-03 0.  1.
         11    1    4    4    0    0  0.58635269346E-02 -0.30891605826E-01  0.55850604652E-01  0.64095424326E-01  0.51100000000E-03 0. -1.
</event>
<event>
 8    1  0.2025822E+004  0.1043930E+01  0.7957747E-01            NaN
         13   -1    0    0    0    0  0.00000000000E+00  0.00000000000E+00  0.74505805969E-08  0.10566000000E+00  0.10566000000E+00 0. -1.
     999900   -1    0    0    0    0 -0.00000000000E+00 -0.00000000000E+00 -0.74505805969E-08  0.93827000000E+00  0.93827000000E+00 0.  1.
     999902    2    1    2    0    0 -0.87949034204E-02  0.44714804178E-02 -0.45125351204E-02  0.10330806942E+01  0.10330237235E+01 0.  0.
     999903    2    3    3    0    0 -0.50595804094E-01  0.91960223593E-01 -0.86939356809E-01  0.14392616521E+00  0.46256579574E-01 0.  0.
         14    1    1    2    0    0  0.87949034204E-02 -0.44714804178E-02  0.45125351204E-02  0.10849305808E-01  0.00000000000E+00 0. -1.
     999901    1    3    3    0    0  0.41800900673E-01 -0.87488743176E-01  0.82426821688E-01  0.88915452898E+00  0.88000000000E+00 0. -1.
        -11    1    4    4    0    0 -0.51048603833E-01  0.68685967998E-01 -0.46848453784E-01  0.97564137346E-01  0.51100000000E-03 0. -1.
         11    1    4    4    0    0  0.45279973978E-03  0.23274255595E-01 -0.40090903024E-01  0.46362027861E-01  0.51100000000E-03 0.  1.
</event>
<event>
 8    1  0.2025822E+004  0.1043930E+01  0.7957747E-01            NaN
         13   -1    0    0    0    0  0.00000000000E+00  0.00000000000E+00  0.74505805969E-08  0.10566000000E+00  0.10566000000E+00 0. -1.
     999900   -1    0    0    0    0 -0.00000000000E+00 -0.00000000000E+00 -0.74505805969E-08  0.93827000000E+00  0.93827000000E+00 0.  1.
     999902    2    1    2    0    0 -0.13159392324E-01  0.22303273417E-02 -0.62236386290E-02  0.10292032338E+01  0.10290978664E+01 0.  0.
     999903    2    3    3    0    0 -0.11763525582E+00 -0.60134074732E-01  0.17582570560E-01  0.14051247747E+00  0.44502237950E-01 0.  0.
         14    1    1    2    0    0  0.13159392324E-01 -0.22303273417E-02  0.62236386290E-02  0.14726766250E-01  0.00000000000E+00 0. -1.
     999901    1    3    3    0    0  0.10447586349E+00  0.62364402074E-01 -0.23806209189E-01  0.88869075628E+00  0.88000000000E+00 0.  1.
        -11    1    4    4    0    0 -0.11356986496E+00 -0.54153944798E-01  0.49150188407E-02  0.12591736375E+00  0.51100000000E-03 0. -1.
         11    1    4    4    0    0 -0.40653908608E-02 -0.59801299345E-02  0.12667551719E-01  0.14595113718E-01  0.51100000000E-03 0.  1.
</event>
<event>
 8    1  0.2025822E+004  0.1043930E+01  0.7957747E-01            NaN
         13   -1    0    0    0    0  0.00000000000E+00  0.00000000000E+00  0.74505805969E-08  0.10566000000E+00  0.10566000000E+00 0.  1.
     999900   -1    0    0    0    0 -0.00000000000E+00 -0.00000000000E+00 -0.74505805969E-08  0.93827000000E+00  0.93827000000E+00 0.  1.
     999902    2    1    2    0    0  0.44497054668E-02 -0.17604037478E-01  0.29875280742E-02  0.10255281702E+01  0.10253630580E+01 0.  0.
     999903    2    3    3    0    0 -0.62247488202E-01 -0.56071564686E-01  0.99244578192E-01  0.13693732740E+00  0.43400174901E-01 0.  0.
         14    1    1    2    0    0 -0.44497054668E-02  0.17604037478E-01 -0.29875280742E-02  0.18401829753E-01  0.00000000000E+00 0.  1.
     999901    1    3    3    0    0  0.66697193668E-01  0.38467527208E-01 -0.96257050118E-01  0.88859084285E+00  0.88000000000E+00 0.  1.
        -11    1    4    4    0    0 -0.37429482689E-01 -0.70126180232E-02  0.51942515983E-01  0.64408299726E-01  0.51100000000E-03 0.  1.
         11    1    4    4    0    0 -0.24818005513E-01 -0.49058946663E-01  0.47302062209E-01  0.72529027675E-01  0.51100000000E-03 0. -1.
</event>
<event>
 8    1  0.2025822E+004  0.1043930E+01  0.7957747E-01            NaN
         13   -1    0    0    0    0  0.00000000000E+00  0.00000000000E+00  0.74505805969E-08  0.10566000000E+00  0.10566000000E+00 0. -1.
     999900   -1    0    0    0    0 -0.00000000000E+00 -0.00000000000E+00 -0.74505805969E-08  0.93827000000E+00  0.93827000000E+00 0.  1.
     999902    2    1    2    0    0 -0.93572665533E-02  0.70579092110E-02 -0.65250424754E-02  0.10305155041E+01  0.10304281904E+01 0.  0.
     999903    2    3    3    0    0  0.10564314875E+00  0.79560799536E-01  0.86869159868E-02  0.13994649036E+00  0.44935086000E-01 0.  0.
         14    1    1    2    0    0  0.93572665533E-02 -0.70579092110E-02  0.65250424754E-02  0.13414495857E-01  0.00000000000E+00 0. -1.
     999901    1    3    3    0    0 -0.11500041531E+00 -0.72502890325E-01 -0.15211958462E-01  0.89056901378E+00  0.88000000000E+00 0. -1.
        -11    1    4    4    0    0  0.68014922556E-01  0.47284259749E-01 -0.16303331423E-01  0.84426836058E-01  0.51100000000E-03 0. -1.
         11    1    4    4    0    0  0.37628226199E-01  0.32276539786E-01  0.24990247410E-01  0.55519654304E-01  0.51100000000E-03 0.  1.
</event>
<event>
 8    1  0.2025822E+004  0.1043930E+01  0.7957747E-01            NaN
         13   -1    0    0    0    0  0.00000000000E+00  0.00000000000E+00  0.74505805969E-08  0.10566000000E+00  0.10566000000E+00 0.  1.
     999900   -1    0    0    0    0 -0.00000000000E+00 -0.00000000000E+00 -0.74505805969E-08  0.93827000000E+00  0.93827000000E+00 0.  1.
     999902    2    1    2    0    0  0.64782866441E-02  0.11093003563E-01  0.68371358894E-02  0.10293777028E+01  0.10292748349E+01 0.  0.
     999903    2    3    3    0    0  0.11368184517E+00 -0.65760076822E-01 -0.11969029026E-01  0.13934811300E+00  0.45018766269E-01 0.  0.
         14    1    1    2    0    0 -0.64782866441E-02 -0.11093003563E-01 -0.68371358894E-02  0.14552297175E-01  0.00000000000E+00 0. -1.
     999901    1    3    3    0    0 -0.10720355852E+00  0.76853080385E-01  0.18806164915E-01  0.89002958982E+00  0.88000000000E+00 0. -1.
        -11    1    4    4    0    0  0.44602729938E-01 -0.45662257967E-01  0.88674591200E-02  0.64446398448E-01  0.51100000000E-03 0. -1.
         11    1    4    4    0    0  0.69079115230E-01 -0.20097818855E-01 -0.20836488146E-01  0.74901714553E-01  0.51100000000E-03 0.  1.
</event>
<event>
 8    1  0.2025822E+004  0.1043930E+01  0.7957747E-01            NaN
         13   -1    0    0    0    0  0.00000000000E+00  0.00000000000E+00  0.74505805969E-08  0.10566000000E+00  0.10566000000E+00 0. -1.
     999900   -1    0    0    0    0 -0.00000000000E+00 -0.00000000000E+00 -0.74505805969E-08  0.93827000000E+00  0.93827000000E+00 0. -1.
     999902    2    1    2    0    0 -0.11426744271E-01  0.74268299322E-02  0.86221889028E-03  0.10302745356E+01  0.10301840355E+01 0.  0.
     999903    2    3    3    0    0  0.49241806235E-01 -0.74196274094E-01  0.96961189297E-01  0.13922009489E+00  0.45287084485E-01 0.  0.
         14    1    1    2    0    0  0.11426744271E-01 -0.74268299322E-02 -0.86221889028E-03  0.13655464433E-01  0.00000000000E+00 0. -1.
     999901    1    3    3    0    0 -0.60668550506E-01  0.81623104027E-01 -0.96098970407E-01  0.89105444067E+00  0.88000000000E+00 0. -1.
        -11    1    4    4    0    0  0.13389886373E-01 -0.54459062393E-01  0.72055507434E-01  0.91309012733E-01  0.51100000000E-03 0.  1.
         11    1    4    4    0    0  0.35851919863E-01 -0.19737211701E-01  0.24905681864E-01  0.47911082159E-01  0.51100000000E-03 0. -1.
</event>
<event>
 8    1  0.2025822E+004  0.1043930E+01  0.7957747E-01            NaN
         13   -1    0    0    0    0  0.00000000000E+00  0.00000000000E+00  0.74505805969E-08  0.10566000000E+00  0.10566000000E+00 0. -1.
     999900   -1    0    0    0    0 -0.00000000000E+00 -0.00000000000E+00 -0.74505805969E-08  0.93827000000E+00  0.93827000000E+00 0. -1.
     999902    2    1    2    0    0  0.83959092346E-02  0.10716425974E-01 -0.38111995373E-02  0.10297928744E+01  0.10296958317E+01 0.  0.
     999903    2    3    3    0    0  0.85196326106E-01 -0.18021480043E-01 -0.10088265410E+00  0.14066575272E+00  0.45015068196E-01 0.  0.
         14    1    1    2    0    0 -0.83959092346E-02 -0.10716425974E-01  0.38111995373E-02  0.14137125572E-01  0.00000000000E+00 0. -1.
     999901    1    3    3    0    0 -0.76800416871E-01  0.28737906017E-01  0.97071454559E-01  0.88912712171E+00  0.88000000000E+00 0. -1.
        -11    1    4    4    0    0  0.54864101853E-01 -0.25360339089E-01 -0.40695230313E-01  0.72866860520E-01  0.51100000000E-03 0. -1.
         11    1    4    4    0    0  0.30332224253E-01  0.73388590465E-02 -0.60187423784E-01  0.67798892196E-01  0.51100000000E-03 0.  1.
</event>
<event>
 8    1  0.2332995E+004  0.1043930E+01  0.7957747E-01            NaN
         13   -1    0    0    0    0  0.00000000000E+00  0.00000000000E+00  0.74505805969E-08  0.10566000000E+00  0.10566000000E+00 0. -1.
     999900   -1    0    0    0    0 -0.00000000000E+00 -0.00000000000E+00 -0.74505805969E-08  0.93827000000E+00  0.93827000000E+00 0.  1.
     999902    2    1    2    0    0 -0.51222425091E-02  0.39099655315E-02 -0.13301065831E-01  0.10291501640E+01  0.10290440304E+01 0.  0.
     999903    2    3    3    0    0 -0.20542544319E-01 -0.20001896210E-01  0.12687555505E+00  0.13760148456E+00  0.44885299433E-01 0.  0.
         14    1    1    2    0    0  0.51222425091E-02 -0.39099655315E-02  0.13301065831E-01  0.14779835961E-01  0.00000000000E+00 0. -1.
     999901    1    3    3    0    0  0.15420301810E-01  0.23911861741E-01 -0.14017662088E+00  0.89154867948E+00  0.88000000000E+00 0.  1.
        -11    1    4    4    0    0 -0.22936727605E-01  0.82288839478E-02  0.68609611898E-01  0.72810356200E-01  0.51100000000E-03 0. -1.
         11    1    4    4    0    0  0.23941832853E-02 -0.28230780158E-01  0.58265943150E-01  0.64791128360E-01  0.51100000000E-03 0.  1.
</event>
<event>
 8    1  0.2025822E+004  0.1043930E+01  0.7957747E-01            NaN
         13   -1    0    0    0    0  0.00000000000E+00  0.00000000000E+00  0.74505805969E-08  0.10566000000E+00  0.10566000000E+00 0.  1.
     999900   -1    0    0    0    0 -0.00000000000E+00 -0.00000000000E+00 -0.74505805969E-08  0.93827000000E+00  0.93827000000E+00 0.  1.
     999902    2    1    2    0    0 -0.13861175239E-01 -0.21199904471E-01  0.12405121467E-01  0.10157261852E+01  0.10153345400E+01 0.  0.
     999903    2    3    3    0    0 -0.11033403648E+00 -0.46508686925E-01 -0.19820875629E-01  0.12950608712E+00  0.45191834696E-01 0.  0.
         14    1    1    2    0    0  0.13861175239E-01  0.21199904471E-01 -0.12405121467E-01  0.28203814763E-01  0.00000000000E+00 0. -1.
     999901    1    3    3    0    0  0.96472861244E-01  0.25308782454E-01  0.32225997097E-01  0.88622009812E+00  0.88000000000E+00 0. -1.
        -11    1    4    4    0    0 -0.51490246545E-01 -0.19495445394E-01  0.13492499890E-01  0.56688857412E-01  0.51100000000E-03 0. -1.
         11    1    4    4    0    0 -0.58843789938E-01 -0.27013241531E-01 -0.33313375519E-01  0.72817229704E-01  0.51100000000E-03 0.  1.
</event>
<event>
 8    1  0.2025822E+004  0.1043930E+01  0.7957747E-01            NaN
         13   -1    0    0    0    0  0.00000000000E+00  0.00000000000E+00  0.74505805969E-08  0.10566000000E+00  0.10566000000E+00 0. -1.
     999900   -1    0    0    0    0 -0.00000000000E+00 -0.00000000000E+00 -0.74505805969E-08  0.93827000000E+00  0.93827000000E+00 0.  1.
     999902    2    1    2    0    0 -0.37450524467E-02 -0.12500140554E-01 -0.37138141303E-02  0.10303627104E+01  0.10302733830E+01 0.  0.
     999903    2    3    3    0    0  0.11161573650E+00  0.39606584771E-01  0.57440070361E-01  0.13920446405E+00  0.45296434039E-01 0.  0.
         14    1    1    2    0    0  0.37450524467E-02  0.12500140554E-01  0.37138141303E-02  0.13567289600E-01  0.00000000000E+00 0. -1.
     999901    1    3    3    0    0 -0.11536078895E+00 -0.52106725325E-01 -0.61153884492E-01  0.89115824635E+00  0.88000000000E+00 0. -1.
        -11    1    4    4    0    0  0.78366755700E-01  0.39606890234E-01  0.21827599129E-01  0.90480712628E-01  0.51100000000E-03 0. -1.
         11    1    4    4    0    0  0.33248980800E-01 -0.30546354993E-06  0.35612471232E-01  0.48723751421E-01  0.51100000000E-03 0.  1.
</event>
<event>
 8    1  0.2025822E+004  0.1043930E+01  0.7957747E-01            NaN
         13   -1    0    0    0    0  0.00000000000E+00  0.00000000000E+00  0.74505805969E-08  0.10566000000E+00  0.10566000000E+00 0.  1.
     999900   -1    0    0    0    0 -0.00000000000E+00 -0.00000000000E+00 -0.74505805969E-08  0.93827000000E+00  0.93827000000E+00 0.  1.
     999902    2    1    2    0    0  0.12477320837E-01  0.47865862299E-02  0.22979433186E-02  0.10303699304E+01  0.10302806987E+01 0.  0.
     999903    2    3    3    0    0 -0.87013985172E-02  0.12088467813E-01  0.13237902484E+00  0.14052559383E+00  0.44736907745E-01 0.  0.
         14    1    1    2    0    0 -0.12477320837E-01 -0.47865862299E-02 -0.22979433186E-02  0.13560069561E-01  0.00000000000E+00 0. -1.
     999901    1    3    3    0    0  0.21178719354E-01 -0.73018815830E-02 -0.13008108152E+00  0.88984433661E+00  0.88000000000E+00 0.  1.
        -11    1    4    4    0    0 -0.70778313490E-02  0.24410748027E-01  0.40562176175E-01  0.47869944359E-01  0.51100000000E-03 0. -1.
         11    1    4    4    0    0 -0.16235671682E-02 -0.12322280214E-01  0.91816848660E-01  0.92655649471E-01  0.51100000000E-03 0.  1.
</event>
<event>
 8    1  0.2025822E+004  0.1043930E+01  0.7957747E-01            NaN
         13   -1    0    0    0    0  0.00000000000E+00  0.00000000000E+00  0.74505805969E-08  0.10566000000E+00  0.10566000000E+00 0.  1.
     999900   -1    0    0    0    0 -0.00000000000E+00 -0.00000000000E+00 -0.74505805969E-08  0.93827000000E+00  0.93827000000E+00 0. -1.
     999902    2    1    2    0    0 -0.38035602818E-02 -0.94183066254E-03 -0.13535811146E-01  0.10298384316E+01  0.10297420177E+01 0.  0.
     999903    2    3    3    0    0 -0.77272380318E-01  0.75857072158E-01  0.74306647854E-01  0.13910163740E+00  0.45852714805E-01 0.  0.
         14    1    1    2    0    0  0.38035602818E-02  0.94183066254E-03  0.13535811146E-01  0.14091568372E-01  0.00000000000E+00 0.  1.
     999901    1    3    3    0    0  0.73468820037E-01 -0.76798902821E-01 -0.87842459000E-01  0.89073679423E+00  0.88000000000E+00 0. -1.
        -11    1    4    4    0    0 -0.56189914428E-01  0.33479639473E-01  0.62156473893E-01  0.90232372852E-01  0.51100000000E-03 0.  1.
         11    1    4    4    0    0 -0.21082465890E-01  0.42377432685E-01  0.12150173962E-01  0.48869264546E-01  0.51100000000E-03 0. -1.
</event>
<event>
 8    1  0.2025822E+004  0.1043930E+01  0.7957747E-01            NaN
         13   -1    0    0    0    0  0.00000000000E+00  0.00000000000E+00  0.74505805969E-08  0.10566000000E+00  0.10566000000E+00 0. -1.
     999900   -1    0    0    0    0 -0.00000000000E+00 -0.00000000000E+00 -0.74505805969E-08  0.93827000000E+00  0.93827000000E+00 0.  1.
     999902    2    1    2    0    0 -0.12564161460E-01  0.14441378137E-02 -0.94230313866E-03  0.10312480592E+01  0.10311700771E+01 0.  0.
     999903    2    3    3    0    0  0.55468864305E-01  0.29736007698E-01  0.11702740511E+00  0.14032394652E+00  0.45104006024E-01 0.  0.
         14    1    1    2    0    0  0.12564161460E-01 -0.14441378137E-02  0.94230313866E-03  0.12681940799E-01  0.00000000000E+00 0.  1.
     999901    1    3    3    0    0 -0.68033025765E-01 -0.28291869884E-01 -0.11796970824E+00  0.89092411268E+00  0.88000000000E+00 0.  1.
        -11    1    4    4    0    0  0.46828085878E-01  0.16791286023E-01  0.11410633238E+00  0.12448025194E+00  0.51100000000E-03 0. -1.
         11    1    4    4    0    0  0.86407784271E-02  0.12944721675E-01  0.29210727309E-02  0.15843694581E-01  0.51100000000E-03 0.  1.
</event>
<event>
 8    1  0.2025822E+004  0.1043930E+01  0.7957747E-01            NaN
         13   -1    0    0    0    0  0.00000000000E+00  0.00000000000E+00  0.74505805969E-08  0.10566000000E+00  0.10566000000E+00 0.  1.
     999900   -1    0    0    0    0 -0.00000000000E+00 -0.00000000000E+00 -0.74505805969E-08  0.93827000000E+00  0.93827000000E+00 0.  1.
     999902    2    1    2    0    0  0.58468650845E-02  0.84369825348E-02  0.10782999539E-01  0.10290423681E+01  0.10289346693E+01 0.  0.
     999903    2    3    3    0    0  0.70444653790E-01  0.97704416893E-02 -0.11027234236E+00  0.13840829718E+00  0.44033583326E-01 0.  0.
         14    1    1    2    0    0 -0.58468650845E-02 -0.84369825348E-02 -0.10782999539E-01  0.14887631936E-01  0.00000000000E+00 0. -1.
     999901    1    3    3    0    0 -0.64597788705E-01 -0.13334591546E-02  0.12105534190E+00  0.89063407088E+00  0.88000000000E+00 0. -1.
        -11    1    4    4    0    0  0.30149897525E-01  0.26253502829E-01 -0.56603895686E-01  0.69300251510E-01  0.51100000000E-03 0. -1.
         11    1    4    4    0    0  0.40294756265E-01 -0.16483061140E-01 -0.53668446671E-01  0.69108045669E-01  0.51100000000E-03 0.  1.
</event>
<event>
 8    1  0.2025822E+004  0.1043930E+01  0.7957747E-01            NaN
         13   -1    0    0    0    0  0.00000000000E+00  0.00000000000E+00  0.74505805969E-08  0.10566000000E+00  0.10566000000E+00 0.  1.
     999900   -1    0    0    0    0 -0.00000000000E+00 -0.00000000000E+00 -0.74505805969E-08  0.93827000000E+00  0.93827000000E+00 0. -1.
     999902    2    1    2    0    0 -0.10385807928E-01 -0.77960380036E-02  0.44033253949E-02  0.10302175061E+01  0.10301262434E+01 0.  0.
     999903    2    3    3    0    0  0.89248204471E-01 -0.16138910273E-01  0.96298715470E-01  0.13980114131E+00  0.45223998977E-01 0.  0.
         14    1    1    2    0    0  0.10385807928E-01  0.77960380036E-02 -0.44033253949E-02  0.13712493917E-01  0.00000000000E+00 0. -1.
     999901    1    3    3    0    0 -0.99634012400E-01  0.83428722693E-02 -0.91895390075E-01  0.89041636478E+00  0.88000000000E+00 0. -1.
        -11    1    4    4    0    0  0.74792224620E-01  0.45507578002E-02  0.62259190840E-01  0.97422041783E-01  0.51100000000E-03 0. -1.
         11    1    4    4    0    0  0.14455979852E-01 -0.20689668073E-01  0.34039524630E-01  0.42379099524E-01  0.51100000000E-03 0.  1.
</event>
<event>
 8    1  0.2025822E+004  0.1043930E+01  0.7957747E-01            NaN
         13   -1    0    0    0    0  0.00000000000E+00  0.00000000000E+00  0.74505805969E-08  0.10566000000E+00  0.10566000000E+00 0.  1.
     999900   -1    0    0    0    0 -0.00000000000E+00 -0.00000000000E+00 -0.74505805969E-08  0.93827000000E+00  0.93827000000E+00 0.  1.
     999902    2    1    2    0    0 -0.11153055226E-01  0.68453161491E-02  0.18235972413E-02  0.10307173356E+01  0.10306326462E+01 0.  0.
     999903    2    3    3    0    0 -0.48902871347E-01 -0.89162208680E-01  0.87620596299E-01  0.14054677974E+00  0.41648986991E-01 0.  0.
         14    1    1    2    0    0  0.11153055226E-01 -0.68453161491E-02 -0.18235972413E-02  0.13212664416E-01  0.00000000000E+00 0.  1.
     999901    1    3    3    0    0  0.37749816121E-01  0.96007524829E-01 -0.85796999058E-01  0.89017055584E+00  0.88000000000E+00 0. -1.
        -11    1    4    4    0    0 -0.27952824504E-01 -0.55529874197E-01  0.78042143866E-01  0.99778578194E-01  0.51100000000E-03 0. -1.
         11    1    4    4    0    0 -0.20950046843E-01 -0.33632334483E-01  0.95784524331E-02  0.40768201548E-01  0.51100000000E-03 0.  1.
</event>
<event>
 8    1  0.2025822E+004  0.1043930E+01  0.7957747E-01            NaN
         13   -1    0    0    0    0  0.00000000000E+00  0.00000000000E+00  0.74505805969E-08  0.10566000000E+00  0.10566000000E+00 0.  1.
     999900   -1    0    0    0    0 -0.00000000000E+00 -0.00000000000E+00 -0.74505805969E-08  0.93827000000E+00  0.93827000000E+00 0. -1.
     999902    2    1    2    0    0 -0.71954043796E-02  0.86509748801E-02  0.88551169326E-02  0.10296112603E+01  0.10295116906E+01 0.  0.
     999903    2    3    3    0    0  0.70439351226E-01  0.24358013674E-02 -0.11006572217E+00  0.13820341334E+00  0.44923100222E-01 0.  0.
         14    1    1    2    0    0  0.71954043796E-02 -0.86509748801E-02 -0.88551169326E-02  0.14318739695E-01  0.00000000000E+00 0. -1.
     999901    1    3    3    0    0 -0.77634755606E-01  0.62151735128E-02  0.11892083910E+00  0.89140784697E+00  0.88000000000E+00 0.  1.
        -11    1    4    4    0    0  0.49918487455E-01  0.22602251058E-01 -0.72904858114E-01  0.91203599711E-01  0.51100000000E-03 0.  1.
         11    1    4    4    0    0  0.20520863771E-01 -0.20166449691E-01 -0.37160864051E-01  0.46999813628E-01  0.51100000000E-03 0. -1.
</event>
<event>
 8    1  0.2025822E+004  0.1043930E+01  0.7957747E-01            NaN
         13   -1    0    0    0    0  0.00000000000E+00  0.00000000000E+00  0.74505805969E-08  0.10566000000E+00  0.10566000000E+00 0. -1.
     999900   -1    0    0    0    0 -0.00000000000E+00 -0.00000000000E+00 -0.74505805969E-08  0.93827000000E+00  0.93827000000E+00 0. -1.
     999902    2    1    2    0    0 -0.69546073348E-02  0.12575132917E-01 -0.49962693823E-02  0.10287160840E+01  0.10286035769E+01 0.  0.
     999903    2    3    3    0    0 -0.42849776677E-01  0.12255063344E+00  0.27943097414E-01  0.14053362768E+00  0.45979590031E-01 0.  0.
         14    1    1    2    0    0  0.69546073348E-02 -0.12575132917E-01  0.49962693823E-02  0.15213915959E-01  0.00000000000E+00 0. -1.
     999901    1    3    3    0    0  0.35895169342E-01 -0.10997550052E+00 -0.32939366796E-01  0.88818245636E+00  0.88000000000E+00 0. -1.
        -11    1    4    4    0    0 -0.16716406860E-01  0.53145122735E-02  0.21352331660E-02  0.17677744219E-01  0.51100000000E-03 0. -1.
         11    1    4    4    0    0 -0.26133369817E-01  0.11723612116E+00  0.25807864247E-01  0.12285588346E+00  0.51100000000E-03 0.  1.
</event>
<event>
 8    1  0.2025822E+004  0.1043930E+01  0.7957747E-01            NaN
         13   -1    0    0    0    0  0.00000000000E+00  0.00000000000E+00  0.74505805969E-08  0.10566000000E+00  0.10566000000E+00 0.  1.
     999900   -1    0    0    0    0 -0.00000000000E+00 -0.00000000000E+00 -0.74505805969E-08  0.93827000000E+00  0.93827000000E+00 0.  1.
     999902    2    1    2    0    0  0.98430127412E-02  0.13737528927E-02 -0.46444351341E-02  0.10329599100E+01  0.10329016569E+01 0.  0.
     999903    2    3    3    0    0 -0.78408120000E-01 -0.57365935527E-02  0.10788917093E+00  0.14138678796E+00  0.46576912933E-01 0.  0.
         14    1    1    2    0    0 -0.98430127412E-02 -0.13737528927E-02  0.46444351341E-02  0.10970089997E-01  0.00000000000E+00 0.  1.
     999901    1    3    3    0    0  0.88251132742E-01  0.71103464454E-02 -0.11253360606E+00  0.89157312204E+00  0.88000000000E+00 0. -1.
        -11    1    4    4    0    0 -0.53555261026E-01  0.12811370530E-01  0.44442622858E-01  0.70765140047E-01  0.51100000000E-03 0.  1.
         11    1    4    4    0    0 -0.24852858975E-01 -0.18547964083E-01  0.63446548070E-01  0.70621647913E-01  0.51100000000E-03 0. -1.
</event>
<event>
 8    1  0.2025822E+004  0.1043930E+01  0.7957747E-01            NaN
         13   -1    0    0    0    0  0.00000000000E+00  0.00000000000E+00  0.74505805969E-08  0.10566000000E+00  0.10566000000E+00 0.  1.
     999900   -1    0    0    0    0 -0.00000000000E+00 -0.00000000000E+00 -0.74505805969E-08  0.93827000000E+00  0.93827000000E+00 0.  1.
     999902    2    1    2    0    0 -0.76190171582E-02  0.11609593971E-01  0.10125314130E-01  0.10267441314E+01  0.10266002909E+01 0.  0.
     999903    2    3    3    0    0 -0.39933749096E-01  0.69715017485E-01  0.10433564725E+00  0.13922169840E+00  0.45187011846E-01 0.  0.
         14    1    1    2    0    0  0.76190171582E-02 -0.11609593971E-01 -0.10125314130E-01  0.17185868639E-01  0.00000000000E+00 0. -1.
     999901    1    3    3    0    0  0.32314731937E-01 -0.58105423513E-01 -0.94210333116E-01  0.88752243296E+00  0.88000000000E+00 0.  1.
        -11    1    4    4    0    0 -0.25708842373E-01  0.54628293971E-02  0.27199147678E-01  0.37826470052E-01  0.51100000000E-03 0. -1.
         11    1    4    4    0    0 -0.14224906723E-01  0.64252188087E-01  0.77136499569E-01  0.10139522835E+00  0.51100000000E-03 0.  1.
</event>
<event>
 8    1  0.2025822E+004  0.1043930E+01  0.7957747E-01            NaN
         13   -1    0    0    0    0  0.00000000000E+00  0.00000000000E+00  0.74505805969E-08  0.10566000000E+00  0.10566000000E+00 0. -1.
     999900   -1    0    0    0    0 -0.00000000000E+00 -0.00000000000E+00 -0.74505805969E-08  0.93827000000E+00  0.93827000000E+00 0.  1.
     999902    2    1    2    0    0  0.26364807442E-02 -0.33658274166E-02  0.13941161252E-01  0.10293479630E+01  0.10292446712E+01 0.  0.
     999903    2    3    3    0    0 -0.45703943807E-01 -0.95973956542E-01  0.79661486382E-01  0.14073543591E+00  0.46482896807E-01 0.  0.
         14    1    1    2    0    0 -0.26364807442E-02  0.33658274166E-02 -0.13941161252E-01  0.14582036962E-01  0.00000000000E+00 0.  1.
     999901    1    3    3    0    0  0.48340424551E-01  0.92608129125E-01 -0.65720325131E-01  0.88861252712E+00  0.88000000000E+00 0.  1.
        -11    1    4    4    0    0  0.94904858331E-02 -0.14677775744E-01  0.15604340409E-01  0.23436360270E-01  0.51100000000E-03 0. -1.
         11    1    4    4    0    0 -0.55194429640E-01 -0.81296180798E-01  0.64057145973E-01  0.11729907564E+00  0.51100000000E-03 0.  1.
</event>
<event>
 8    1  0.2025822E+004  0.1043930E+01  0.7957747E-01            NaN
         13   -1    0    0    0    0  0.00000000000E+00  0.00000000000E+00  0.74505805969E-08  0.10566000000E+00  0.10566000000E+00 0.  1.
     999900   -1    0    0    0    0 -0.00000000000E+00 -0.00000000000E+00 -0.74505805969E-08  0.93827000000E+00  0.93827000000E+00 0. -1.
     999902    2    1    2    0    0 -0.71285070401E-02 -0.11277255683E-01  0.45020870707E-02  0.10298494852E+01  0.10297532235E+01 0.  0.
     999903    2    3    3    0    0 -0.54337243127E-01 -0.48334081071E-01 -0.11097866370E+00  0.14027785974E+00  0.45529053925E-01 0.  0.
         14    1    1    2    0    0  0.71285070401E-02  0.11277255683E-01 -0.45020870707E-02  0.14080514776E-01  0.00000000000E+00 0. -1.
     999901    1    3    3    0    0  0.47208736087E-01  0.37056825388E-01  0.11548075077E+00  0.88957162549E+00  0.88000000000E+00 0.  1.
        -11    1    4    4    0    0  0.48178467310E-02  0.38912613361E-02 -0.13502948902E-01  0.14864195638E-01  0.51100000000E-03 0. -1.
         11    1    4    4    0    0 -0.59155089858E-01 -0.52225342408E-01 -0.97475714802E-01  0.12541366410E+00  0.51100000000E-03 0.  1.
</event>
<event>
 8    1  0.2025822E+004  0.1043930E+01  0.7957747E-01            NaN
         13   -1    0    0    0    0  0.00000000000E+00  0.00000000000E+00  0.74505805969E-08  0.10566000000E+00  0.10566000000E+00 0.  1.
     999900   -1    0    0    0    0 -0.00000000000E+00 -0.00000000000E+00 -0.74505805969E-08  0.93827000000E+00  0.93827000000E+00 0. -1.
     999902    2    1    2    0    0  0.11648179603E-01 -0.64855093204E-02  0.34195066513E-03  0.10305936268E+01  0.10305073337E+01 0.  0.
     999903    2    3    3    0    0 -0.13104044695E+00  0.97037351450E-02  0.62238845132E-03  0.13895344467E+00  0.45187511614E-01 0.  0.
         14    1    1    2    0    0 -0.11648179603E-01  0.64855093204E-02 -0.34195066513E-03  0.13336373175E-01  0.00000000000E+00 0. -1.
     999901    1    3    3    0    0  0.14268862655E+00 -0.16189244465E-01 -0.28043778619E-03  0.89164018215E+00  0.88000000000E+00 0.  1.
        -11    1    4    4    0    0 -0.19141320759E-01  0.15295323823E-01  0.10114237505E-01  0.26512186115E-01  0.51100000000E-03 0.  1.
         11    1    4    4    0    0 -0.11189912619E+00 -0.55915886783E-02 -0.94918490538E-02  0.11244125856E+00  0.51100000000E-03 0. -1.
</event>
<event>
 8    1  0.2025822E+004  0.1043930E+01  0.7957747E-01            NaN
         13   -1    0    0    0    0  0.00000000000E+00  0.00000000000E+00  0.74505805969E-08  0.10566000000E+00  0.10566000000E+00 0. -1.
     999900   -1    0    0    0    0 -0.00000000000E+00 -0.00000000000E+00 -0.74505805969E-08  0.93827000000E+00  0.93827000000E+00 0.  1.
     999902    2    1    2    0    0  0.79277792475E-02 -0.88004220539E-02 -0.64755034760E-02  0.10304307683E+01  0.10303423406E+01 0.  0.
     999903    2    3    3    0    0  0.11307747563E+00  0.64262853158E-01 -0.29138063592E-01  0.14087565898E+00  0.45614633069E-01 0.  0.
         14    1    1    2    0    0 -0.79277792475E-02  0.88004220539E-02  0.64755034760E-02  0.13499231733E-01  0.00000000000E+00 0. -1.
     999901    1    3    3    0    0 -0.10514969639E+00 -0.73063275212E-01  0.22662560116E-01  0.88955510929E+00  0.88000000000E+00 0. -1.
        -11    1    4    4    0    0  0.13425263224E-01  0.96804271871E-02 -0.21304924135E-01  0.26983500080E-01  0.51100000000E-03 0. -1.
         11    1    4    4    0    0  0.99652212410E-01  0.54582425971E-01 -0.78331394567E-02  0.11389215890E+00  0.51100000000E-03 0.  1.
</event>
<event>
 8    1  0.2025822E+004  0.1043930E+01  0.7957747E-01            NaN
         13   -1    0    0    0    0  0.00000000000E+00  0.00000000000E+00  0.74505805969E-08  0.10566000000E+00  0.10566000000E+00 0.  1.
     999900   -1    0    0    0    0 -0.00000000000E+00 -0.00000000000E+00 -0.74505805969E-08  0.93827000000E+00  0.93827000000E+00 0.  1.
     999902    2    1    2    0    0 -0.13600697057E-01 -0.11817695651E-02  0.84368089435E-02  0.10278814709E+01  0.10277561788E+01 0.  0.
     999903    2    3    3    0    0 -0.11293150782E+00  0.50320244883E-01 -0.45632628807E-01  0.13915059404E+00  0.44664286696E-01 0.  0.
         14    1    1    2    0    0  0.13600697057E-01  0.11817695651E-02 -0.84368089435E-02  0.16048529057E-01  0.00000000000E+00 0.  1.
     999901    1    3    3    0    0  0.99330810767E-01 -0.51502014448E-01  0.54069437750E-01  0.88873087690E+00  0.88000000000E+00 0. -1.
        -11    1    4    4    0    0 -0.44697560417E-01 -0.39967140272E-03 -0.26624231806E-01  0.52030207426E-01  0.51100000000E-03 0.  1.
         11    1    4    4    0    0 -0.68233947406E-01  0.50719916285E-01 -0.19008397001E-01  0.87120386616E-01  0.51100000000E-03 0. -1.
</event>
<event>
 8    1  0.2025822E+004  0.1043930E+01  0.7957747E-01            NaN
         13   -1    0    0    0    0  0.00000000000E+00  0.00000000000E+00  0.74505805969E-08  0.10566000000E+00  0.10566000000E+00 0.  1.
     999900   -1    0    0    0    0 -0.00000000000E+00 -0.00000000000E+00 -0.74505805969E-08  0.93827000000E+00  0.93827000000E+00 0.  1.
     999902    2    1    2    0    0  0.14300697402E-01  0.38421217070E-02 -0.22934442678E-02  0.10289456171E+01  0.10288365036E+01 0.  0.
     999903    2    3    3    0    0  0.89755403584E-01 -0.84675065969E-01 -0.43736804718E-01  0.14032519341E+00  0.50520813044E-01 0.  0.
         14    1    1    2    0    0 -0.14300697402E-01 -0.38421217070E-02  0.22934442678E-02  0.14984382937E-01  0.00000000000E+00 0.  1.
     999901    1    3    3    0    0 -0.75454706182E-01  0.88517187676E-01  0.41443360450E-01  0.88862042365E+00  0.88000000000E+00 0.  1.
        -11    1    4    4    0    0  0.21745476045E-01 -0.49703706823E-01 -0.31901025239E-01  0.62938547272E-01  0.51100000000E-03 0. -1.
         11    1    4    4    0    0  0.68009927539E-01 -0.34971359146E-01 -0.11835779478E-01  0.77386646143E-01  0.51100000000E-03 0.  1.
</event>
<event>
 8    1  0.2025822E+004  0.1043930E+01  0.7957747E-01            NaN
         13   -1    0    0    0    0  0.00000000000E+00  0.00000000000E+00  0.74505805969E-08  0.10566000000E+00  0.10566000000E+00 0. -1.
     999900   -1    0    0    0    0 -0.00000000000E+00 -0.00000000000E+00 -0.74505805969E-08  0.93827000000E+00  0.93827000000E+00 0.  1.
     999902    2    1    2    0    0 -0.21596031497E-01  0.33451848086E-02  0.67646163979E-02  0.10210533990E+01  0.10207970928E+01 0.  0.
     999903    2    3    3    0    0 -0.63569668230E-01  0.72939641284E-01 -0.79721068769E-01  0.13308664947E+00  0.44668931840E-01 0.  0.
         14    1    1    2    0    0  0.21596031497E-01 -0.33451848086E-02 -0.67646163979E-02  0.22876600989E-01  0.00000000000E+00 0.  1.
     999901    1    3    3    0    0  0.41973636733E-01 -0.69594456475E-01  0.86485685167E-01  0.88796674954E+00  0.88000000000E+00 0. -1.
        -11    1    4    4    0    0 -0.81188515812E-02  0.26478733856E-01 -0.44999192767E-01  0.52841532608E-01  0.51100000000E-03 0. -1.
         11    1    4    4    0    0 -0.55450816649E-01  0.46460907428E-01 -0.34721876002E-01  0.80245116861E-01  0.51100000000E-03 0.  1.
</event>
<event>
 8    1  0.2025822E+004  0.1043930E+01  0.7957747E-01            NaN
         13   -1    0    0    0    0  0.00000000000E+00  0.00000000000E+00  0.74505805969E-08  0.10566000000E+00  0.10566000000E+00 0.  1.
     999900   -1    0    0    0    0 -0.00000000000E+00 -0.00000000000E+00 -0.74505805969E-08  0.93827000000E+00  0.93827000000E+00 0. -1.
     999902    2    1    2    0    0 -0.45095732955E-02 -0.12135841697E-01  0.36055127346E-02  0.10304907059E+01  0.10304030669E+01 0.  0.
     999903    2    3    3    0    0  0.11760144673E+00 -0.50019357451E-01 -0.36371115408E-01  0.14035341713E+00  0.45212689277E-01 0.  0.
         14    1    1    2    0    0  0.45095732955E-02  0.12135841697E-01 -0.36055127346E-02  0.13439294144E-01  0.00000000000E+00 0. -1.
     999901    1    3    3    0    0 -0.12211102003E+00  0.37883515755E-01  0.39976628143E-01  0.89013728872E+00  0.88000000000E+00 0. -1.
        -11    1    4    4    0    0  0.69224451511E-01 -0.41839938873E-01 -0.41690244608E-01  0.90999685650E-01  0.51100000000E-03 0. -1.
         11    1    4    4    0    0  0.48376995221E-01 -0.81794185782E-02  0.53191291997E-02  0.49353731483E-01  0.51100000000E-03 0.  1.
</event>
<event>
 8    1  0.2025822E+004  0.1043930E+01  0.7957747E-01            NaN
         13   -1    0    0    0    0  0.00000000000E+00  0.00000000000E+00  0.74505805969E-08  0.10566000000E+00  0.10566000000E+00 0.  1.
     999900   -1    0    0    0    0 -0.00000000000E+00 -0.00000000000E+00 -0.74505805969E-08  0.93827000000E+00  0.93827000000E+00 0.  1.
     999902    2    1    2    0    0  0.26608326835E-02 -0.11379015437E-01  0.76177950829E-02  0.10299803468E+01  0.10298858781E+01 0.  0.
     999903    2    3    3    0    0  0.56670781514E-01 -0.89825969241E-01  0.82235399595E-01  0.14170179473E+00  0.45127103347E-01 0.  0.
         14    1    1    2    0    0 -0.26608326835E-02  0.11379015437E-01 -0.76177950829E-02  0.13949653215E-01  0.00000000000E+00 0. -1.
     999901    1    3    3    0    0 -0.54009948830E-01  0.78446953803E-01 -0.74617604512E-01  0.88827855205E+00  0.88000000000E+00 0.  1.
        -11    1    4    4    0    0  0.43571358055E-01 -0.60912094047E-01  0.30213612812E-01  0.80758095347E-01  0.51100000000E-03 0.  1.
         11    1    4    4    0    0  0.13099423459E-01 -0.28913875194E-01  0.52021786783E-01  0.60943699386E-01  0.51100000000E-03 0. -1.
</event>
<event>
 8    1  0.2025822E+004  0.1043930E+01  0.7957747E-01            NaN
         13   -1    0    0    0    0  0.00000000000E+00  0.00000000000E+00  0.74505805969E-08  0.10566000000E+00  0.10566000000E+00 0. -1.
     999900   -1    0    0    0    0 -0.00000000000E+00 -0.00000000000E+00 -0.74505805969E-08  0.93827000000E+00  0.93827000000E+00 0.  1.
     999902    2    1    2    0    0  0.11426583999E-01 -0.65397427184E-02  0.41480171584E-02  0.10301263373E+01  0.10300338488E+01 0.  0.
     999903    2    3    3    0    0  0.11152074744E-01 -0.12549405729E+00  0.43410928048E-01  0.14125526654E+00  0.46855250137E-01 0.  0.
         14    1    1    2    0    0 -0.11426583999E-01  0.65397427184E-02 -0.41480171584E-02  0.13803662668E-01  0.00000000000E+00 0. -1.
     999901    1    3    3    0    0  0.27450925569E-03  0.11895431458E+00 -0.39262910889E-01  0.88887107079E+00  0.88000000000E+00 0.  1.
        -11    1    4    4    0    0  0.47690979550E-02 -0.85870918950E-01  0.51592586970E-01  0.10029264763E+00  0.51100000000E-03 0.  1.
         11    1    4    4    0    0  0.63829767885E-02 -0.39623138344E-01 -0.81816589225E-02  0.40962618918E-01  0.51100000000E-03 0. -1.
</event>
<event>
 8    1  0.2025822E+004  0.1043930E+01  0.7957747E-01            NaN
         13   -1    0    0    0    0  0.00000000000E+00  0.00000000000E+00  0.74505805969E-08  0.10566000000E+00  0.10566000000E+00 0. -1.
     999900   -1    0    0    0    0 -0.00000000000E+00 -0.00000000000E+00 -0.74505805969E-08  0.93827000000E+00  0.93827000000E+00 0. -1.
     999902    2    1    2    0    0  0.34966132562E-02 -0.89505167659E-02  0.10487091420E-01  0.10297061770E+01  0.10296079321E+01 0.  0.
     999903    2    3    3    0    0 -0.32120600649E-01 -0.12194590444E+00  0.44802128049E-01  0.14110386701E+00  0.44727329590E-01 0.  0.
         14    1    1    2    0    0 -0.34966132562E-02  0.89505167659E-02 -0.10487091420E-01  0.14223823012E-01  0.00000000000E+00 0.  1.
     999901    1    3    3    0    0  0.35617213905E-01  0.11299538767E+00 -0.34315036629E-01  0.88860230998E+00  0.88000000000E+00 0. -1.
        -11    1    4    4    0    0 -0.17952452050E-01 -0.56264052245E-01  0.44432491971E-01  0.73908332232E-01  0.51100000000E-03 0.  1.
         11    1    4    4    0    0 -0.14168148599E-01 -0.65681852192E-01  0.36963607774E-03  0.67195534776E-01  0.51100000000E-03 0. -1.
</event>
<event>
 8    1  0.2025822E+004  0.1043930E+01  0.7957747E-01            NaN
         13   -1    0    0    0    0  0.00000000000E+00  0.00000000000E+00  0.74505805969E-08  0.10566000000E+00  0.10566000000E+00 0. -1.
     999900   -1    0    0    0    0 -0.00000000000E+00 -0.00000000000E+00 -0.74505805969E-08  0.93827000000E+00  0.93827000000E+00 0.  1.
     999902    2    1    2    0    0 -0.62405945746E-02  0.85849321352E-02 -0.87637256876E-02  0.10301659538E+01  0.10300739990E+01 0.  0.
     999903    2    3    3    0    0 -0.76866395322E-01 -0.12844326846E-01  0.10661632985E+00  0.13957077409E+00  0.45161263576E-01 0.  0.
         14    1    1    2    0    0  0.62405945746E-02 -0.85849321352E-02  0.87637256876E-02  0.13764046220E-01  0.00000000000E+00 0.  1.
     999901    1    3    3    0    0  0.70625800747E-01  0.21429258981E-01 -0.11538005554E+00  0.89059517969E+00  0.88000000000E+00 0.  1.
        -11    1    4    4    0    0 -0.29255079129E-01 -0.11350686608E-01  0.11927688420E-01  0.33574225433E-01  0.51100000000E-03 0.  1.
         11    1    4    4    0    0 -0.47611316192E-01 -0.14936402379E-02  0.94688641429E-01  0.10599654866E+00  0.51100000000E-03 0. -1.
</event>
<event>
 8    1  0.2025822E+004  0.1043930E+01  0.7957747E-01            NaN
         13   -1    0    0    0    0  0.00000000000E+00  0.00000000000E+00  0.74505805969E-08  0.10566000000E+00  0.10566000000E+00 0.  1.
     999900   -1    0    0    0    0 -0.00000000000E+00 -0.00000000000E+00 -0.74505805969E-08  0.93827000000E+00  0.93827000000E+00 0. -1.
     999902    2    1    2    0    0  0.93653256867E-02  0.84128190090E-02  0.61147329486E-02  0.10299344719E+01  0.10298393766E+01 0.  0.
     999903    2    3    3    0    0  0.12931100126E+00 -0.61119074695E-02 -0.32374211083E-01  0.14084542594E+00  0.45062778469E-01 0.  0.
         14    1    1    2    0    0 -0.93653256867E-02 -0.84128190090E-02 -0.61147329486E-02  0.13995528140E-01  0.00000000000E+00 0. -1.
     999901    1    3    3    0    0 -0.11994567558E+00  0.14524726479E-01  0.38488944031E-01  0.88908904592E+00  0.88000000000E+00 0.  1.
        -11    1    4    4    0    0  0.52270239837E-01  0.13507543994E-01 -0.28970203519E-01  0.61271245543E-01  0.51100000000E-03 0. -1.
         11    1    4    4    0    0  0.77040761426E-01 -0.19619451464E-01 -0.34040075631E-02  0.79574180393E-01  0.51100000000E-03 0.  1.
</event>
<event>
 8    1  0.2025822E+004  0.1043930E+01  0.7957747E-01            NaN
         13   -1    0    0    0    0  0.00000000000E+00  0.00000000000E+00  0.74505805969E-08  0.10566000000E+00  0.10566000000E+00 0. -1.
     999900   -1    0    0    0    0 -0.00000000000E+00 -0.00000000000E+00 -0.74505805969E-08  0.93827000000E+00  0.93827000000E+00 0.  1.
     999902    2    1    2    0    0 -0.13861845588E-01  0.76581915696E-03  0.13443271290E-03  0.10300463652E+01  0.10299527947E+01 0.  0.
     999903    2    3    3    0    0  0.10905920485E+00  0.12777729369E-02  0.72418668930E-01  0.13856733714E+00  0.45397141384E-01 0.  0.
         14    1    1    2    0    0  0.13861845588E-01 -0.76581915696E-03 -0.13443271290E-03  0.13883634764E-01  0.00000000000E+00 0. -1.
     999901    1    3    3    0    0 -0.12292105044E+00 -0.51195377998E-03 -0.72284236217E-01  0.89147902810E+00  0.88000000000E+00 0.  1.
        -11    1    4    4    0    0  0.73575473180E-01 -0.18194027187E-01  0.35159208023E-01  0.83551205310E-01  0.51100000000E-03 0.  1.
         11    1    4    4    0    0  0.35483731667E-01  0.19471800123E-01  0.37259460907E-01  0.55016131826E-01  0.51100000000E-03 0. -1.
</event>
<event>
 8    1  0.2025822E+004  0.1043930E+01  0.7957747E-01            NaN
         13   -1    0    0    0    0  0.00000000000E+00  0.00000000000E+00  0.74505805969E-08  0.10566000000E+00  0.10566000000E+00 0.  1.
     999900   -1    0    0    0    0 -0.00000000000E+00 -0.00000000000E+00 -0.74505805969E-08  0.93827000000E+00  0.93827000000E+00 0. -1.
     999902    2    1    2    0    0  0.96851317294E-02  0.25412422378E-02  0.97436680938E-02  0.10299586451E+01  0.10298638803E+01 0.  0.
     999903    2    3    3    0    0  0.56549108520E-01  0.12059610344E+00 -0.11422833936E-02  0.14077267668E+00  0.45545799463E-01 0.  0.
         14    1    1    2    0    0 -0.96851317294E-02 -0.25412422378E-02 -0.97436680938E-02  0.13971354861E-01  0.00000000000E+00 0. -1.
     999901    1    3    3    0    0 -0.46863976790E-01 -0.11805486120E+00  0.10885951487E-01  0.88918596846E+00  0.88000000000E+00 0.  1.
        -11    1    4    4    0    0  0.54113174457E-01  0.90278009222E-01 -0.16754634436E-01  0.10658017402E+00  0.51100000000E-03 0.  1.
         11    1    4    4    0    0  0.24359340627E-02  0.30318094214E-01  0.15612351042E-01  0.34192502652E-01  0.51100000000E-03 0. -1.
</event>
<event>
 8    1  0.2025822E+004  0.1043930E+01  0.7957747E-01            NaN
         13   -1    0    0    0    0  0.00000000000E+00  0.00000000000E+00  0.74505805969E-08  0.10566000000E+00  0.10566000000E+00 0. -1.
     999900   -1    0    0    0    0 -0.00000000000E+00 -0.00000000000E+00 -0.74505805969E-08  0.93827000000E+00  0.93827000000E+00 0. -1.
     999902    2    1    2    0    0 -0.79946693473E-02  0.10041554436E-01  0.51423225042E-02  0.10301028154E+01  0.10300100093E+01 0.  0.
     999903    2    3    3    0    0 -0.13103407767E+00  0.27859893217E-01  0.12693550663E-01  0.14133219805E+00  0.43215284525E-01 0.  0.
         14    1    1    2    0    0  0.79946693473E-02 -0.10041554436E-01 -0.51423225042E-02  0.13827184608E-01  0.00000000000E+00 0.  1.
     999901    1    3    3    0    0  0.12303940832E+00 -0.17818338781E-01 -0.75512281588E-02  0.88877061734E+00  0.88000000000E+00 0.  1.
        -11    1    4    4    0    0 -0.36352544813E-01  0.17300708636E-01  0.21522397048E-01  0.45654098714E-01  0.51100000000E-03 0.  1.
         11    1    4    4    0    0 -0.94681532859E-01  0.10559184581E-01 -0.88288463854E-02  0.95678099338E-01  0.51100000000E-03 0. -1.
</event>
<event>
 8    1  0.2025822E+004  0.1043930E+01  0.7957747E-01            NaN
         13   -1    0    0    0    0  0.00000000000E+00  0.00000000000E+00  0.74505805969E-08  0.10566000000E+00  0.10566000000E+00 0. -1.
     999900   -1    0    0    0    0 -0.00000000000E+00 -0.00000000000E+00 -0.74505805969E-08  0.93827000000E+00  0.93827000000E+00 0. -1.
     999902    2    1    2    0    0  0.84863079683E-02  0.92194427701E-02 -0.53028617615E-02  0.10303235350E+01  0.10302336875E+01 0.  0.
     999903    2    3    3    0    0 -0.78431879270E-01 -0.56796502884E-01 -0.90029143813E-01  0.13954218176E+00  0.44602369079E-01 0.  0.
         14    1    1    2    0    0 -0.84863079683E-02 -0.92194427701E-02  0.53028617615E-02  0.13606465036E-01  0.00000000000E+00 0. -1.
     999901    1    3    3    0    0  0.86918187239E-01  0.66015945654E-01  0.84726282052E-01  0.89078135321E+00  0.88000000000E+00 0. -1.
        -11    1    4    4    0    0 -0.31238698740E-01 -0.37538795605E-01 -0.68688326371E-01  0.84281461634E-01  0.51100000000E-03 0.  1.
         11    1    4    4    0    0 -0.47193180531E-01 -0.19257707279E-01 -0.21340817442E-01  0.55260720122E-01  0.51100000000E-03 0. -1.
</event>
<event>
 8    1  0.2025822E+004  0.1043930E+01  0.7957747E-01            NaN
         13   -1    0    0    0    0  0.00000000000E+00  0.00000000000E+00  0.74505805969E-08  0.10566000000E+00  0.10566000000E+00 0. -1.
     999900   -1    0    0    0    0 -0.00000000000E+00 -0.00000000000E+00 -0.74505805969E-08  0.93827000000E+00  0.93827000000E+00 0.  1.
     999902    2    1    2    0    0  0.12900490885E-02 -0.88023188833E-02  0.91092363805E-02  0.10311972379E+01  0.10311186256E+01 0.  0.
     999903    2    3    3    0    0  0.63518351649E-01 -0.58658210726E-01  0.10412796225E+00  0.14249789058E+00  0.44583064205E-01 0.  0.
         14    1    1    2    0    0 -0.12900490885E-02  0.88023188833E-02 -0.91092363805E-02  0.12732762144E-01  0.00000000000E+00 0.  1.
     999901    1    3    3    0    0 -0.62228302561E-01  0.49855891843E-01 -0.95018725871E-01  0.88869934728E+00  0.88000000000E+00 0.  1.
        -11    1    4    4    0    0  0.18610274675E-02 -0.23537873190E-01  0.41994709726E-01  0.48179992357E-01  0.51100000000E-03 0.  1.
         11    1    4    4    0    0  0.61657324182E-01 -0.35120337537E-01  0.62133252525E-01  0.94317898218E-01  0.51100000000E-03 0. -1.
</event>
<event>
 8    1  0.2025822E+004  0.1043930E+01  0.7957747E-01            NaN
         13   -1    0    0    0    0  0.00000000000E+00  0.00000000000E+00  0.74505805969E-08  0.10566000000E+00  0.10566000000E+00 0. -1.
     999900   -1    0    0    0    0 -0.00000000000E+00 -0.00000000000E+00 -0.74505805969E-08  0.93827000000E+00  0.93827000000E+00 0. -1.
     999902    2    1    2    0    0  0.41540812452E-02 -0.44080405628E-02 -0.12616911534E-01  0.10299345125E+01  0.10298394178E+01 0.  0.
     999903    2    3    3    0    0 -0.30967065802E-02  0.13177783318E+00 -0.57003494542E-03  0.13934802411E+00  0.45194689676E-01 0.  0.
         14    1    1    2    0    0 -0.41540812452E-02  0.44080405628E-02  0.12616911534E-01  0.13995487461E-01  0.00000000000E+00 0.  1.
     999901    1    3    3    0    0  0.72507878254E-02 -0.13618587374E+00 -0.12046876589E-01  0.89058648843E+00  0.88000000000E+00 0.  1.
        -11    1    4    4    0    0  0.11959563044E-01  0.10346746574E+00  0.12117902985E-01  0.10486015596E+00  0.51100000000E-03 0.  1.
         11    1    4    4    0    0 -0.15056269624E-01  0.28310367441E-01 -0.12687937930E-01  0.34487868151E-01  0.51100000000E-03 0. -1.
</event>
<event>
 8    1  0.2025822E+004  0.1043930E+01  0.7957747E-01            NaN
         13   -1    0    0    0    0  0.00000000000E+00  0.00000000000E+00  0.74505805969E-08  0.10566000000E+00  0.10566000000E+00 0. -1.
     999900   -1    0    0    0    0 -0.00000000000E+00 -0.00000000000E+00 -0.74505805969E-08  0.93827000000E+00  0.93827000000E+00 0.  1.
     999902    2    1    2    0    0 -0.13319278070E-02 -0.66980613469E-02  0.13882650141E-01  0.10284585414E+01  0.10283421635E+01 0.  0.
     999903    2    3    3    0    0  0.73062199630E-01  0.27061884750E-02  0.10823410775E+00  0.14024397063E+00  0.51071917390E-01 0.  0.
         14    1    1    2    0    0  0.13319278070E-02  0.66980613469E-02 -0.13882650141E-01  0.15471458639E-01  0.00000000000E+00 0.  1.
     999901    1    3    3    0    0 -0.74394127437E-01 -0.94042498218E-02 -0.94351457608E-01  0.88821457073E+00  0.88000000000E+00 0.  1.
        -11    1    4    4    0    0  0.10993066577E-02 -0.27125344090E-03  0.43150664577E-01  0.43168542111E-01  0.51100000000E-03 0.  1.
         11    1    4    4    0    0  0.71962892972E-01  0.29774419159E-02  0.65083443173E-01  0.97075428516E-01  0.51100000000E-03 0. -1.
</event>
<event>
 7    1  0.2025822E+004  0.1043930E+01  0.7957747E-01            NaN
         13   -1    0    0    0    0  0.00000000000E+00  0.00000000000E+00  0.74505805969E-08  0.10566000000E+00  0.10566000000E+00 0.  1.
     999900   -1    0    0    0    0 -0.00000000000E+00 -0.00000000000E+00 -0.74505805969E-08  0.93827000000E+00  0.93827000000E+00 0. -1.
     999902    2    1    2    0    0 -0.11207398905E-01 -0.40830011158E-02 -0.72740624631E-02  0.10299590060E+01  0.10298642461E+01 0.  0.
         14    1    1    2    0    0  0.11207398905E-01  0.40830011158E-02  0.72740624631E-02  0.13970993989E-01  0.00000000000E+00 0.  1.
     999901    1    3    3    0    0 -0.10772953862E+00  0.19205390753E-01 -0.23248857667E-01  0.88708230165E+00  0.88000000000E+00 0.  1.
        -11    1    3    3    0    0  0.52803464831E-01 -0.62313126701E-01 -0.15974426463E-02  0.81694214002E-01  0.51100000000E-03 0.  1.
         11    1    3    3    0    0  0.43718674881E-01  0.39024734832E-01  0.17572237851E-01  0.61182490356E-01  0.51100000000E-03 0. -1.
</event>
<event>
 8    1  0.2025822E+004  0.1043930E+01  0.7957747E-01            NaN
         13   -1    0    0    0    0  0.00000000000E+00  0.00000000000E+00  0.74505805969E-08  0.10566000000E+00  0.10566000000E+00 0.  1.
     999900   -1    0    0    0    0 -0.00000000000E+00 -0.00000000000E+00 -0.74505805969E-08  0.93827000000E+00  0.93827000000E+00 0.  1.
     999902    2    1    2    0    0  0.95506865965E-03  0.12904540421E-01 -0.72826447730E-02  0.10290815578E+01  0.10289744294E+01 0.  0.
     999903    2    3    3    0    0 -0.33609789474E-01 -0.68472078176E-01 -0.10740701039E+00  0.13900191418E+00  0.44353385737E-01 0.  0.
         14    1    1    2    0    0 -0.95506865965E-03 -0.12904540421E-01  0.72826447730E-02  0.14848442158E-01  0.00000000000E+00 0.  1.
     999901    1    3    3    0    0  0.34564858134E-01  0.81376618597E-01  0.10012436562E+00  0.89007964366E+00  0.88000000000E+00 0. -1.
        -11    1    4    4    0    0 -0.39172442413E-01 -0.53257546286E-01 -0.10267104726E+00  0.12211654903E+00  0.51100000000E-03 0.  1.
         11    1    4    4    0    0  0.55626529390E-02 -0.15214531890E-01 -0.47359631281E-02  0.16885365145E-01  0.51100000000E-03 0. -1.
</event>
<event>
 8    1  0.2025822E+004  0.1043930E+01  0.7957747E-01            NaN
         13   -1    0    0    0    0  0.00000000000E+00  0.00000000000E+00  0.74505805969E-08  0.10566000000E+00  0.10566000000E+00 0. -1.
     999900   -1    0    0    0    0 -0.00000000000E+00 -0.00000000000E+00 -0.74505805969E-08  0.93827000000E+00  0.93827000000E+00 0.  1.
     999902    2    1    2    0    0 -0.12362064539E-02  0.93699683644E-02 -0.99525455359E-02  0.10302049253E+01  0.10301134939E+01 0.  0.
     999903    2    3    3    0    0  0.39058864661E-01  0.12687268267E+00 -0.17490001328E-01  0.14144883170E+00  0.45602624127E-01 0.  0.
         14    1    1    2    0    0  0.12362064539E-02 -0.93699683644E-02  0.99525455359E-02  0.13725074724E-01  0.00000000000E+00 0. -1.
     999901    1    3    3    0    0 -0.40295071115E-01 -0.11750271430E+00  0.75374557922E-02  0.88875609357E+00  0.88000000000E+00 0.  1.
        -11    1    4    4    0    0  0.11350178202E-01  0.60720972512E-01  0.13639035064E-01  0.63262527980E-01  0.51100000000E-03 0.  1.
         11    1    4    4    0    0  0.27708686459E-01  0.66151710157E-01 -0.31129036392E-01  0.78186303722E-01  0.51100000000E-03 0. -1.
</event>
<event>
 8    1  0.2025822E+004  0.1043930E+01  0.7957747E-01            NaN
         13   -1    0    0    0    0  0.00000000000E+00  0.00000000000E+00  0.74505805969E-08  0.10566000000E+00  0.10566000000E+00 0. -1.
     999900   -1    0    0    0    0 -0.00000000000E+00 -0.00000000000E+00 -0.74505805969E-08  0.93827000000E+00  0.93827000000E+00 0.  1.
     999902    2    1    2    0    0 -0.64174393869E-02  0.11701255620E-01 -0.30249772422E-02  0.10302459436E+01  0.10301550616E+01 0.  0.
     999903    2    3    3    0    0  0.11512957146E+00  0.41995849796E-02 -0.64871453491E-01  0.13970962347E+00  0.45144420176E-01 0.  0.
         14    1    1    2    0    0  0.64174393869E-02 -0.11701255620E-01  0.30249772422E-02  0.13684056368E-01  0.00000000000E+00 0.  1.
     999901    1    3    3    0    0 -0.12154701085E+00  0.75016706405E-02  0.61846476249E-01  0.89053632016E+00  0.88000000000E+00 0.  1.
        -11    1    4    4    0    0  0.27500925380E-01 -0.12447391963E-01 -0.13792585572E-02  0.30222540241E-01  0.51100000000E-03 0.  1.
         11    1    4    4    0    0  0.87628646079E-01  0.16646976943E-01 -0.63492194934E-01  0.10948708323E+00  0.51100000000E-03 0. -1.
</event>
<event>
 8    1  0.2025822E+004  0.1043930E+01  0.7957747E-01            NaN
         13   -1    0    0    0    0  0.00000000000E+00  0.00000000000E+00  0.74505805969E-08  0.10566000000E+00  0.10566000000E+00 0. -1.
     999900   -1    0    0    0    0 -0.00000000000E+00 -0.00000000000E+00 -0.74505805969E-08  0.93827000000E+00  0.93827000000E+00 0.  1.
     999902    2    1    2    0    0 -0.61704765592E-02  0.14783123742E-01  0.61860903708E-02  0.10267578352E+01  0.10266142260E+01 0.  0.
     999903    2    3    3    0    0 -0.72519824655E-01  0.11030056112E+00 -0.18859640281E-03  0.13908308992E+00  0.43803328445E-01 0.  0.
         14    1    1    2    0    0  0.61704765592E-02 -0.14783123742E-01 -0.61860903708E-02  0.17172164762E-01  0.00000000000E+00 0.  1.
     999901    1    3    3    0    0  0.66349348095E-01 -0.95517437379E-01  0.63746867736E-02  0.88767474531E+00  0.88000000000E+00 0. -1.
        -11    1    4    4    0    0 -0.44550074417E-02  0.24045338173E-01  0.14175637027E-01  0.28270747872E-01  0.51100000000E-03 0.  1.
         11    1    4    4    0    0 -0.68064817213E-01  0.86255222948E-01 -0.14364233430E-01  0.11081234205E+00  0.51100000000E-03 0. -1.
</event>
<event>
 8    1  0.2025822E+004  0.1043930E+01  0.7957747E-01            NaN
         13   -1    0    0    0    0  0.00000000000E+00  0.00000000000E+00  0.74505805969E-08  0.10566000000E+00  0.10566000000E+00 0.  1.
     999900   -1    0    0    0    0 -0.00000000000E+00 -0.00000000000E+00 -0.74505805969E-08  0.93827000000E+00  0.93827000000E+00 0. -1.
     999902    2    1    2    0    0  0.55731744954E-02 -0.14826643781E-02 -0.10676775404E-01  0.10317952523E+01  0.10317238926E+01 0.  0.
     999903    2    3    3    0    0 -0.27247743628E-01  0.12983246948E+00 -0.14416757279E-01  0.14143865833E+00  0.46884341910E-01 0.  0.
         14    1    1    2    0    0 -0.55731744954E-02  0.14826643781E-02  0.10676775404E-01  0.12134747654E-01  0.00000000000E+00 0.  1.
     999901    1    3    3    0    0  0.32820918123E-01 -0.13131513385E+00  0.37399818752E-02  0.89035659402E+00  0.88000000000E+00 0.  1.
        -11    1    4    4    0    0 -0.22614385831E-01  0.10147840567E+00  0.90181724055E-02  0.10435931112E+00  0.51100000000E-03 0.  1.
         11    1    4    4    0    0 -0.46333577972E-02  0.28354063806E-01 -0.23434929684E-01  0.37079347204E-01  0.51100000000E-03 0. -1.
</event>
<event>
 8    1  0.2025822E+004  0.1043930E+01  0.7957747E-01            NaN
         13   -1    0    0    0    0  0.00000000000E+00  0.00000000000E+00  0.74505805969E-08  0.10566000000E+00  0.10566000000E+00 0.  1.
     999900   -1    0    0    0    0 -0.00000000000E+00 -0.00000000000E+00 -0.74505805969E-08  0.93827000000E+00  0.93827000000E+00 0.  1.
     999902    2    1    2    0    0 -0.76454611250E-02 -0.90817337715E-02  0.71633653410E-02  0.10300647641E+01  0.10299714430E+01 0.  0.
     999903    2    3    3    0    0 -0.67085512713E-01  0.11298363475E+00  0.14877628225E-01  0.13961960363E+00  0.44794220131E-01 0.  0.
         14    1    1    2    0    0  0.76454611250E-02  0.90817337715E-02 -0.71633653410E-02  0.13865235920E-01  0.00000000000E+00 0.  1.
     999901    1    3    3    0    0  0.59440051588E-01 -0.12206536852E+00 -0.77142628840E-02  0.89044516045E+00  0.88000000000E+00 0.  1.
        -11    1    4    4    0    0 -0.49295322565E-01  0.10648427220E+00  0.32461540729E-02  0.11738708485E+00  0.51100000000E-03 0. -1.
         11    1    4    4    0    0 -0.17790190149E-01  0.64993625530E-02  0.11631474152E-01  0.22232518775E-01  0.51100000000E-03 0.  1.
</event>
<event>
 8    1  0.2025822E+004  0.1043930E+01  0.7957747E-01            NaN
         13   -1    0    0    0    0  0.00000000000E+00  0.00000000000E+00  0.74505805969E-08  0.10566000000E+00  0.10566000000E+00 0. -1.
     999900   -1    0    0    0    0 -0.00000000000E+00 -0.00000000000E+00 -0.74505805969E-08  0.93827000000E+00  0.93827000000E+00 0.  1.
     999902    2    1    2    0    0 -0.68067983600E-02  0.11342167945E-01 -0.19323391128E-02  0.10305617087E+01  0.10304749993E+01 0.  0.
     999903    2    3    3    0    0 -0.58824957982E-01 -0.11468134718E+00 -0.28945739967E-01  0.13965344232E+00  0.45310495645E-01 0.  0.
         14    1    1    2    0    0  0.68067983600E-02 -0.11342167945E-01  0.19323391128E-02  0.13368291291E-01  0.00000000000E+00 0. -1.
     999901    1    3    3    0    0  0.52018159622E-01  0.12602351513E+00  0.27013400854E-01  0.89090826639E+00  0.88000000000E+00 0. -1.
        -11    1    4    4    0    0 -0.42527558301E-01 -0.47551545590E-01  0.22912292630E-02  0.63837712643E-01  0.51100000000E-03 0.  1.
         11    1    4    4    0    0 -0.16297399681E-01 -0.67129801595E-01 -0.31236969230E-01  0.75815729676E-01  0.51100000000E-03 0. -1.
</event>
<event>
 8    1  0.2025822E+004  0.1043930E+01  0.7957747E-01            NaN
         13   -1    0    0    0    0  0.00000000000E+00  0.00000000000E+00  0.74505805969E-08  0.10566000000E+00  0.10566000000E+00 0.  1.
     999900   -1    0    0    0    0 -0.00000000000E+00 -0.00000000000E+00 -0.74505805969E-08  0.93827000000E+00  0.93827000000E+00 0. -1.
     999902    2    1    2    0    0  0.39088762608E-02  0.74290598185E-02 -0.10720545740E-01  0.10303138205E+01  0.10302238438E+01 0.  0.
     999903    2    3    3    0    0 -0.66757602797E-01 -0.50785721304E-02 -0.11600513148E+00  0.14113721480E+00  0.44498915107E-01 0.  0.
         14    1    1    2    0    0 -0.39088762608E-02 -0.74290598185E-02  0.10720545740E-01  0.13616179507E-01  0.00000000000E+00 0. -1.
     999901    1    3    3    0    0  0.70666479058E-01  0.12507631949E-01  0.10528458574E+00  0.88917660569E+00  0.88000000000E+00 0.  1.
        -11    1    4    4    0    0 -0.41551525113E-01 -0.11532188597E-01 -0.33449857312E-01  0.54577235989E-01  0.51100000000E-03 0. -1.
         11    1    4    4    0    0 -0.25206077684E-01  0.64536164665E-02 -0.82555274167E-01  0.86559978809E-01  0.51100000000E-03 0.  1.
</event>
<event>
 8    1  0.2025822E+004  0.1043930E+01  0.7957747E-01            NaN
         13   -1    0    0    0    0  0.00000000000E+00  0.00000000000E+00  0.74505805969E-08  0.10566000000E+00  0.10566000000E+00 0.  1.
     999900   -1    0    0    0    0 -0.00000000000E+00 -0.00000000000E+00 -0.74505805969E-08  0.93827000000E+00  0.93827000000E+00 0.  1.
     999902    2    1    2    0    0 -0.84240048089E-02 -0.11892760042E-01  0.39047969469E-03  0.10293507657E+01  0.10292475139E+01 0.  0.
     999903    2    3    3    0    0 -0.12014387557E+00 -0.48261316022E-02  0.57022765320E-01  0.14045342487E+00  0.44919109613E-01 0.  0.
         14    1    1    2    0    0  0.84240048089E-02  0.11892760042E-01 -0.39047969469E-03  0.14579234302E-01  0.00000000000E+00 0. -1.
     999901    1    3    3    0    0  0.11171987076E+00 -0.70666284399E-02 -0.56632285625E-01  0.88889734083E+00  0.88000000000E+00 0.  1.
        -11    1    4    4    0    0 -0.96299462456E-01 -0.16527053907E-01  0.29185770058E-01  0.10197450797E+00  0.51100000000E-03 0.  1.
         11    1    4    4    0    0 -0.23844413117E-01  0.11700922305E-01  0.27836995262E-01  0.38478916901E-01  0.51100000000E-03 0. -1.
</event>
<event>
 8    1  0.2025822E+004  0.1043930E+01  0.7957747E-01            NaN
         13   -1    0    0    0    0  0.00000000000E+00  0.00000000000E+00  0.74505805969E-08  0.10566000000E+00  0.10566000000E+00 0. -1.
     999900   -1    0    0    0    0 -0.00000000000E+00 -0.00000000000E+00 -0.74505805969E-08  0.93827000000E+00  0.93827000000E+00 0. -1.
     999902    2    1    2    0    0 -0.13253921706E-01  0.18648167643E-02 -0.37471011146E-02  0.10300309083E+01  0.10299371279E+01 0.  0.
     999903    2    3    3    0    0  0.61319181445E-01  0.10434859402E+00 -0.50860584530E-01  0.13970301782E+00  0.47764663119E-01 0.  0.
         14    1    1    2    0    0  0.13253921706E-01 -0.18648167643E-02  0.37471011146E-02  0.13899091658E-01  0.00000000000E+00 0. -1.
     999901    1    3    3    0    0 -0.74573103151E-01 -0.10248377726E+00  0.47113483415E-01  0.89032789052E+00  0.88000000000E+00 0.  1.
        -11    1    4    4    0    0  0.37663141179E-01  0.24761665301E-01 -0.64306723871E-02  0.45533141120E-01  0.51100000000E-03 0. -1.
         11    1    4    4    0    0  0.23656040266E-01  0.79586928721E-01 -0.44429912143E-01  0.94169876704E-01  0.51100000000E-03 0.  1.
</event>
<event>
 8    1  0.2025822E+004  0.1043930E+01  0.7957747E-01            NaN
         13   -1    0    0    0    0  0.00000000000E+00  0.00000000000E+00  0.74505805969E-08  0.10566000000E+00  0.10566000000E+00 0.  1.
     999900   -1    0    0    0    0 -0.00000000000E+00 -0.00000000000E+00 -0.74505805969E-08  0.93827000000E+00  0.93827000000E+00 0. -1.
     999902    2    1    2    0    0  0.76645162216E-02  0.12390028257E-01 -0.54091402078E-02  0.10283892019E+01  0.10282717705E+01 0.  0.
     999903    2    3    3    0    0 -0.14984228207E-01 -0.12561705921E+00  0.26243903102E-01  0.13678343866E+00  0.44908729471E-01 0.  0.
         14    1    1    2    0    0 -0.76645162216E-02 -0.12390028257E-01  0.54091402078E-02  0.15540798143E-01  0.00000000000E+00 0.  1.
     999901    1    3    3    0    0  0.22648744429E-01  0.13800708747E+00 -0.31653043309E-01  0.89160576320E+00  0.88000000000E+00 0. -1.
        -11    1    4    4    0    0 -0.28376817180E-01 -0.58001269390E-01  0.19856471833E-01  0.67556876769E-01  0.51100000000E-03 0.  1.
         11    1    4    4    0    0  0.13392588973E-01 -0.67615789818E-01  0.63874312682E-02  0.69226561892E-01  0.51100000000E-03 0. -1.
</event>
<event>
 8    1  0.2025822E+004  0.1043930E+01  0.7957747E-01            NaN
         13   -1    0    0    0    0  0.00000000000E+00  0.00000000000E+00  0.74505805969E-08  0.10566000000E+00  0.10566000000E+00 0. -1.
     999900   -1    0    0    0    0 -0.00000000000E+00 -0.00000000000E+00 -0.74505805969E-08  0.93827000000E+00  0.93827000000E+00 0. -1.
     999902    2    1    2    0    0  0.28384250614E-02  0.12140619217E-01 -0.59890911688E-02  0.10300981344E+01  0.10300052651E+01 0.  0.
     999903    2    3    3    0    0 -0.86237360896E-01 -0.99076814649E-01 -0.11406001649E-01  0.13862006059E+00  0.42805685472E-01 0.  0.
         14    1    1    2    0    0 -0.28384250614E-02 -0.12140619217E-01  0.59890911688E-02  0.13831865559E-01  0.00000000000E+00 0. -1.
     999901    1    3    3    0    0  0.89075785958E-01  0.11121743387E+00  0.54169104806E-02  0.89147807385E+00  0.88000000000E+00 0.  1.
        -11    1    4    4    0    0 -0.42280584336E-01 -0.76394342198E-01 -0.16606641688E-01  0.88880734700E-01  0.51100000000E-03 0. -1.
         11    1    4    4    0    0 -0.43956776561E-01 -0.22682472451E-01  0.52006400385E-02  0.49739325889E-01  0.51100000000E-03 0.  1.
</event>
<event>
 8    1  0.2025822E+004  0.1043930E+01  0.7957747E-01            NaN
         13   -1    0    0    0    0  0.00000000000E+00  0.00000000000E+00  0.74505805969E-08  0.10566000000E+00  0.10566000000E+00 0. -1.
     999900   -1    0    0    0    0 -0.00000000000E+00 -0.00000000000E+00 -0.74505805969E-08  0.93827000000E+00  0.93827000000E+00 0. -1.
     999902    2    1    2    0    0  0.46440656288E-02  0.96309623606E-02  0.87320698092E-02  0.10301252246E+01  0.10300327211E+01 0.  0.
     999903    2    3    3    0    0 -0.11657288202E+00 -0.57139495349E-01  0.16394846144E-01  0.13927699925E+00  0.47698352039E-01 0.  0.
         14    1    1    2    0    0 -0.46440656288E-02 -0.96309623606E-02 -0.87320698092E-02  0.13804775431E-01  0.00000000000E+00 0.  1.
     999901    1    3    3    0    0  0.12121694765E+00  0.66770457710E-01 -0.76627763346E-02  0.89084822532E+00  0.88000000000E+00 0. -1.
        -11    1    4    4    0    0 -0.57215416811E-01 -0.51850822874E-01 -0.90596715666E-03  0.77221717484E-01  0.51100000000E-03 0. -1.
         11    1    4    4    0    0 -0.59357465210E-01 -0.52886724750E-02  0.17300813301E-01  0.62055281762E-01  0.51100000000E-03 0.  1.
</event>
<event>
 8    1  0.2025822E+004  0.1043930E+01  0.7957747E-01            NaN
         13   -1    0    0    0    0  0.00000000000E+00  0.00000000000E+00  0.74505805969E-08  0.10566000000E+00  0.10566000000E+00 0. -1.
     999900   -1    0    0    0    0 -0.00000000000E+00 -0.00000000000E+00 -0.74505805969E-08  0.93827000000E+00  0.93827000000E+00 0.  1.
     999902    2    1    2    0    0 -0.86033775923E-02 -0.11515810142E-01 -0.44006007619E-02  0.10288967942E+01  0.10287869633E+01 0.  0.
     999903    2    3    3    0    0  0.17217069188E-01  0.12854037675E+00  0.72616901383E-02  0.13737088882E+00  0.44709876135E-01 0.  0.
         14    1    1    2    0    0  0.86033775923E-02  0.11515810142E-01  0.44006007619E-02  0.15033205789E-01  0.00000000000E+00 0. -1.
     999901    1    3    3    0    0 -0.25820446781E-01 -0.14005618689E+00 -0.11662290900E-01  0.89152590539E+00  0.88000000000E+00 0. -1.
        -11    1    4    4    0    0  0.78935935399E-02  0.11226839751E+00  0.20514770406E-01  0.11440113121E+00  0.51100000000E-03 0. -1.
         11    1    4    4    0    0  0.93234756485E-02  0.16271979246E-01 -0.13253080267E-01  0.22969757603E-01  0.51100000000E-03 0.  1.
</event>
<event>
 8    1  0.2025822E+004  0.1043930E+01  0.7957747E-01            NaN
         13   -1    0    0    0    0  0.00000000000E+00  0.00000000000E+00  0.74505805969E-08  0.10566000000E+00  0.10566000000E+00 0. -1.
     999900   -1    0    0    0    0 -0.00000000000E+00 -0.00000000000E+00 -0.74505805969E-08  0.93827000000E+00  0.93827000000E+00 0.  1.
     999902    2    1    2    0    0 -0.33225757216E-02  0.33761246726E-02 -0.13061249135E-01  0.10300363340E+01  0.10299426272E+01 0.  0.
     999903    2    3    3    0    0  0.25962364174E-01  0.12116214663E+00  0.45541068840E-01  0.13977491934E+00  0.45920899337E-01 0.  0.
         14    1    1    2    0    0  0.33225757216E-02 -0.33761246726E-02  0.13061249135E-01  0.13893666046E-01  0.00000000000E+00 0. -1.
     999901    1    3    3    0    0 -0.29284939896E-01 -0.11778602196E+00 -0.58602317975E-01  0.89026141461E+00  0.88000000000E+00 0.  1.
        -11    1    4    4    0    0 -0.12093760255E-01  0.44563745567E-01  0.21430835249E-01  0.50909019599E-01  0.51100000000E-03 0. -1.
         11    1    4    4    0    0  0.38056124429E-01  0.76598401066E-01  0.24110233591E-01  0.88865899744E-01  0.51100000000E-03 0.  1.
</event>
<event>
 8    1  0.2025822E+004  0.1043930E+01  0.7957747E-01            NaN
         13   -1    0    0    0    0  0.00000000000E+00  0.00000000000E+00  0.74505805969E-08  0.10566000000E+00  0.10566000000E+00 0. -1.
     999900   -1    0    0    0    0 -0.00000000000E+00 -0.00000000000E+00 -0.74505805969E-08  0.93827000000E+00  0.93827000000E+00 0.  1.
     999902    2    1    2    0    0 -0.17517938081E-02 -0.30439904911E-02  0.13752723282E-01  0.10297359147E+01  0.10296380830E+01 0.  0.
     999903    2    3    3    0    0 -0.82445202603E-01  0.81612348112E-01 -0.61438512205E-01  0.13881962022E+00  0.45148747261E-01 0.  0.
         14    1    1    2    0    0  0.17517938081E-02  0.30439904911E-02 -0.13752723282E-01  0.14194085294E-01  0.00000000000E+00 0.  1.
     999901    1    3    3    0    0  0.80693408795E-01 -0.84656338603E-01  0.75191235487E-01  0.89091629449E+00  0.88000000000E+00 0. -1.
        -11    1    4    4    0    0 -0.93748679473E-02  0.31480204504E-01 -0.30871744476E-01  0.45080119261E-01  0.51100000000E-03 0. -1.
         11    1    4    4    0    0 -0.73070334655E-01  0.50132143608E-01 -0.30566767729E-01  0.93739500958E-01  0.51100000000E-03 0.  1.
</event>
<event>
 8    1  0.2025822E+004  0.1043930E+01  0.7957747E-01            NaN
         13   -1    0    0    0    0  0.00000000000E+00  0.00000000000E+00  0.74505805969E-08  0.10566000000E+00  0.10566000000E+00 0.  1.
     999900   -1    0    0    0    0 -0.00000000000E+00 -0.00000000000E+00 -0.74505805969E-08  0.93827000000E+00  0.93827000000E+00 0. -1.
     999902    2    1    2    0    0  0.33743108412E-02 -0.73334376006E-02 -0.11741313966E-01  0.10296813603E+01  0.10295827698E+01 0.  0.
     999903    2    3    3    0    0  0.20315761403E-01 -0.33313041706E-01  0.12417255080E+00  0.13870743741E+00  0.47942068261E-01 0.  0.
         14    1    1    2    0    0 -0.33743108412E-02  0.73334376006E-02  0.11741313966E-01  0.14248639736E-01  0.00000000000E+00 0.  1.
     999901    1    3    3    0    0 -0.16941450562E-01  0.25979604105E-01 -0.13591386477E+00  0.89097392286E+00  0.88000000000E+00 0. -1.
        -11    1    4    4    0    0  0.14801198563E-01 -0.40247544550E-01  0.59034541075E-01  0.72967653670E-01  0.51100000000E-03 0.  1.
         11    1    4    4    0    0  0.55145628401E-02  0.69345028438E-02  0.65138009730E-01  0.65739783735E-01  0.51100000000E-03 0. -1.
</event>
<event>
 7    1  0.2025822E+004  0.1043930E+01  0.7957747E-01            NaN
         13   -1    0    0    0    0  0.00000000000E+00  0.00000000000E+00  0.74505805969E-08  0.10566000000E+00  0.10566000000E+00 0.  1.
     999900   -1    0    0    0    0 -0.00000000000E+00 -0.00000000000E+00 -0.74505805969E-08  0.93827000000E+00  0.93827000000E+00 0.  1.
     999903    2    1    2    0    0 -0.51767103777E-01  0.61277333164E-01  0.59212546282E-01  0.10942382738E+00  0.45085516177E-01 0.  0.
         14    1    1    2    0    0  0.28177726447E-02  0.29891082471E-01 -0.37683574581E-01  0.48181619391E-01  0.00000000000E+00 0. -1.
     999901    1    1    2    0    0  0.48949331132E-01 -0.91168415635E-01 -0.21528971701E-01  0.88632455323E+00  0.88000000000E+00 0.  1.
        -11    1    3    3    0    0 -0.22885982057E-01  0.11985873536E-01  0.42776047246E-01  0.49974800431E-01  0.51100000000E-03 0. -1.
         11    1    3    3    0    0 -0.28881121720E-01  0.49291459627E-01  0.16436499036E-01  0.59449026952E-01  0.51100000000E-03 0.  1.
</event>
<event>
 8    1  0.2025822E+004  0.1043930E+01  0.7957747E-01            NaN
         13   -1    0    0    0    0  0.00000000000E+00  0.00000000000E+00  0.74505805969E-08  0.10566000000E+00  0.10566000000E+00 0.  1.
     999900   -1    0    0    0    0 -0.00000000000E+00 -0.00000000000E+00 -0.74505805969E-08  0.93827000000E+00  0.93827000000E+00 0. -1.
     999902    2    1    2    0    0 -0.10784984216E-01 -0.62977372753E-02 -0.59381694888E-02  0.10301010725E+01  0.10300082428E+01 0.  0.
     999903    2    3    3    0    0  0.87845808242E-01 -0.65522040794E-01  0.71470960455E-01  0.13924321359E+00  0.47650293686E-01 0.  0.
         14    1    1    2    0    0  0.10784984216E-01  0.62977372753E-02  0.59381694888E-02  0.13828927515E-01  0.00000000000E+00 0.  1.
     999901    1    3    3    0    0 -0.98630792458E-01  0.59224303519E-01 -0.77409129944E-01  0.89085785889E+00  0.88000000000E+00 0. -1.
        -11    1    4    4    0    0  0.43798046290E-01 -0.62242002021E-02  0.16718143935E-01  0.47294470973E-01  0.51100000000E-03 0.  1.
         11    1    4    4    0    0  0.44047761952E-01 -0.59297840592E-01  0.54752816520E-01  0.91948742622E-01  0.51100000000E-03 0. -1.
</event>
<event>
 8    1  0.2025822E+004  0.1043930E+01  0.7957747E-01            NaN
         13   -1    0    0    0    0  0.00000000000E+00  0.00000000000E+00  0.74505805969E-08  0.10566000000E+00  0.10566000000E+00 0.  1.
     999900   -1    0    0    0    0 -0.00000000000E+00 -0.00000000000E+00 -0.74505805969E-08  0.93827000000E+00  0.93827000000E+00 0.  1.
     999902    2    1    2    0    0  0.63824716150E-02  0.11943156654E-01  0.41197221164E-02  0.10297755998E+01  0.10296783182E+01 0.  0.
     999903    2    3    3    0    0 -0.13031296784E+00 -0.83693371032E-02  0.14400894077E-01  0.13893108864E+00  0.45198962912E-01 0.  0.
         14    1    1    2    0    0 -0.63824716150E-02 -0.11943156654E-01 -0.41197221164E-02  0.14154400203E-01  0.00000000000E+00 0. -1.
     999901    1    3    3    0    0  0.13669543946E+00  0.20312493757E-01 -0.10281171960E-01  0.89084451116E+00  0.88000000000E+00 0. -1.
        -11    1    4    4    0    0 -0.86602170982E-01  0.49053065669E-02  0.28193921608E-01  0.91209409537E-01  0.51100000000E-03 0. -1.
         11    1    4    4    0    0 -0.43710796858E-01 -0.13274643670E-01 -0.13793027532E-01  0.47721679099E-01  0.51100000000E-03 0.  1.
</event>
<event>
 8    1  0.2025822E+004  0.1043930E+01  0.7957747E-01            NaN
         13   -1    0    0    0    0  0.00000000000E+00  0.00000000000E+00  0.74505805969E-08  0.10566000000E+00  0.10566000000E+00 0.  1.
     999900   -1    0    0    0    0 -0.00000000000E+00 -0.00000000000E+00 -0.74505805969E-08  0.93827000000E+00  0.93827000000E+00 0. -1.
     999902    2    1    2    0    0 -0.16428443649E-02 -0.13287870662E-01 -0.45772758547E-02  0.10297801626E+01  0.10296829441E+01 0.  0.
     999903    2    3    3    0    0 -0.10057926360E+00 -0.87379340403E-01  0.10886846091E-01  0.14100735698E+00  0.44868852307E-01 0.  0.
         14    1    1    2    0    0  0.16428443649E-02  0.13287870662E-01  0.45772758547E-02  0.14149837405E-01  0.00000000000E+00 0. -1.
     999901    1    3    3    0    0  0.98936419238E-01  0.74091469741E-01 -0.15464121946E-01  0.88877280562E+00  0.88000000000E+00 0.  1.
        -11    1    4    4    0    0 -0.26330596363E-01 -0.46290437476E-01  0.17056485277E-01  0.55922175544E-01  0.51100000000E-03 0. -1.
         11    1    4    4    0    0 -0.74248667240E-01 -0.41088902928E-01 -0.61696391864E-02  0.85085181432E-01  0.51100000000E-03 0.  1.
</event>
<event>
 8    1  0.2025822E+004  0.1043930E+01  0.7957747E-01            NaN
         13   -1    0    0    0    0  0.00000000000E+00  0.00000000000E+00  0.74505805969E-08  0.10566000000E+00  0.10566000000E+00 0.  1.
     999900   -1    0    0    0    0 -0.00000000000E+00 -0.00000000000E+00 -0.74505805969E-08  0.93827000000E+00  0.93827000000E+00 0. -1.
     999902    2    1    2    0    0 -0.69374368580E-03 -0.16553983100E-03  0.13518033892E-01  0.10303931642E+01  0.10303042400E+01 0.  0.
     999903    2    3    3    0    0 -0.10096877908E+00  0.22033593976E-02 -0.84484065355E-01  0.13928985599E+00  0.45437402464E-01 0.  0.
         14    1    1    2    0    0  0.69374368580E-03  0.16553983100E-03 -0.13518033892E-01  0.13536835821E-01  0.00000000000E+00 0. -1.
     999901    1    3    3    0    0  0.10027503539E+00 -0.23688992286E-02  0.98002099247E-01  0.89110330819E+00  0.88000000000E+00 0.  1.
        -11    1    4    4    0    0 -0.46421315707E-01 -0.13119886690E-02 -0.11041092528E-01  0.47737058052E-01  0.51100000000E-03 0.  1.
         11    1    4    4    0    0 -0.54547463368E-01  0.35153480666E-02 -0.73442972827E-01  0.91552797939E-01  0.51100000000E-03 0. -1.
</event>
<event>
 8    1  0.2025822E+004  0.1043930E+01  0.7957747E-01            NaN
         13   -1    0    0    0    0  0.00000000000E+00  0.00000000000E+00  0.74505805969E-08  0.10566000000E+00  0.10566000000E+00 0. -1.
     999900   -1    0    0    0    0 -0.00000000000E+00 -0.00000000000E+00 -0.74505805969E-08  0.93827000000E+00  0.93827000000E+00 0.  1.
     999902    2    1    2    0    0 -0.11433257332E-01 -0.70476031377E-02 -0.15767968896E-02  0.10304068949E+01  0.10303181522E+01 0.  0.
     999903    2    3    3    0    0  0.14199157075E-01 -0.10898628288E+00  0.76198487379E-01  0.14074543685E+00  0.43857070077E-01 0.  0.
         14    1    1    2    0    0  0.11433257332E-01  0.70476031377E-02  0.15767968896E-02  0.13523105104E-01  0.00000000000E+00 0. -1.
     999901    1    3    3    0    0 -0.25632414407E-01  0.10193867975E+00 -0.77775284269E-01  0.88966145805E+00  0.88000000000E+00 0. -1.
        -11    1    4    4    0    0 -0.13486699901E-01 -0.15153007786E-01  0.16333935218E-01  0.26049247203E-01  0.51100000000E-03 0.  1.
         11    1    4    4    0    0  0.27685856976E-01 -0.93833275098E-01  0.59864552161E-01  0.11469618964E+00  0.51100000000E-03 0. -1.
</event>
<event>
 8    1  0.2025822E+004  0.1043930E+01  0.7957747E-01            NaN
         13   -1    0    0    0    0  0.00000000000E+00  0.00000000000E+00  0.74505805969E-08  0.10566000000E+00  0.10566000000E+00 0. -1.
     999900   -1    0    0    0    0 -0.00000000000E+00 -0.00000000000E+00 -0.74505805969E-08  0.93827000000E+00  0.93827000000E+00 0.  1.
     999902    2    1    2    0    0  0.46121589460E-02 -0.12114022900E-01 -0.42743010885E-02  0.10302811462E+01  0.10301907343E+01 0.  0.
     999903    2    3    3    0    0 -0.58454789514E-01 -0.89564516966E-01 -0.80942419879E-01  0.14131881882E+00  0.44503574013E-01 0.  0.
         14    1    1    2    0    0 -0.46121589460E-02  0.12114022900E-01  0.42743010885E-02  0.13648853826E-01  0.00000000000E+00 0.  1.
     999901    1    3    3    0    0  0.63066948460E-01  0.77450494067E-01  0.76668118790E-01  0.88896232736E+00  0.88000000000E+00 0.  1.
        -11    1    4    4    0    0 -0.39767937170E-01 -0.53631620617E-01 -0.74943203069E-01  0.10037222905E+00  0.51100000000E-03 0.  1.
         11    1    4    4    0    0 -0.18686852343E-01 -0.35932896349E-01 -0.59992168103E-02  0.40946589771E-01  0.51100000000E-03 0. -1.
</event>
<event>
 8    1  0.2025822E+004  0.1043930E+01  0.7957747E-01            NaN
         13   -1    0    0    0    0  0.00000000000E+00  0.00000000000E+00  0.74505805969E-08  0.10566000000E+00  0.10566000000E+00 0.  1.
     999900   -1    0    0    0    0 -0.00000000000E+00 -0.00000000000E+00 -0.74505805969E-08  0.93827000000E+00  0.93827000000E+00 0. -1.
     999902    2    1    2    0    0 -0.12999284809E-01  0.17256241776E-02 -0.33982173065E-02  0.10303835220E+01  0.10302944702E+01 0.  0.
     999903    2    3    3    0    0 -0.84241353438E-01  0.31272072058E-01 -0.99804316646E-01  0.14176517825E+00  0.45408325481E-01 0.  0.
         14    1    1    2    0    0  0.12999284809E-01 -0.17256241776E-02  0.33982173065E-02  0.13546477964E-01  0.00000000000E+00 0.  1.
     999901    1    3    3    0    0  0.71242068629E-01 -0.29546447880E-01  0.96406099340E-01  0.88861834379E+00  0.88000000000E+00 0.  1.
        -11    1    4    4    0    0 -0.53910473765E-01  0.39359810015E-02 -0.79562231038E-01  0.96188569263E-01  0.51100000000E-03 0.  1.
         11    1    4    4    0    0 -0.30330879673E-01  0.27336091056E-01 -0.20242085608E-01  0.45576608987E-01  0.51100000000E-03 0. -1.
</event>
<event>
 8    1  0.2025822E+004  0.1043930E+01  0.7957747E-01            NaN
         13   -1    0    0    0    0  0.00000000000E+00  0.00000000000E+00  0.74505805969E-08  0.10566000000E+00  0.10566000000E+00 0.  1.
     999900   -1    0    0    0    0 -0.00000000000E+00 -0.00000000000E+00 -0.74505805969E-08  0.93827000000E+00  0.93827000000E+00 0. -1.
     999902    2    1    2    0    0 -0.82443786431E-02 -0.10988595634E-01  0.21608045589E-02  0.10300235954E+01  0.10299297155E+01 0.  0.
     999903    2    3    3    0    0 -0.59569689578E-01 -0.11328130152E+00 -0.41777998025E-01  0.14152559111E+00  0.43622134617E-01 0.  0.
         14    1    1    2    0    0  0.82443786431E-02  0.10988595634E-01 -0.21608045589E-02  0.13906404624E-01  0.00000000000E+00 0. -1.
     999901    1    3    3    0    0  0.51325310935E-01  0.10229270588E+00  0.43938802584E-01  0.88849800427E+00  0.88000000000E+00 0.  1.
        -11    1    4    4    0    0 -0.27276279826E-01 -0.17491238693E-01 -0.71292522708E-03  0.32414630270E-01  0.51100000000E-03 0.  1.
         11    1    4    4    0    0 -0.32293409752E-01 -0.95790062826E-01 -0.41065072798E-01  0.10911096084E+00  0.51100000000E-03 0. -1.
</event>
<event>
 8    1  0.2025822E+004  0.1043930E+01  0.7957747E-01            NaN
         13   -1    0    0    0    0  0.00000000000E+00  0.00000000000E+00  0.74505805969E-08  0.10566000000E+00  0.10566000000E+00 0. -1.
     999900   -1    0    0    0    0 -0.00000000000E+00 -0.00000000000E+00 -0.74505805969E-08  0.93827000000E+00  0.93827000000E+00 0. -1.
     999902    2    1    2    0    0  0.11908112731E-01 -0.64426284385E-02  0.85254624155E-02  0.10279301838E+01  0.10278056570E+01 0.  0.
     999903    2    3    3    0    0  0.73089747273E-02  0.12601920403E+00 -0.29621508967E-01  0.13718752702E+00  0.44818778218E-01 0.  0.
         14    1    1    2    0    0 -0.11908112731E-01  0.64426284385E-02 -0.85254624155E-02  0.15999816231E-01  0.00000000000E+00 0.  1.
     999901    1    3    3    0    0  0.45991380041E-02 -0.13246183246E+00  0.38146971382E-01  0.89074265675E+00  0.88000000000E+00 0.  1.
        -11    1    4    4    0    0  0.20251274859E-01  0.49103434164E-01 -0.25910540982E-01  0.59100580666E-01  0.51100000000E-03 0. -1.
         11    1    4    4    0    0 -0.12942300132E-01  0.76915769862E-01 -0.37109679851E-02  0.78086946352E-01  0.51100000000E-03 0.  1.
</event>
<event>
 8    1  0.2470111E+004  0.1043930E+01  0.7957747E-01            NaN
         13   -1    0    0    0    0  0.00000000000E+00  0.00000000000E+00  0.74505805969E-08  0.10566000000E+00  0.10566000000E+00 0.  1.
     999900   -1    0    0    0    0 -0.00000000000E+00 -0.00000000000E+00 -0.74505805969E-08  0.93827000000E+00  0.93827000000E+00 0. -1.
     999902    2    1    2    0    0  0.13514540017E-01  0.34509170639E-03  0.21819709172E-02  0.10302361007E+01  0.10301450870E+01 0.  0.
     999903    2    3    3    0    0 -0.62933067567E-01  0.11379018861E+00  0.20621216778E-01  0.13947573312E+00  0.46037675110E-01 0.  0.
         14    1    1    2    0    0 -0.13514540017E-01 -0.34509170639E-03 -0.21819709172E-02  0.13693899271E-01  0.00000000000E+00 0. -1.
     999901    1    3    3    0    0  0.76447607584E-01 -0.11344509691E+00 -0.18439245860E-01  0.89076036761E+00  0.88000000000E+00 0.  1.
        -11    1    4    4    0    0 -0.20602080171E-01  0.51836064579E-01  0.30850536931E-01  0.63745117839E-01  0.51100000000E-03 0.  1.
         11    1    4    4    0    0 -0.42330987396E-01  0.61954124035E-01 -0.10229320153E-01  0.75730615280E-01  0.51100000000E-03 0. -1.
</event>
<event>
 8    1  0.2025822E+004  0.1043930E+01  0.7957747E-01            NaN
         13   -1    0    0    0    0  0.00000000000E+00  0.00000000000E+00  0.74505805969E-08  0.10566000000E+00  0.10566000000E+00 0.  1.
     999900   -1    0    0    0    0 -0.00000000000E+00 -0.00000000000E+00 -0.74505805969E-08  0.93827000000E+00  0.93827000000E+00 0.  1.
     999902    2    1    2    0    0  0.98458804122E-02 -0.48423985714E-02 -0.80880885996E-02  0.10302988826E+01  0.10302087070E+01 0.  0.
     999903    2    3    3    0    0 -0.79536318700E-02 -0.57859805485E-01  0.11833208198E+00  0.13950725284E+00  0.45263391608E-01 0.  0.
         14    1    1    2    0    0 -0.98458804122E-02  0.48423985714E-02  0.80880885996E-02  0.13631117423E-01  0.00000000000E+00 0. -1.
     999901    1    3    3    0    0  0.17799512282E-01  0.53017406914E-01 -0.12642017058E+00  0.89079162973E+00  0.88000000000E+00 0.  1.
        -11    1    4    4    0    0 -0.26332532887E-01 -0.36253606630E-01  0.81605572332E-01  0.93099177432E-01  0.51100000000E-03 0. -1.
         11    1    4    4    0    0  0.18378901017E-01 -0.21606198855E-01  0.36726509646E-01  0.46408075411E-01  0.51100000000E-03 0.  1.
</event>
<event>
 8    1  0.2025822E+004  0.1043930E+01  0.7957747E-01            NaN
         13   -1    0    0    0    0  0.00000000000E+00  0.00000000000E+00  0.74505805969E-08  0.10566000000E+00  0.10566000000E+00 0.  1.
     999900   -1    0    0    0    0 -0.00000000000E+00 -0.00000000000E+00 -0.74505805969E-08  0.93827000000E+00  0.93827000000E+00 0.  1.
     999902    2    1    2    0    0  0.16844326137E-02 -0.10554369394E-01 -0.84837173295E-02  0.10302842869E+01  0.10301939169E+01 0.  0.
     999903    2    3    3    0    0  0.12978950304E+00  0.28078362213E-01  0.15545384818E-02  0.14011342486E+00  0.44672650607E-01 0.  0.
         14    1    1    2    0    0 -0.16844326137E-02  0.10554369394E-01  0.84837173295E-02  0.13645713110E-01  0.00000000000E+00 0.  1.
     999901    1    3    3    0    0 -0.12810507043E+00 -0.38632731607E-01 -0.10038255811E-01  0.89017086203E+00  0.88000000000E+00 0. -1.
        -11    1    4    4    0    0  0.71998704548E-01  0.89945612574E-02 -0.20463885678E-01  0.75390631559E-01  0.51100000000E-03 0. -1.
         11    1    4    4    0    0  0.57790798496E-01  0.19083800956E-01  0.22018424160E-01  0.64722793305E-01  0.51100000000E-03 0.  1.
</event>
<event>
 8    1  0.2025822E+004  0.1043930E+01  0.7957747E-01            NaN
         13   -1    0    0    0    0  0.00000000000E+00  0.00000000000E+00  0.74505805969E-08  0.10566000000E+00  0.10566000000E+00 0.  1.
     999900   -1    0    0    0    0 -0.00000000000E+00 -0.00000000000E+00 -0.74505805969E-08  0.93827000000E+00  0.93827000000E+00 0.  1.
     999902    2    1    2    0    0 -0.12825834572E-01  0.49945953567E-02  0.17760100165E-03  0.10301648426E+01  0.10300728729E+01 0.  0.
     999903    2    3    3    0    0 -0.12558495098E+00 -0.42598681295E-01 -0.22650244597E-01  0.14140117953E+00  0.43531970236E-01 0.  0.
         14    1    1    2    0    0  0.12825834572E-01 -0.49945953567E-02 -0.17760100165E-03  0.13765157367E-01  0.00000000000E+00 0. -1.
     999901    1    3    3    0    0  0.11275911640E+00  0.47593276652E-01  0.22827845599E-01  0.88876366310E+00  0.88000000000E+00 0. -1.
        -11    1    4    4    0    0 -0.95181015134E-01 -0.11189068069E-01 -0.16662236131E-01  0.97275444589E-01  0.51100000000E-03 0.  1.
         11    1    4    4    0    0 -0.30403935843E-01 -0.31409613227E-01 -0.59880084662E-02  0.44125734942E-01  0.51100000000E-03 0. -1.
</event>
<event>
 8    1  0.2025822E+004  0.1043930E+01  0.7957747E-01            NaN
         13   -1    0    0    0    0  0.00000000000E+00  0.00000000000E+00  0.74505805969E-08  0.10566000000E+00  0.10566000000E+00 0.  1.
     999900   -1    0    0    0    0 -0.00000000000E+00 -0.00000000000E+00 -0.74505805969E-08  0.93827000000E+00  0.93827000000E+00 0. -1.
     999902    2    1    2    0    0  0.47827067912E-02 -0.12002356268E-01  0.37651345647E-02  0.10304723970E+01  0.10303845175E+01 0.  0.
     999903    2    3    3    0    0  0.11176314838E+00  0.84813717011E-02 -0.71563593854E-01  0.14056295480E+00  0.45537471310E-01 0.  0.
         14    1    1    2    0    0 -0.47827067912E-02  0.12002356268E-01 -0.37651345647E-02  0.13457603001E-01  0.00000000000E+00 0. -1.
     999901    1    3    3    0    0 -0.10698044159E+00 -0.20483727969E-01  0.75328728419E-01  0.88990944220E+00  0.88000000000E+00 0.  1.
        -11    1    4    4    0    0  0.53297096082E-01 -0.17829839809E-01 -0.26119950218E-01  0.61975773967E-01  0.51100000000E-03 0.  1.
         11    1    4    4    0    0  0.58466052302E-01  0.26311211510E-01 -0.45443643637E-01  0.78587180831E-01  0.51100000000E-03 0. -1.
</event>
<event>
 8    1  0.2025822E+004  0.1043930E+01  0.7957747E-01            NaN
         13   -1    0    0    0    0  0.00000000000E+00  0.00000000000E+00  0.74505805969E-08  0.10566000000E+00  0.10566000000E+00 0. -1.
     999900   -1    0    0    0    0 -0.00000000000E+00 -0.00000000000E+00 -0.74505805969E-08  0.93827000000E+00  0.93827000000E+00 0. -1.
     999902    2    1    2    0    0  0.21902821305E-02 -0.11048205900E-01 -0.48111510196E-02  0.10316822507E+01  0.10316095477E+01 0.  0.
     999903    2    3    3    0    0 -0.12059033778E+00 -0.38592028396E-01 -0.45874448504E-01  0.14178341531E+00  0.44347464525E-01 0.  0.
         14    1    1    2    0    0 -0.21902821305E-02  0.11048205900E-01  0.48111510196E-02  0.12247749326E-01  0.00000000000E+00 0. -1.
     999901    1    3    3    0    0  0.12278061991E+00  0.27543822496E-01  0.41063297484E-01  0.88989883536E+00  0.88000000000E+00 0. -1.
        -11    1    4    4    0    0 -0.43460122324E-01 -0.17192726373E-01 -0.40005894534E-01  0.61523205305E-01  0.51100000000E-03 0.  1.
         11    1    4    4    0    0 -0.77130215455E-01 -0.21399302024E-01 -0.58685539702E-02  0.80260210004E-01  0.51100000000E-03 0. -1.
</event>
<event>
 8    1  0.2025822E+004  0.1043930E+01  0.7957747E-01            NaN
         13   -1    0    0    0    0  0.00000000000E+00  0.00000000000E+00  0.74505805969E-08  0.10566000000E+00  0.10566000000E+00 0.  1.
     999900   -1    0    0    0    0 -0.00000000000E+00 -0.00000000000E+00 -0.74505805969E-08  0.93827000000E+00  0.93827000000E+00 0. -1.
     999902    2    1    2    0    0 -0.79194412265E-02 -0.82707044084E-02  0.62078015146E-02  0.10309046823E+01  0.10308223926E+01 0.  0.
     999903    2    3    3    0    0  0.88714272217E-01 -0.98037153195E-01 -0.20411222502E-01  0.14067737296E+00  0.43497123567E-01 0.  0.
         14    1    1    2    0    0  0.79194412265E-02  0.82707044084E-02 -0.62078015146E-02  0.13025317670E-01  0.00000000000E+00 0. -1.
     999901    1    3    3    0    0 -0.96633713443E-01  0.89766448787E-01  0.26619024016E-01  0.89022730937E+00  0.88000000000E+00 0.  1.
        -11    1    4    4    0    0  0.54381471976E-01 -0.43322336102E-01 -0.29339386812E-01  0.75466747904E-01  0.51100000000E-03 0. -1.
         11    1    4    4    0    0  0.34332800240E-01 -0.54714817093E-01  0.89281643100E-02  0.65210625060E-01  0.51100000000E-03 0.  1.
</event>
<event>
 8    1  0.2025822E+004  0.1043930E+01  0.7957747E-01            NaN
         13   -1    0    0    0    0  0.00000000000E+00  0.00000000000E+00  0.74505805969E-08  0.10566000000E+00  0.10566000000E+00 0.  1.
     999900   -1    0    0    0    0 -0.00000000000E+00 -0.00000000000E+00 -0.74505805969E-08  0.93827000000E+00  0.93827000000E+00 0.  1.
     999902    2    1    2    0    0  0.15111120960E-01 -0.21793522279E-01 -0.90535812494E-02  0.10159073141E+01  0.10155207531E+01 0.  0.
     999903    2    3    3    0    0 -0.49400068671E-01 -0.95597778428E-01 -0.54955154250E-01  0.12927564527E+00  0.45965437637E-01 0.  0.
         14    1    1    2    0    0 -0.15111120960E-01  0.21793522279E-01  0.90535812494E-02  0.28022685871E-01  0.00000000000E+00 0.  1.
     999901    1    3    3    0    0  0.64511189631E-01  0.73804256149E-01  0.45901573001E-01  0.88663166886E+00  0.88000000000E+00 0. -1.
        -11    1    4    4    0    0 -0.20289499381E-02 -0.57907930114E-02 -0.21508755168E-01  0.22372697455E-01  0.51100000000E-03 0.  1.
         11    1    4    4    0    0 -0.47371118733E-01 -0.89806985417E-01 -0.33446399082E-01  0.10690294782E+00  0.51100000000E-03 0. -1.
</event>
<event>
 8    1  0.2025822E+004  0.1043930E+01  0.7957747E-01            NaN
         13   -1    0    0    0    0  0.00000000000E+00  0.00000000000E+00  0.74505805969E-08  0.10566000000E+00  0.10566000000E+00 0. -1.
     999900   -1    0    0    0    0 -0.00000000000E+00 -0.00000000000E+00 -0.74505805969E-08  0.93827000000E+00  0.93827000000E+00 0.  1.
     999902    2    1    2    0    0  0.11915587357E-01 -0.42281230375E-02  0.40093580669E-02  0.10306660188E+01  0.10305806659E+01 0.  0.
     999903    2    3    3    0    0  0.87785100121E-02  0.62529325483E-01  0.11787393947E+00  0.14081685115E+00  0.44137752303E-01 0.  0.
         14    1    1    2    0    0 -0.11915587357E-01  0.42281230375E-02 -0.40093580669E-02  0.13263981249E-01  0.00000000000E+00 0. -1.
     999901    1    3    3    0    0  0.31370773446E-02 -0.66757448521E-01 -0.11386458140E+00  0.88984916760E+00  0.88000000000E+00 0.  1.
        -11    1    4    4    0    0  0.17322065021E-01  0.26770124063E-01  0.23738278039E-01  0.39755005272E-01  0.51100000000E-03 0. -1.
         11    1    4    4    0    0 -0.85435550086E-02  0.35759201420E-01  0.94135661427E-01  0.10106184588E+00  0.51100000000E-03 0.  1.
</event>
<event>
 8    1  0.2025822E+004  0.1043930E+01  0.7957747E-01            NaN
         13   -1    0    0    0    0  0.00000000000E+00  0.00000000000E+00  0.74505805969E-08  0.10566000000E+00  0.10566000000E+00 0. -1.
     999900   -1    0    0    0    0 -0.00000000000E+00 -0.00000000000E+00 -0.74505805969E-08  0.93827000000E+00  0.93827000000E+00 0.  1.
     999902    2    1    2    0    0 -0.80566667118E-03  0.11292545189E-01  0.96319459492E-02  0.10290657793E+01  0.10289584214E+01 0.  0.
     999903    2    3    3    0    0 -0.51994442942E-01  0.98660959191E-01 -0.71840576761E-01  0.13952021969E+00  0.43213612067E-01 0.  0.
         14    1    1    2    0    0  0.80566667118E-03 -0.11292545189E-01 -0.96319459492E-02  0.14864220746E-01  0.00000000000E+00 0.  1.
     999901    1    3    3    0    0  0.51188776271E-01 -0.87368414002E-01  0.81472522711E-01  0.88954555956E+00  0.88000000000E+00 0. -1.
        -11    1    4    4    0    0 -0.31907449463E-01  0.48945815237E-01 -0.61647203441E-01  0.84937724090E-01  0.51100000000E-03 0. -1.
         11    1    4    4    0    0 -0.20086993479E-01  0.49715143954E-01 -0.10193373320E-01  0.54582495601E-01  0.51100000000E-03 0.  1.
</event>
<event>
 8    1  0.2025822E+004  0.1043930E+01  0.7957747E-01            NaN
         13   -1    0    0    0    0  0.00000000000E+00  0.00000000000E+00  0.74505805969E-08  0.10566000000E+00  0.10566000000E+00 0.  1.
     999900   -1    0    0    0    0 -0.00000000000E+00 -0.00000000000E+00 -0.74505805969E-08  0.93827000000E+00  0.93827000000E+00 0. -1.
     999902    2    1    2    0    0 -0.11484354965E-01  0.61256147405E-02  0.83761448138E-03  0.10308871796E+01  0.10308046672E+01 0.  0.
     999903    2    3    3    0    0  0.15597915075E-02 -0.60584680376E-01 -0.11856254995E+00  0.14022629440E+00  0.43970432604E-01 0.  0.
         14    1    1    2    0    0  0.11484354965E-01 -0.61256147405E-02 -0.83761448138E-03  0.13042820359E-01  0.00000000000E+00 0.  1.
     999901    1    3    3    0    0 -0.13044146472E-01  0.66710295116E-01  0.11940016444E+00  0.89066088524E+00  0.88000000000E+00 0.  1.
        -11    1    4    4    0    0  0.17319913759E-01 -0.24437776987E-01 -0.78446725066E-01  0.83972222498E-01  0.51100000000E-03 0. -1.
         11    1    4    4    0    0 -0.15760122251E-01 -0.36146903389E-01 -0.40115824889E-01  0.56254071901E-01  0.51100000000E-03 0.  1.
</event>
<event>
 8    1  0.2025822E+004  0.1043930E+01  0.7957747E-01            NaN
         13   -1    0    0    0    0  0.00000000000E+00  0.00000000000E+00  0.74505805969E-08  0.10566000000E+00  0.10566000000E+00 0. -1.
     999900   -1    0    0    0    0 -0.00000000000E+00 -0.00000000000E+00 -0.74505805969E-08  0.93827000000E+00  0.93827000000E+00 0. -1.
     999902    2    1    2    0    0  0.39422390213E-02  0.12850786295E-01 -0.32169153285E-02  0.10301085492E+01  0.10300158206E+01 0.  0.
     999903    2    3    3    0    0  0.65780891323E-01 -0.57168914026E-01 -0.99939165036E-01  0.13989398469E+00  0.44576673828E-01 0.  0.
         14    1    1    2    0    0 -0.39422390213E-02 -0.12850786295E-01  0.32169153285E-02  0.13821450760E-01  0.00000000000E+00 0. -1.
     999901    1    3    3    0    0 -0.61838652302E-01  0.70019700320E-01  0.96722249708E-01  0.89021456455E+00  0.88000000000E+00 0.  1.
        -11    1    4    4    0    0  0.21764772210E-01 -0.48216986913E-01 -0.56601435432E-01  0.77476233455E-01  0.51100000000E-03 0.  1.
         11    1    4    4    0    0  0.44016119113E-01 -0.89519271126E-02 -0.43337729604E-01  0.62417751233E-01  0.51100000000E-03 0. -1.
</event>
<event>
 8    1  0.2025822E+004  0.1043930E+01  0.7957747E-01            NaN
         13   -1    0    0    0    0  0.00000000000E+00  0.00000000000E+00  0.74505805969E-08  0.10566000000E+00  0.10566000000E+00 0.  1.
     999900   -1    0    0    0    0 -0.00000000000E+00 -0.00000000000E+00 -0.74505805969E-08  0.93827000000E+00  0.93827000000E+00 0. -1.
     999902    2    1    2    0    0  0.76063733201E-02  0.12762673837E-01  0.53567591181E-02  0.10281364055E+01  0.10280150927E+01 0.  0.
     999903    2    3    3    0    0  0.36189278039E-01  0.12117483141E+00  0.39717959480E-01  0.14035778984E+00  0.46149639798E-01 0.  0.
         14    1    1    2    0    0 -0.76063733201E-02 -0.12762673837E-01 -0.53567591181E-02  0.15793594486E-01  0.00000000000E+00 0.  1.
     999901    1    3    3    0    0 -0.28582904719E-01 -0.10841215757E+00 -0.34361200362E-01  0.88777861567E+00  0.88000000000E+00 0. -1.
        -11    1    4    4    0    0  0.24805487652E-01  0.29285773152E-01 -0.27689693075E-02  0.38482425064E-01  0.51100000000E-03 0. -1.
         11    1    4    4    0    0  0.11383790387E-01  0.91889058253E-01  0.42486928788E-01  0.10187536478E+00  0.51100000000E-03 0.  1.
</event>
<event>
 8    1  0.2025822E+004  0.1043930E+01  0.7957747E-01            NaN
         13   -1    0    0    0    0  0.00000000000E+00  0.00000000000E+00  0.74505805969E-08  0.10566000000E+00  0.10566000000E+00 0. -1.
     999900   -1    0    0    0    0 -0.00000000000E+00 -0.00000000000E+00 -0.74505805969E-08  0.93827000000E+00  0.93827000000E+00 0.  1.
     999902    2    1    2    0    0  0.54542577897E-02 -0.51536677990E-02 -0.12512838726E-01  0.10293395801E+01  0.10292361686E+01 0.  0.
     999903    2    3    3    0    0  0.14224752568E-01 -0.10912674134E+00 -0.75691303460E-01  0.14092591519E+00  0.44943863784E-01 0.  0.
         14    1    1    2    0    0 -0.54542577897E-02  0.51536677990E-02  0.12512838726E-01  0.14590419898E-01  0.00000000000E+00 0. -1.
     999901    1    3    3    0    0 -0.87704947784E-02  0.10397307354E+00  0.63178464735E-01  0.88841366491E+00  0.88000000000E+00 0.  1.
        -11    1    4    4    0    0  0.21640592241E-01 -0.67311397260E-01 -0.67338205196E-01  0.97641356165E-01  0.51100000000E-03 0.  1.
         11    1    4    4    0    0 -0.74158396726E-02 -0.41815344076E-01 -0.83530982639E-02  0.43284559024E-01  0.51100000000E-03 0. -1.
</event>
<event>
 8    1  0.2025822E+004  0.1043930E+01  0.7957747E-01            NaN
         13   -1    0    0    0    0  0.00000000000E+00  0.00000000000E+00  0.74505805969E-08  0.10566000000E+00  0.10566000000E+00 0. -1.
     999900   -1    0    0    0    0 -0.00000000000E+00 -0.00000000000E+00 -0.74505805969E-08  0.93827000000E+00  0.93827000000E+00 0.  1.
     999902    2    1    2    0    0  0.11757636237E-01 -0.33925161282E-02 -0.62038470155E-02  0.10302099820E+01  0.10301186185E+01 0.  0.
     999903    2    3    3    0    0  0.88545999545E-01 -0.10054874680E+00  0.97474691402E-02  0.14139603614E+00  0.44129144149E-01 0.  0.
         14    1    1    2    0    0 -0.11757636237E-01  0.33925161282E-02  0.62038470155E-02  0.13720017979E-01  0.00000000000E+00 0. -1.
     999901    1    3    3    0    0 -0.76788363308E-01  0.97156230676E-01 -0.15951316156E-01  0.88881394588E+00  0.88000000000E+00 0. -1.
        -11    1    4    4    0    0  0.26390179363E-01 -0.60156466904E-01 -0.47442174426E-02  0.65863577167E-01  0.51100000000E-03 0.  1.
         11    1    4    4    0    0  0.62155820182E-01 -0.40392279900E-01  0.14491686583E-01  0.75532458976E-01  0.51100000000E-03 0. -1.
</event>
<event>
 8    1  0.2025822E+004  0.1043930E+01  0.7957747E-01            NaN
         13   -1    0    0    0    0  0.00000000000E+00  0.00000000000E+00  0.74505805969E-08  0.10566000000E+00  0.10566000000E+00 0.  1.
     999900   -1    0    0    0    0 -0.00000000000E+00 -0.00000000000E+00 -0.74505805969E-08  0.93827000000E+00  0.93827000000E+00 0. -1.
     999902    2    1    2    0    0  0.90418646386E-02 -0.59449332434E-02 -0.86521891622E-02  0.10300751119E+01  0.10299819310E+01 0.  0.
     999903    2    3    3    0    0  0.58161969592E-01 -0.10410242406E+00  0.59144352882E-01  0.14066854072E+00  0.45491257071E-01 0.  0.
         14    1    1    2    0    0 -0.90418646386E-02  0.59449332434E-02  0.86521891622E-02  0.13854888116E-01  0.00000000000E+00 0.  1.
     999901    1    3    3    0    0 -0.49120104953E-01  0.98157490812E-01 -0.67796542044E-01  0.88940657116E+00  0.88000000000E+00 0. -1.
        -11    1    4    4    0    0  0.56532785198E-01 -0.78019151513E-01  0.61688767816E-01  0.11440589583E+00  0.51100000000E-03 0. -1.
         11    1    4    4    0    0  0.16291843935E-02 -0.26083272543E-01 -0.25444149341E-02  0.26262644892E-01  0.51100000000E-03 0.  1.
</event>
<event>
 8    1  0.2025822E+004  0.1043930E+01  0.7957747E-01            NaN
         13   -1    0    0    0    0  0.00000000000E+00  0.00000000000E+00  0.74505805969E-08  0.10566000000E+00  0.10566000000E+00 0.  1.
     999900   -1    0    0    0    0 -0.00000000000E+00 -0.00000000000E+00 -0.74505805969E-08  0.93827000000E+00  0.93827000000E+00 0. -1.
     999902    2    1    2    0    0  0.73881538301E-02  0.33235503717E-02 -0.84520700507E-02  0.10322223832E+01  0.10321559863E+01 0.  0.
     999903    2    3    3    0    0 -0.90463574758E-01 -0.25460057545E-02 -0.10088502225E+00  0.14196777736E+00  0.42271995359E-01 0.  0.
         14    1    1    2    0    0 -0.73881538301E-02 -0.33235503717E-02  0.84520700507E-02  0.11707616847E-01  0.00000000000E+00 0.  1.
     999901    1    3    3    0    0  0.97851728588E-01  0.58695561262E-02  0.92432952200E-01  0.89025460579E+00  0.88000000000E+00 0. -1.
        -11    1    4    4    0    0 -0.61201844354E-01  0.16528755525E-01 -0.76552120625E-01  0.99394938527E-01  0.51100000000E-03 0.  1.
         11    1    4    4    0    0 -0.29261730404E-01 -0.19074761279E-01 -0.24332901626E-01  0.42572838837E-01  0.51100000000E-03 0. -1.
</event>
<event>
 8    1  0.2025822E+004  0.1043930E+01  0.7957747E-01            NaN
         13   -1    0    0    0    0  0.00000000000E+00  0.00000000000E+00  0.74505805969E-08  0.10566000000E+00  0.10566000000E+00 0. -1.
     999900   -1    0    0    0    0 -0.00000000000E+00 -0.00000000000E+00 -0.74505805969E-08  0.93827000000E+00  0.93827000000E+00 0. -1.
     999902    2    1    2    0    0 -0.87577858540E-02 -0.86319958465E-02 -0.63448587214E-02  0.10300928255E+01  0.10299998844E+01 0.  0.
     999903    2    3    3    0    0  0.12618672987E+00 -0.15680654261E-01 -0.33627821597E-01  0.13936050548E+00  0.46060247366E-01 0.  0.
         14    1    1    2    0    0  0.87577858540E-02  0.86319958465E-02  0.63448587214E-02  0.13837174479E-01  0.00000000000E+00 0. -1.
     999901    1    3    3    0    0 -0.13494451573E+00  0.70486584145E-02  0.27282962876E-01  0.89073232005E+00  0.88000000000E+00 0. -1.
        -11    1    4    4    0    0  0.10935522121E+00 -0.14716627835E-01 -0.44842055161E-01  0.11910589646E+00  0.51100000000E-03 0.  1.
         11    1    4    4    0    0  0.16831508662E-01 -0.96402642588E-03  0.11214233564E-01  0.20254609012E-01  0.51100000000E-03 0. -1.
</event>
<event>
 8    1  0.2025822E+004  0.1043930E+01  0.7957747E-01            NaN
         13   -1    0    0    0    0  0.00000000000E+00  0.00000000000E+00  0.74505805969E-08  0.10566000000E+00  0.10566000000E+00 0.  1.
     999900   -1    0    0    0    0 -0.00000000000E+00 -0.00000000000E+00 -0.74505805969E-08  0.93827000000E+00  0.93827000000E+00 0. -1.
     999902    2    1    2    0    0  0.44273744157E-02 -0.75524157522E-02  0.98427116774E-02  0.10307573161E+01  0.10306731417E+01 0.  0.
     999903    2    3    3    0    0  0.75447078521E-01  0.98031068423E-01 -0.46970094875E-01  0.13979190404E+00  0.45091402610E-01 0.  0.
         14    1    1    2    0    0 -0.44273744157E-02  0.75524157522E-02 -0.98427116774E-02  0.13172683898E-01  0.00000000000E+00 0. -1.
     999901    1    3    3    0    0 -0.71019704105E-01 -0.10558348417E+00  0.56812806552E-01  0.89096541206E+00  0.88000000000E+00 0.  1.
        -11    1    4    4    0    0  0.53335411128E-01  0.35329466154E-01 -0.32451545345E-01  0.71737027923E-01  0.51100000000E-03 0. -1.
         11    1    4    4    0    0  0.22111667392E-01  0.62701602269E-01 -0.14518549530E-01  0.68054876118E-01  0.51100000000E-03 0.  1.
</event>
<event>
 8    1  0.2025822E+004  0.1043930E+01  0.7957747E-01            NaN
         13   -1    0    0    0    0  0.00000000000E+00  0.00000000000E+00  0.74505805969E-08  0.10566000000E+00  0.10566000000E+00 0. -1.
     999900   -1    0    0    0    0 -0.00000000000E+00 -0.00000000000E+00 -0.74505805969E-08  0.93827000000E+00  0.93827000000E+00 0.  1.
     999902    2    1    2    0    0  0.48371628485E-02 -0.35384373568E-02 -0.99341956895E-02  0.10323279774E+01  0.10322627796E+01 0.  0.
     999903    2    3    3    0    0  0.13106174412E-01 -0.75451497502E-01 -0.11259078333E+00  0.14340827367E+00  0.44994979535E-01 0.  0.
         14    1    1    2    0    0 -0.48371628485E-02  0.35384373568E-02  0.99341956895E-02  0.11602022554E-01  0.00000000000E+00 0. -1.
     999901    1    3    3    0    0 -0.82690115632E-02  0.71913060145E-01  0.10265658764E+00  0.88891970377E+00  0.88000000000E+00 0. -1.
        -11    1    4    4    0    0 -0.50631358122E-02 -0.64933501961E-01 -0.68225713326E-01  0.94323931751E-01  0.51100000000E-03 0. -1.
         11    1    4    4    0    0  0.18169310224E-01 -0.10517995541E-01 -0.44365070005E-01  0.49084341920E-01  0.51100000000E-03 0.  1.
</event>
<event>
 8    1  0.2025822E+004  0.1043930E+01  0.7957747E-01            NaN
         13   -1    0    0    0    0  0.00000000000E+00  0.00000000000E+00  0.74505805969E-08  0.10566000000E+00  0.10566000000E+00 0.  1.
     999900   -1    0    0    0    0 -0.00000000000E+00 -0.00000000000E+00 -0.74505805969E-08  0.93827000000E+00  0.93827000000E+00 0.  1.
     999902    2    1    2    0    0 -0.49262704546E-02 -0.14288500460E-01  0.19060359227E-02  0.10286964069E+01  0.10285836063E+01 0.  0.
     999903    2    3    3    0    0  0.53438376870E-01 -0.85413848665E-01  0.85991341272E-01  0.13991320172E+00  0.45055605388E-01 0.  0.
         14    1    1    2    0    0  0.49262704546E-02  0.14288500460E-01 -0.19060359227E-02  0.15233593106E-01  0.00000000000E+00 0.  1.
     999901    1    3    3    0    0 -0.58364647325E-01  0.71125348205E-01 -0.84085305350E-01  0.88878320517E+00  0.88000000000E+00 0.  1.
        -11    1    4    4    0    0  0.56786463859E-01 -0.53245010465E-01  0.57096070046E-01  0.96539918959E-01  0.51100000000E-03 0. -1.
         11    1    4    4    0    0 -0.33480869887E-02 -0.32168838200E-01  0.28895271227E-01  0.43373282766E-01  0.51100000000E-03 0.  1.
</event>
<event>
 8    1  0.2025822E+004  0.1043930E+01  0.7957747E-01            NaN
         13   -1    0    0    0    0  0.00000000000E+00  0.00000000000E+00  0.74505805969E-08  0.10566000000E+00  0.10566000000E+00 0. -1.
     999900   -1    0    0    0    0 -0.00000000000E+00 -0.00000000000E+00 -0.74505805969E-08  0.93827000000E+00  0.93827000000E+00 0. -1.
     999902    2    1    2    0    0  0.12004877015E-01  0.72112616833E-03  0.64674611790E-02  0.10302747758E+01  0.10301842789E+01 0.  0.
     999903    2    3    3    0    0 -0.59440311222E-01  0.10936925372E+00 -0.44333472406E-01  0.13926996915E+00  0.43998673527E-01 0.  0.
         14    1    1    2    0    0 -0.12004877015E-01 -0.72112616833E-03 -0.64674611790E-02  0.13655224246E-01  0.00000000000E+00 0.  1.
     999901    1    3    3    0    0  0.71445188237E-01 -0.10864812756E+00  0.50800933585E-01  0.89100480661E+00  0.88000000000E+00 0.  1.
        -11    1    4    4    0    0 -0.45800195569E-01  0.90782746445E-01 -0.52961178697E-01  0.11464864821E+00  0.51100000000E-03 0. -1.
         11    1    4    4    0    0 -0.13640115653E-01  0.18586507280E-01  0.86277062905E-02  0.24621320938E-01  0.51100000000E-03 0.  1.
</event>
<event>
 8    1  0.2025822E+004  0.1043930E+01  0.7957747E-01            NaN
         13   -1    0    0    0    0  0.00000000000E+00  0.00000000000E+00  0.74505805969E-08  0.10566000000E+00  0.10566000000E+00 0.  1.
     999900   -1    0    0    0    0 -0.00000000000E+00 -0.00000000000E+00 -0.74505805969E-08  0.93827000000E+00  0.93827000000E+00 0. -1.
     999902    2    1    2    0    0  0.61032555521E-02 -0.11030002729E-01 -0.76862744212E-03  0.10313006106E+01  0.10312232774E+01 0.  0.
     999903    2    3    3    0    0  0.91172260683E-01  0.94179003831E-01 -0.24006576380E-01  0.14065720667E+00  0.45011867290E-01 0.  0.
         14    1    1    2    0    0 -0.61032555521E-02  0.11030002729E-01  0.76862744212E-03  0.12629389403E-01  0.00000000000E+00 0. -1.
     999901    1    3    3    0    0 -0.85069005131E-01 -0.10520900656E+00  0.23237948938E-01  0.89064340393E+00  0.88000000000E+00 0. -1.
        -11    1    4    4    0    0  0.58918433430E-02  0.33266218555E-01 -0.63112545139E-02  0.34372200533E-01  0.51100000000E-03 0. -1.
         11    1    4    4    0    0  0.85280417340E-01  0.60912785276E-01 -0.17695321866E-01  0.10628500613E+00  0.51100000000E-03 0.  1.
</event>
<event>
 8    1  0.2025822E+004  0.1043930E+01  0.7957747E-01            NaN
         13   -1    0    0    0    0  0.00000000000E+00  0.00000000000E+00  0.74505805969E-08  0.10566000000E+00  0.10566000000E+00 0.  1.
     999900   -1    0    0    0    0 -0.00000000000E+00 -0.00000000000E+00 -0.74505805969E-08  0.93827000000E+00  0.93827000000E+00 0. -1.
     999902    2    1    2    0    0  0.11814484940E-01 -0.62434944670E-02  0.45464721102E-02  0.10298149837E+01  0.10297182464E+01 0.  0.
     999903    2    3    3    0    0 -0.45109305847E-01  0.11702818425E+00  0.42468357534E-01  0.13859430722E+00  0.40919130212E-01 0.  0.
         14    1    1    2    0    0 -0.11814484940E-01  0.62434944670E-02 -0.45464721102E-02  0.14115016337E-01  0.00000000000E+00 0.  1.
     999901    1    3    3    0    0  0.56923790787E-01 -0.12327167872E+00 -0.37921885424E-01  0.89122067645E+00  0.88000000000E+00 0. -1.
        -11    1    4    4    0    0 -0.21517901546E-01  0.47876294176E-01  0.39091990457E-01  0.65449251102E-01  0.51100000000E-03 0.  1.
         11    1    4    4    0    0 -0.23591404301E-01  0.69151890078E-01  0.33763670767E-02  0.73145056114E-01  0.51100000000E-03 0. -1.
</event>
<event>
 7    1  0.2335017E+004  0.1043930E+01  0.7957747E-01            NaN
         13   -1    0    0    0    0  0.00000000000E+00  0.00000000000E+00  0.74505805969E-08  0.10566000000E+00  0.10566000000E+00 0. -1.
     999900   -1    0    0    0    0 -0.00000000000E+00 -0.00000000000E+00 -0.74505805969E-08  0.93827000000E+00  0.93827000000E+00 0. -1.
     999903    2    1    2    0    0 -0.12285250754E-01  0.84008187752E-01 -0.79571872015E-01  0.12463021063E+00  0.44639708665E-01 0.  0.
         14    1    1    2    0    0 -0.25511603376E-01  0.35855040153E-02 -0.13812102550E-01  0.29231351709E-01  0.00000000000E+00 0. -1.
     999901    1    1    2    0    0  0.37796854130E-01 -0.87593691767E-01  0.93383974564E-01  0.89006843766E+00  0.88000000000E+00 0.  1.
        -11    1    3    3    0    0 -0.24249256156E-01  0.64655936420E-01 -0.42364819237E-01  0.81015156412E-01  0.51100000000E-03 0. -1.
         11    1    3    3    0    0  0.11964005402E-01  0.19352251332E-01 -0.37207052777E-01  0.43615054216E-01  0.51100000000E-03 0.  1.
</event>
<event>
 8    1  0.2025822E+004  0.1043930E+01  0.7957747E-01            NaN
         13   -1    0    0    0    0  0.00000000000E+00  0.00000000000E+00  0.74505805969E-08  0.10566000000E+00  0.10566000000E+00 0. -1.
     999900   -1    0    0    0    0 -0.00000000000E+00 -0.00000000000E+00 -0.74505805969E-08  0.93827000000E+00  0.93827000000E+00 0.  1.
     999902    2    1    2    0    0 -0.39898069735E-04  0.13487951995E-01  0.15925619725E-02  0.10303482956E+01  0.10302587770E+01 0.  0.
     999903    2    3    3    0    0  0.14120238260E-01 -0.10488848728E+00  0.77744639590E-01  0.13905001233E+00  0.45713248093E-01 0.  0.
         14    1    1    2    0    0  0.39898069735E-04 -0.13487951995E-01 -0.15925619725E-02  0.13581704404E-01  0.00000000000E+00 0. -1.
     999901    1    3    3    0    0 -0.14160136329E-01  0.11837643927E+00 -0.76152077617E-01  0.89129828327E+00  0.88000000000E+00 0. -1.
        -11    1    4    4    0    0 -0.12334273673E-01 -0.69991474184E-01  0.53794043618E-01  0.89134735178E-01  0.51100000000E-03 0. -1.
         11    1    4    4    0    0  0.26454511932E-01 -0.34897013092E-01  0.23950595972E-01  0.49915277147E-01  0.51100000000E-03 0.  1.
</event>
<event>
 8    1  0.2025822E+004  0.1043930E+01  0.7957747E-01            NaN
         13   -1    0    0    0    0  0.00000000000E+00  0.00000000000E+00  0.74505805969E-08  0.10566000000E+00  0.10566000000E+00 0.  1.
     999900   -1    0    0    0    0 -0.00000000000E+00 -0.00000000000E+00 -0.74505805969E-08  0.93827000000E+00  0.93827000000E+00 0. -1.
     999902    2    1    2    0    0  0.38374468175E-02  0.15314174404E-01 -0.83421989165E-02  0.10260738465E+01  0.10259184647E+01 0.  0.
     999903    2    3    3    0    0  0.19749521243E-01 -0.11340230025E+00  0.53822427754E-01  0.13439813986E+00  0.43770777664E-01 0.  0.
         14    1    1    2    0    0 -0.38374468175E-02 -0.15314174404E-01  0.83421989165E-02  0.17856153520E-01  0.00000000000E+00 0.  1.
     999901    1    3    3    0    0 -0.15912074425E-01  0.12871647466E+00 -0.62164626671E-01  0.89167570662E+00  0.88000000000E+00 0. -1.
        -11    1    4    4    0    0 -0.14110807485E-01 -0.32190495783E-01  0.14602010416E-01  0.38063404155E-01  0.51100000000E-03 0. -1.
         11    1    4    4    0    0  0.33860328728E-01 -0.81211804471E-01  0.39220417338E-01  0.96334735709E-01  0.51100000000E-03 0.  1.
</event>
<event>
 8    1  0.2025822E+004  0.1043930E+01  0.7957747E-01            NaN
         13   -1    0    0    0    0  0.00000000000E+00  0.00000000000E+00  0.74505805969E-08  0.10566000000E+00  0.10566000000E+00 0. -1.
     999900   -1    0    0    0    0 -0.00000000000E+00 -0.00000000000E+00 -0.74505805969E-08  0.93827000000E+00  0.93827000000E+00 0. -1.
     999902    2    1    2    0    0 -0.79657642910E-02 -0.79885772023E-02  0.86491207466E-02  0.10297145839E+01  0.10296164558E+01 0.  0.
     999903    2    3    3    0    0 -0.11836414533E+00 -0.58399900732E-01 -0.16566122419E-01  0.14102739898E+00  0.46836647470E-01 0.  0.
         14    1    1    2    0    0  0.79657642910E-02  0.79885772023E-02 -0.86491207466E-02  0.14215416144E-01  0.00000000000E+00 0. -1.
     999901    1    3    3    0    0  0.11039838104E+00  0.50411323529E-01  0.25215243166E-01  0.88868718488E+00  0.88000000000E+00 0. -1.
        -11    1    4    4    0    0 -0.80541493815E-01 -0.48255787417E-01  0.88992258334E-02  0.94313363776E-01  0.51100000000E-03 0.  1.
         11    1    4    4    0    0 -0.37822651513E-01 -0.10144113314E-01 -0.25465348253E-01  0.46714035204E-01  0.51100000000E-03 0. -1.
</event>
<event>
 8    1  0.2025822E+004  0.1043930E+01  0.7957747E-01            NaN
         13   -1    0    0    0    0  0.00000000000E+00  0.00000000000E+00  0.74505805969E-08  0.10566000000E+00  0.10566000000E+00 0. -1.
     999900   -1    0    0    0    0 -0.00000000000E+00 -0.00000000000E+00 -0.74505805969E-08  0.93827000000E+00  0.93827000000E+00 0. -1.
     999902    2    1    2    0    0  0.10257781467E-01 -0.36668899147E-02 -0.81676301750E-02  0.10303146284E+01  0.10302246624E+01 0.  0.
     999903    2    3    3    0    0  0.56576507683E-02 -0.85202410290E-01 -0.10323734398E+00  0.14143474178E+00  0.45325238638E-01 0.  0.
         14    1    1    2    0    0 -0.10257781467E-01  0.36668899147E-02  0.81676301750E-02  0.13615371642E-01  0.00000000000E+00 0. -1.
     999901    1    3    3    0    0  0.46001306986E-02  0.81535520376E-01  0.95069713807E-01  0.88887988658E+00  0.88000000000E+00 0. -1.
        -11    1    4    4    0    0  0.23749347824E-01 -0.48934854889E-01 -0.72125390034E-01  0.90338167757E-01  0.51100000000E-03 0. -1.
         11    1    4    4    0    0 -0.18091697056E-01 -0.36267555401E-01 -0.31111953948E-01  0.51096574020E-01  0.51100000000E-03 0.  1.
</event>
<event>
 8    1  0.2025822E+004  0.1043930E+01  0.7957747E-01            NaN
         13   -1    0    0    0    0  0.00000000000E+00  0.00000000000E+00  0.74505805969E-08  0.10566000000E+00  0.10566000000E+00 0.  1.
     999900   -1    0    0    0    0 -0.00000000000E+00 -0.00000000000E+00 -0.74505805969E-08  0.93827000000E+00  0.93827000000E+00 0. -1.
     999902    2    1    2    0    0  0.13669605472E-01  0.20218909791E-04 -0.27709360706E-02  0.10299823619E+01  0.10298879207E+01 0.  0.
     999903    2    3    3    0    0 -0.24401237209E-01  0.27222871407E-01  0.12644625314E+00  0.13931606334E+00  0.45648718101E-01 0.  0.
         14    1    1    2    0    0 -0.13669605472E-01 -0.20218909791E-04  0.27709360706E-02  0.13947638125E-01  0.00000000000E+00 0.  1.
     999901    1    3    3    0    0  0.38070842681E-01 -0.27202652498E-01 -0.12921718921E+00  0.89066629854E+00  0.88000000000E+00 0. -1.
        -11    1    4    4    0    0 -0.78764508839E-02  0.21404180560E-01  0.16936786935E-01  0.28412907219E-01  0.51100000000E-03 0. -1.
         11    1    4    4    0    0 -0.16524786325E-01  0.58186908475E-02  0.10950946621E+00  0.11090315612E+00  0.51100000000E-03 0.  1.
</event>
<event>
 8    1  0.2025822E+004  0.1043930E+01  0.7957747E-01            NaN
         13   -1    0    0    0    0  0.00000000000E+00  0.00000000000E+00  0.74505805969E-08  0.10566000000E+00  0.10566000000E+00 0. -1.
     999900   -1    0    0    0    0 -0.00000000000E+00 -0.00000000000E+00 -0.74505805969E-08  0.93827000000E+00  0.93827000000E+00 0.  1.
     999902    2    1    2    0    0  0.11907094110E-01  0.40660823456E-02  0.25264954257E-02  0.10310966413E+01  0.10310167742E+01 0.  0.
     999903    2    3    3    0    0  0.12255627706E+00  0.46877552439E-01  0.33026752686E-01  0.14261122819E+00  0.45051637516E-01 0.  0.
         14    1    1    2    0    0 -0.11907094110E-01 -0.40660823456E-02 -0.25264954257E-02  0.12833358676E-01  0.00000000000E+00 0.  1.
     999901    1    3    3    0    0 -0.11064918295E+00 -0.42811470093E-01 -0.30500257260E-01  0.88848541313E+00  0.88000000000E+00 0.  1.
        -11    1    4    4    0    0  0.60505190123E-01  0.44001304590E-01  0.29404775379E-01  0.80385911537E-01  0.51100000000E-03 0.  1.
         11    1    4    4    0    0  0.62051086938E-01  0.28762478482E-02  0.36219773066E-02  0.62225316653E-01  0.51100000000E-03 0. -1.
</event>
<event>
 8    1  0.2025822E+004  0.1043930E+01  0.7957747E-01            NaN
         13   -1    0    0    0    0  0.00000000000E+00  0.00000000000E+00  0.74505805969E-08  0.10566000000E+00  0.10566000000E+00 0.  1.
     999900   -1    0    0    0    0 -0.00000000000E+00 -0.00000000000E+00 -0.74505805969E-08  0.93827000000E+00  0.93827000000E+00 0. -1.
     999902    2    1    2    0    0  0.25717537307E-02 -0.57018647471E-02  0.14043531851E-01  0.10285564524E+01  0.10284415539E+01 0.  0.
     999903    2    3    3    0    0 -0.23204583834E-01 -0.63911389844E-01  0.11445013496E+00  0.14056193984E+00  0.45118810696E-01 0.  0.
         14    1    1    2    0    0 -0.25717537307E-02  0.57018647471E-02 -0.14043531851E-01  0.15373547596E-01  0.00000000000E+00 0. -1.
     999901    1    3    3    0    0  0.25776337564E-01  0.58209525097E-01 -0.10040660310E+00  0.88799451256E+00  0.88000000000E+00 0. -1.
        -11    1    4    4    0    0 -0.34245525746E-01 -0.31450114252E-01  0.55924332396E-01  0.72730033653E-01  0.51100000000E-03 0.  1.
         11    1    4    4    0    0  0.11040941913E-01 -0.32461275591E-01  0.58525802559E-01  0.67831906191E-01  0.51100000000E-03 0. -1.
</event>
<event>
 8    1  0.2497652E+004  0.1043930E+01  0.7957747E-01            NaN
         13   -1    0    0    0    0  0.00000000000E+00  0.00000000000E+00  0.74505805969E-08  0.10566000000E+00  0.10566000000E+00 0.  1.
     999900   -1    0    0    0    0 -0.00000000000E+00 -0.00000000000E+00 -0.74505805969E-08  0.93827000000E+00  0.93827000000E+00 0.  1.
     999902    2    1    2    0    0 -0.39786487438E-02 -0.16062442445E-01 -0.14744101511E-02  0.10273165841E+01  0.10271822420E+01 0.  0.
     999903    2    3    3    0    0  0.79642602471E-01 -0.29746860405E-01 -0.98712275202E-01  0.13791511155E+00  0.45261958478E-01 0.  0.
         14    1    1    2    0    0  0.39786487438E-02  0.16062442445E-01  0.14744101511E-02  0.16613415917E-01  0.00000000000E+00 0. -1.
     999901    1    3    3    0    0 -0.83621251214E-01  0.13684417959E-01  0.97237865051E-01  0.88940147254E+00  0.88000000000E+00 0. -1.
        -11    1    4    4    0    0  0.64414181307E-01 -0.44725209073E-02 -0.53161908705E-01  0.83639941744E-01  0.51100000000E-03 0. -1.
         11    1    4    4    0    0  0.15228421163E-01 -0.25274339497E-01 -0.45550366497E-01  0.54275169803E-01  0.51100000000E-03 0.  1.
</event>
<event>
 8    1  0.2025822E+004  0.1043930E+01  0.7957747E-01            NaN
         13   -1    0    0    0    0  0.00000000000E+00  0.00000000000E+00  0.74505805969E-08  0.10566000000E+00  0.10566000000E+00 0.  1.
     999900   -1    0    0    0    0 -0.00000000000E+00 -0.00000000000E+00 -0.74505805969E-08  0.93827000000E+00  0.93827000000E+00 0. -1.
     999902    2    1    2    0    0  0.12156556901E-01  0.61414538785E-02 -0.36171303584E-02  0.10298380532E+01  0.10297416341E+01 0.  0.
     999903    2    3    3    0    0 -0.43650012646E-01 -0.12019392300E+00  0.29619346111E-01  0.13844607211E+00  0.44023930874E-01 0.  0.
         14    1    1    2    0    0 -0.12156556901E-01 -0.61414538785E-02  0.36171303584E-02  0.14091946759E-01  0.00000000000E+00 0. -1.
     999901    1    3    3    0    0  0.55806569546E-01  0.12633537688E+00 -0.33236476469E-01  0.89139198113E+00  0.88000000000E+00 0.  1.
        -11    1    4    4    0    0 -0.52075157206E-01 -0.92154813177E-01  0.25455172298E-01  0.10886945627E+00  0.51100000000E-03 0.  1.
         11    1    4    4    0    0  0.84251445603E-02 -0.28039109820E-01  0.41641738125E-02  0.29576615846E-01  0.51100000000E-03 0. -1.
</event>
<event>
 8    1  0.2025822E+004  0.1043930E+01  0.7957747E-01            NaN
         13   -1    0    0    0    0  0.00000000000E+00  0.00000000000E+00  0.74505805969E-08  0.10566000000E+00  0.10566000000E+00 0.  1.
     999900   -1    0    0    0    0 -0.00000000000E+00 -0.00000000000E+00 -0.74505805969E-08  0.93827000000E+00  0.93827000000E+00 0. -1.
     999902    2    1    2    0    0 -0.76811645648E-03 -0.61286485632E-02  0.15850999860E-01  0.10269181061E+01  0.10267771872E+01 0.  0.
     999903    2    3    3    0    0  0.32293902902E-01 -0.91541209912E-01  0.88547835890E-01  0.13918321738E+00  0.45919053581E-01 0.  0.
         14    1    1    2    0    0  0.76811645648E-03  0.61286485632E-02 -0.15850999860E-01  0.17011893859E-01  0.00000000000E+00 0. -1.
     999901    1    3    3    0    0 -0.33062019359E-01  0.85412561349E-01 -0.72696836030E-01  0.88773488876E+00  0.88000000000E+00 0.  1.
        -11    1    4    4    0    0  0.22463391645E-01 -0.72199370225E-01  0.89859638587E-01  0.11744091618E+00  0.51100000000E-03 0.  1.
         11    1    4    4    0    0  0.98305112568E-02 -0.19341839687E-01 -0.13118026970E-02  0.21742301197E-01  0.51100000000E-03 0. -1.
</event>
<event>
 8    1  0.2025822E+004  0.1043930E+01  0.7957747E-01            NaN
         13   -1    0    0    0    0  0.00000000000E+00  0.00000000000E+00  0.74505805969E-08  0.10566000000E+00  0.10566000000E+00 0. -1.
     999900   -1    0    0    0    0 -0.00000000000E+00 -0.00000000000E+00 -0.74505805969E-08  0.93827000000E+00  0.93827000000E+00 0.  1.
     999902    2    1    2    0    0 -0.36185972381E-02 -0.52929309980E-02 -0.11285031414E-01  0.10309507358E+01  0.10308690307E+01 0.  0.
     999903    2    3    3    0    0 -0.92841383479E-01  0.90729513076E-01  0.27746422480E-01  0.14038660577E+00  0.45685534793E-01 0.  0.
         14    1    1    2    0    0  0.36185972381E-02  0.52929309980E-02  0.11285031414E-01  0.12979264175E-01  0.00000000000E+00 0. -1.
     999901    1    3    3    0    0  0.89222786241E-01 -0.96022444074E-01 -0.39031453894E-01  0.89056413006E+00  0.88000000000E+00 0.  1.
        -11    1    4    4    0    0 -0.52328860011E-01  0.30846265860E-01 -0.51282463712E-02  0.60961969615E-01  0.51100000000E-03 0. -1.
         11    1    4    4    0    0 -0.40512523468E-01  0.59883247216E-01  0.32874668852E-01  0.79424636153E-01  0.51100000000E-03 0.  1.
</event>
<event>
 8    1  0.2025822E+004  0.1043930E+01  0.7957747E-01            NaN
         13   -1    0    0    0    0  0.00000000000E+00  0.00000000000E+00  0.74505805969E-08  0.10566000000E+00  0.10566000000E+00 0. -1.
     999900   -1    0    0    0    0 -0.00000000000E+00 -0.00000000000E+00 -0.74505805969E-08  0.93827000000E+00  0.93827000000E+00 0.  1.
     999902    2    1    2    0    0 -0.82804662911E-02  0.37055280698E-02  0.10542252431E-01  0.10300218676E+01  0.10299279643E+01 0.  0.
     999903    2    3    3    0    0  0.32092716507E-01  0.12747048053E+00  0.19459081994E-01  0.14039988767E+00  0.45329976002E-01 0.  0.
         14    1    1    2    0    0  0.82804662911E-02 -0.37055280698E-02 -0.10542252431E-01  0.13908132390E-01  0.00000000000E+00 0.  1.
     999901    1    3    3    0    0 -0.40373182798E-01 -0.12376495246E+00 -0.89168295636E-02  0.88962197994E+00  0.88000000000E+00 0.  1.
        -11    1    4    4    0    0  0.12117415399E-01  0.74917004552E-01 -0.10626095418E-01  0.76632658520E-01  0.51100000000E-03 0. -1.
         11    1    4    4    0    0  0.19975301107E-01  0.52553475983E-01  0.30085177412E-01  0.63767229147E-01  0.51100000000E-03 0.  1.
</event>
<event>
 8    1  0.2025822E+004  0.1043930E+01  0.7957747E-01            NaN
         13   -1    0    0    0    0  0.00000000000E+00  0.00000000000E+00  0.74505805969E-08  0.10566000000E+00  0.10566000000E+00 0.  1.
     999900   -1    0    0    0    0 -0.00000000000E+00 -0.00000000000E+00 -0.74505805969E-08  0.93827000000E+00  0.93827000000E+00 0.  1.
     999902    2    1    2    0    0  0.13937763403E-01  0.13225117064E-01  0.47005375965E-02  0.10241497062E+01  0.10239586714E+01 0.  0.
     999903    2    3    3    0    0 -0.62741591525E-01 -0.10460748856E+00 -0.24648178570E-01  0.13250762913E+00  0.45513790219E-01 0.  0.
         14    1    1    2    0    0 -0.13937763403E-01 -0.13225117064E-01 -0.47005375965E-02  0.19780293823E-01  0.00000000000E+00 0. -1.
     999901    1    3    3    0    0  0.76679354928E-01  0.11783260563E+00  0.29348716166E-01  0.89164207705E+00  0.88000000000E+00 0. -1.
        -11    1    4    4    0    0 -0.12269533674E-01 -0.46629334164E-01 -0.27638170505E-01  0.55578465713E-01  0.51100000000E-03 0. -1.
         11    1    4    4    0    0 -0.50472057850E-01 -0.57978154399E-01  0.29899919349E-02  0.76929163417E-01  0.51100000000E-03 0.  1.
</event>
<event>
 8    1  0.2025822E+004  0.1043930E+01  0.7957747E-01            NaN
         13   -1    0    0    0    0  0.00000000000E+00  0.00000000000E+00  0.74505805969E-08  0.10566000000E+00  0.10566000000E+00 0. -1.
     999900   -1    0    0    0    0 -0.00000000000E+00 -0.00000000000E+00 -0.74505805969E-08  0.93827000000E+00  0.93827000000E+00 0. -1.
     999902    2    1    2    0    0  0.25669901752E-03  0.10245863910E-01  0.11014639759E-01  0.10288845385E+01  0.10287745272E+01 0.  0.
     999903    2    3    3    0    0  0.11751826385E+00 -0.56735581407E-01  0.51086942559E-02  0.13856343422E+00  0.46306133587E-01 0.  0.
         14    1    1    2    0    0 -0.25669901752E-03 -0.10245863910E-01 -0.11014639759E-01  0.15045461464E-01  0.00000000000E+00 0.  1.
     999901    1    3    3    0    0 -0.11726156484E+00  0.66981445317E-01  0.59059455028E-02  0.89032110432E+00  0.88000000000E+00 0.  1.
        -11    1    4    4    0    0  0.20492619929E-01 -0.27442646518E-01 -0.10918444127E-01  0.35951632266E-01  0.51100000000E-03 0. -1.
         11    1    4    4    0    0  0.97025643926E-01 -0.29292934889E-01  0.16027138383E-01  0.10261180195E+00  0.51100000000E-03 0.  1.
</event>
<event>
 8    1  0.2025822E+004  0.1043930E+01  0.7957747E-01            NaN
         13   -1    0    0    0    0  0.00000000000E+00  0.00000000000E+00  0.74505805969E-08  0.10566000000E+00  0.10566000000E+00 0. -1.
     999900   -1    0    0    0    0 -0.00000000000E+00 -0.00000000000E+00 -0.74505805969E-08  0.93827000000E+00  0.93827000000E+00 0. -1.
     999902    2    1    2    0    0  0.79480356293E-02  0.72380026655E-02  0.88062796423E-02  0.10300335791E+01  0.10299398349E+01 0.  0.
     999903    2    3    3    0    0  0.64016043373E-01 -0.55316180842E-01 -0.10369806650E+00  0.13890290670E+00  0.37185949275E-01 0.  0.
         14    1    1    2    0    0 -0.79480356293E-02 -0.72380026655E-02 -0.88062796423E-02  0.13896420909E-01  0.00000000000E+00 0.  1.
     999901    1    3    3    0    0 -0.56068007743E-01  0.62554183507E-01  0.11250434614E+00  0.89113067239E+00  0.88000000000E+00 0.  1.
        -11    1    4    4    0    0  0.63001381154E-01 -0.57901328940E-01 -0.87223618762E-01  0.12218821020E+00  0.51100000000E-03 0. -1.
         11    1    4    4    0    0  0.10146622189E-02  0.25851480981E-02 -0.16474447737E-01  0.16714696508E-01  0.51100000000E-03 0.  1.
</event>
<event>
 8    1  0.2025822E+004  0.1043930E+01  0.7957747E-01            NaN
         13   -1    0    0    0    0  0.00000000000E+00  0.00000000000E+00  0.74505805969E-08  0.10566000000E+00  0.10566000000E+00 0. -1.
     999900   -1    0    0    0    0 -0.00000000000E+00 -0.00000000000E+00 -0.74505805969E-08  0.93827000000E+00  0.93827000000E+00 0. -1.
     999902    2    1    2    0    0 -0.77584538232E-02 -0.10481315278E-01 -0.36133585516E-02  0.10303982619E+01  0.10303094051E+01 0.  0.
     999903    2    3    3    0    0 -0.13458753407E+00  0.28738977402E-02 -0.15871730693E-01  0.14112088955E+00  0.39257228823E-01 0.  0.
         14    1    1    2    0    0  0.77584538232E-02  0.10481315278E-01  0.36133585516E-02  0.13531738089E-01  0.00000000000E+00 0.  1.
     999901    1    3    3    0    0  0.12682908025E+00 -0.13355213019E-01  0.12258372142E-01  0.88927737236E+00  0.88000000000E+00 0.  1.
        -11    1    4    4    0    0 -0.61007472517E-01  0.14486697373E-01  0.72469705019E-02  0.63123338046E-01  0.51100000000E-03 0.  1.
         11    1    4    4    0    0 -0.73580061557E-01 -0.11612799632E-01 -0.23118701195E-01  0.77997551500E-01  0.51100000000E-03 0. -1.
</event>
<event>
 8    1  0.2025822E+004  0.1043930E+01  0.7957747E-01            NaN
         13   -1    0    0    0    0  0.00000000000E+00  0.00000000000E+00  0.74505805969E-08  0.10566000000E+00  0.10566000000E+00 0.  1.
     999900   -1    0    0    0    0 -0.00000000000E+00 -0.00000000000E+00 -0.74505805969E-08  0.93827000000E+00  0.93827000000E+00 0.  1.
     999902    2    1    2    0    0  0.34146144792E-02  0.30107761896E-02  0.12771946299E-01  0.10303709817E+01  0.10302817639E+01 0.  0.
     999903    2    3    3    0    0  0.22419620198E-02  0.13228120655E+00  0.18159259949E-01  0.14090977262E+00  0.44971783354E-01 0.  0.
         14    1    1    2    0    0 -0.34146144792E-02 -0.30107761896E-02 -0.12771946299E-01  0.13559018312E-01  0.00000000000E+00 0. -1.
     999901    1    3    3    0    0  0.11726524594E-02 -0.12927043037E+00 -0.53873136498E-02  0.88946120906E+00  0.88000000000E+00 0. -1.
        -11    1    4    4    0    0 -0.18131102014E-01  0.68725557993E-01  0.20969593225E-01  0.74107517451E-01  0.51100000000E-03 0.  1.
         11    1    4    4    0    0  0.20373064033E-01  0.63555648561E-01 -0.28103332766E-02  0.66802255174E-01  0.51100000000E-03 0. -1.
</event>
<event>
 8    1  0.2025822E+004  0.1043930E+01  0.7957747E-01            NaN
         13   -1    0    0    0    0  0.00000000000E+00  0.00000000000E+00  0.74505805969E-08  0.10566000000E+00  0.10566000000E+00 0.  1.
     999900   -1    0    0    0    0 -0.00000000000E+00 -0.00000000000E+00 -0.74505805969E-08  0.93827000000E+00  0.93827000000E+00 0.  1.
     999902    2    1    2    0    0  0.36365967136E-02  0.81603389793E-02  0.97116688036E-02  0.10307340734E+01  0.10306495998E+01 0.  0.
     999903    2    3    3    0    0 -0.38225751457E-01  0.72106359264E-01 -0.10261867913E+00  0.14030740221E+00  0.49950362227E-01 0.  0.
         14    1    1    2    0    0 -0.36365967136E-02 -0.81603389793E-02 -0.97116688036E-02  0.13195926601E-01  0.00000000000E+00 0.  1.
     999901    1    3    3    0    0  0.41862348171E-01 -0.63946020285E-01  0.11233034793E+00  0.89042667119E+00  0.88000000000E+00 0. -1.
        -11    1    4    4    0    0 -0.25743019571E-01  0.34222134510E-01 -0.17422899317E-01  0.46235009340E-01  0.51100000000E-03 0.  1.
         11    1    4    4    0    0 -0.12482731886E-01  0.37884224754E-01 -0.85195779813E-01  0.94072392866E-01  0.51100000000E-03 0. -1.
</event>
<event>
 8    1  0.2025822E+004  0.1043930E+01  0.7957747E-01            NaN
         13   -1    0    0    0    0  0.00000000000E+00  0.00000000000E+00  0.74505805969E-08  0.10566000000E+00  0.10566000000E+00 0. -1.
     999900   -1    0    0    0    0 -0.00000000000E+00 -0.00000000000E+00 -0.74505805969E-08  0.93827000000E+00  0.93827000000E+00 0.  1.
     999902    2    1    2    0    0 -0.11246528743E-01 -0.11133162052E-01 -0.22464569689E-02  0.10279463122E+01  0.10278220384E+01 0.  0.
     999903    2    3    3    0    0  0.40236274785E-01  0.94223874526E-01 -0.79134730789E-01  0.13684452743E+00  0.44351129978E-01 0.  0.
         14    1    1    2    0    0  0.11246528743E-01  0.11133162052E-01  0.22464569689E-02  0.15983687777E-01  0.00000000000E+00 0.  1.
     999901    1    3    3    0    0 -0.51482803528E-01 -0.10535703658E+00  0.76888273820E-01  0.89110178480E+00  0.88000000000E+00 0. -1.
        -11    1    4    4    0    0  0.34980059439E-01  0.61432707870E-01 -0.28360617507E-01  0.76171962696E-01  0.51100000000E-03 0. -1.
         11    1    4    4    0    0  0.52562153458E-02  0.32791166656E-01 -0.50774113282E-01  0.60672564731E-01  0.51100000000E-03 0.  1.
</event>
<event>
 8    1  0.2025822E+004  0.1043930E+01  0.7957747E-01            NaN
         13   -1    0    0    0    0  0.00000000000E+00  0.00000000000E+00  0.74505805969E-08  0.10566000000E+00  0.10566000000E+00 0.  1.
     999900   -1    0    0    0    0 -0.00000000000E+00 -0.00000000000E+00 -0.74505805969E-08  0.93827000000E+00  0.93827000000E+00 0.  1.
     999902    2    1    2    0    0 -0.64596902440E-03  0.12269512996E-01 -0.15549145296E-01  0.10241124788E+01  0.10239207172E+01 0.  0.
     999903    2    3    3    0    0  0.96406668121E-01  0.30007353889E-02  0.80383120672E-01  0.13354629699E+00  0.45496343591E-01 0.  0.
         14    1    1    2    0    0  0.64596902440E-03 -0.12269512996E-01  0.15549145296E-01  0.19817521151E-01  0.00000000000E+00 0.  1.
     999901    1    3    3    0    0 -0.97052637145E-01  0.92687776071E-02 -0.95932265968E-01  0.89056618186E+00  0.88000000000E+00 0.  1.
        -11    1    4    4    0    0  0.55068352709E-01  0.17020500253E-01  0.65901867209E-01  0.87553058893E-01  0.51100000000E-03 0. -1.
         11    1    4    4    0    0  0.41338315412E-01 -0.14019764864E-01  0.14481253464E-01  0.45993238099E-01  0.51100000000E-03 0.  1.
</event>
<event>
 8    1  0.2025822E+004  0.1043930E+01  0.7957747E-01            NaN
         13   -1    0    0    0    0  0.00000000000E+00  0.00000000000E+00  0.74505805969E-08  0.10566000000E+00  0.10566000000E+00 0.  1.
     999900   -1    0    0    0    0 -0.00000000000E+00 -0.00000000000E+00 -0.74505805969E-08  0.93827000000E+00  0.93827000000E+00 0. -1.
     999902    2    1    2    0    0  0.32595626748E-02 -0.10709110523E-01 -0.80105585540E-02  0.10301648685E+01  0.10300728991E+01 0.  0.
     999903    2    3    3    0    0  0.72515172097E-01 -0.96889439585E-01 -0.58702976146E-01  0.14179945395E+00  0.44889108314E-01 0.  0.
         14    1    1    2    0    0 -0.32595626748E-02  0.10709110523E-01  0.80105585540E-02  0.13765131506E-01  0.00000000000E+00 0. -1.
     999901    1    3    3    0    0 -0.69255609422E-01  0.86180329062E-01  0.50692417592E-01  0.88836541454E+00  0.88000000000E+00 0.  1.
        -11    1    4    4    0    0  0.45244694421E-01 -0.34657542800E-01 -0.92023258147E-02  0.57733625970E-01  0.51100000000E-03 0. -1.
         11    1    4    4    0    0  0.27270477676E-01 -0.62231896784E-01 -0.49500650332E-01  0.84065827982E-01  0.51100000000E-03 0.  1.
</event>
<event>
 8    1  0.2025822E+004  0.1043930E+01  0.7957747E-01            NaN
         13   -1    0    0    0    0  0.00000000000E+00  0.00000000000E+00  0.74505805969E-08  0.10566000000E+00  0.10566000000E+00 0.  1.
     999900   -1    0    0    0    0 -0.00000000000E+00 -0.00000000000E+00 -0.74505805969E-08  0.93827000000E+00  0.93827000000E+00 0.  1.
     999902    2    1    2    0    0  0.26009260009E-02  0.13101788357E-01  0.44104255523E-02  0.10298632474E+01  0.10297671751E+01 0.  0.
     999903    2    3    3    0    0 -0.12282346296E+00  0.28798723491E-01  0.41136879238E-01  0.14007310166E+00  0.44869382067E-01 0.  0.
         14    1    1    2    0    0 -0.26009260009E-02 -0.13101788357E-01 -0.44104255523E-02  0.14066752566E-01  0.00000000000E+00 0. -1.
     999901    1    3    3    0    0  0.12542438896E+00 -0.15696935134E-01 -0.36726453686E-01  0.88979014578E+00  0.88000000000E+00 0.  1.
        -11    1    4    4    0    0 -0.69620711775E-01 -0.63714647224E-03  0.60911690888E-02  0.69891436711E-01  0.51100000000E-03 0. -1.
         11    1    4    4    0    0 -0.53202751183E-01  0.29435869963E-01  0.35045710150E-01  0.70181664948E-01  0.51100000000E-03 0.  1.
</event>
<event>
 8    1  0.2025822E+004  0.1043930E+01  0.7957747E-01            NaN
         13   -1    0    0    0    0  0.00000000000E+00  0.00000000000E+00  0.74505805969E-08  0.10566000000E+00  0.10566000000E+00 0. -1.
     999900   -1    0    0    0    0 -0.00000000000E+00 -0.00000000000E+00 -0.74505805969E-08  0.93827000000E+00  0.93827000000E+00 0. -1.
     999902    2    1    2    0    0  0.11841540841E-01 -0.67639080404E-02 -0.13637553471E-02  0.10302248050E+01  0.10301336401E+01 0.  0.
     999903    2    3    3    0    0  0.10577646174E+00  0.20522357156E-01 -0.79745279120E-01  0.14134237582E+00  0.44816633725E-01 0.  0.
         14    1    1    2    0    0 -0.11841540841E-01  0.67639080404E-02  0.13637553471E-02  0.13705195005E-01  0.00000000000E+00 0.  1.
     999901    1    3    3    0    0 -0.93934920899E-01 -0.27286265196E-01  0.78381523773E-01  0.88888242918E+00  0.88000000000E+00 0.  1.
        -11    1    4    4    0    0  0.38751732681E-01  0.68419794587E-02 -0.44394918015E-02  0.39604036122E-01  0.51100000000E-03 0. -1.
         11    1    4    4    0    0  0.67024729058E-01  0.13680377697E-01 -0.75305787318E-01  0.10173833969E+00  0.51100000000E-03 0.  1.
</event>
<event>
 8    1  0.2025822E+004  0.1043930E+01  0.7957747E-01            NaN
         13   -1    0    0    0    0  0.00000000000E+00  0.00000000000E+00  0.74505805969E-08  0.10566000000E+00  0.10566000000E+00 0. -1.
     999900   -1    0    0    0    0 -0.00000000000E+00 -0.00000000000E+00 -0.74505805969E-08  0.93827000000E+00  0.93827000000E+00 0.  1.
     999902    2    1    2    0    0 -0.29092676489E-02 -0.12247488310E-01  0.55195825063E-02  0.10301847972E+01  0.10300930957E+01 0.  0.
     999903    2    3    3    0    0  0.10097279765E+00 -0.62983023778E-01 -0.59593554369E-01  0.14023800183E+00  0.44192061335E-01 0.  0.
         14    1    1    2    0    0  0.29092676489E-02  0.12247488310E-01 -0.55195825063E-02  0.13745202771E-01  0.00000000000E+00 0. -1.
     999901    1    3    3    0    0 -0.10388206530E+00  0.50735535468E-01  0.65113136875E-01  0.88994679540E+00  0.88000000000E+00 0. -1.
        -11    1    4    4    0    0  0.45545421804E-01 -0.54227337098E-01 -0.32345356320E-01  0.77855460518E-01  0.51100000000E-03 0. -1.
         11    1    4    4    0    0  0.55427375846E-01 -0.87556866806E-02 -0.27248198049E-01  0.62382541311E-01  0.51100000000E-03 0.  1.
</event>
<event>
 8    1  0.2025822E+004  0.1043930E+01  0.7957747E-01            NaN
         13   -1    0    0    0    0  0.00000000000E+00  0.00000000000E+00  0.74505805969E-08  0.10566000000E+00  0.10566000000E+00 0. -1.
     999900   -1    0    0    0    0 -0.00000000000E+00 -0.00000000000E+00 -0.74505805969E-08  0.93827000000E+00  0.93827000000E+00 0. -1.
     999902    2    1    2    0    0  0.92298601264E-02  0.76814583939E-02 -0.52059220712E-02  0.10308419617E+01  0.10307588725E+01 0.  0.
     999903    2    3    3    0    0  0.24822392118E-01  0.27223424622E-01  0.12789425093E+00  0.14048210665E+00  0.44955721212E-01 0.  0.
         14    1    1    2    0    0 -0.92298601264E-02 -0.76814583939E-02  0.52059220712E-02  0.13088038265E-01  0.00000000000E+00 0. -1.
     999901    1    3    3    0    0 -0.15592531992E-01 -0.19541966228E-01 -0.13310017300E+00  0.89035985509E+00  0.88000000000E+00 0. -1.
        -11    1    4    4    0    0 -0.83902369994E-02 -0.20348172410E-02  0.51242992371E-01  0.51967700991E-01  0.51100000000E-03 0. -1.
         11    1    4    4    0    0  0.33212629117E-01  0.29258241863E-01  0.76651258555E-01  0.88514405658E-01  0.51100000000E-03 0.  1.
</event>
<event>
 8    1  0.2025822E+004  0.1043930E+01  0.7957747E-01            NaN
         13   -1    0    0    0    0  0.00000000000E+00  0.00000000000E+00  0.74505805969E-08  0.10566000000E+00  0.10566000000E+00 0.  1.
     999900   -1    0    0    0    0 -0.00000000000E+00 -0.00000000000E+00 -0.74505805969E-08  0.93827000000E+00  0.93827000000E+00 0. -1.
     999902    2    1    2    0    0 -0.44200301578E-02 -0.92142260655E-02 -0.94655592681E-02  0.10300003395E+01  0.10299061433E+01 0.  0.
     999903    2    3    3    0    0  0.83199543766E-01  0.22999280922E-02 -0.10381930873E+00  0.14055534656E+00  0.45275852613E-01 0.  0.
         14    1    1    2    0    0  0.44200301578E-02  0.92142260655E-02  0.94655592681E-02  0.13929660471E-01  0.00000000000E+00 0.  1.
     999901    1    3    3    0    0 -0.87619573924E-01 -0.11514154158E-01  0.94353749459E-01  0.88944499297E+00  0.88000000000E+00 0. -1.
        -11    1    4    4    0    0  0.21820927965E-01  0.83388357458E-02 -0.47311381019E-02  0.23839753933E-01  0.51100000000E-03 0.  1.
         11    1    4    4    0    0  0.61378615801E-01 -0.60389076536E-02 -0.99088170625E-01  0.11671559263E+00  0.51100000000E-03 0. -1.
</event>
<event>
 8    1  0.2025822E+004  0.1043930E+01  0.7957747E-01            NaN
         13   -1    0    0    0    0  0.00000000000E+00  0.00000000000E+00  0.74505805969E-08  0.10566000000E+00  0.10566000000E+00 0. -1.
     999900   -1    0    0    0    0 -0.00000000000E+00 -0.00000000000E+00 -0.74505805969E-08  0.93827000000E+00  0.93827000000E+00 0.  1.
     999902    2    1    2    0    0  0.94172737528E-03 -0.76311497780E-02 -0.11261900093E-01  0.10302935895E+01  0.10302033435E+01 0.  0.
     999903    2    3    3    0    0 -0.15751668920E-01  0.12587823874E+00 -0.38268892808E-01  0.13965741016E+00  0.44116187450E-01 0.  0.
         14    1    1    2    0    0 -0.94172737528E-03  0.76311497780E-02  0.11261900093E-01  0.13636410491E-01  0.00000000000E+00 0. -1.
     999901    1    3    3    0    0  0.16693396295E-01 -0.13350938852E+00  0.27006992715E-01  0.89063617934E+00  0.88000000000E+00 0.  1.
        -11    1    4    4    0    0 -0.29247925736E-01  0.56455108667E-01 -0.17610311131E-01  0.65977303928E-01  0.51100000000E-03 0. -1.
         11    1    4    4    0    0  0.13496256816E-01  0.69423130072E-01 -0.20658581677E-01  0.73680106236E-01  0.51100000000E-03 0.  1.
</event>
<event>
 8    1  0.2025822E+004  0.1043930E+01  0.7957747E-01            NaN
         13   -1    0    0    0    0  0.00000000000E+00  0.00000000000E+00  0.74505805969E-08  0.10566000000E+00  0.10566000000E+00 0.  1.
     999900   -1    0    0    0    0 -0.00000000000E+00 -0.00000000000E+00 -0.74505805969E-08  0.93827000000E+00  0.93827000000E+00 0. -1.
     999902    2    1    2    0    0 -0.78650191311E-02  0.46644779053E-02  0.12233100831E-01  0.10286569965E+01  0.10285436071E+01 0.  0.
     999903    2    3    3    0    0 -0.44057257116E-01 -0.81249819410E-01  0.94962596253E-01  0.13987394424E+00  0.44768856701E-01 0.  0.
         14    1    1    2    0    0  0.78650191311E-02 -0.46644779053E-02 -0.12233100831E-01  0.15273003503E-01  0.00000000000E+00 0.  1.
     999901    1    3    3    0    0  0.36192237985E-01  0.85914297315E-01 -0.82729495422E-01  0.88878305226E+00  0.88000000000E+00 0. -1.
        -11    1    4    4    0    0  0.92702618596E-02 -0.10882046861E-01  0.11167153513E-01  0.18147262532E-01  0.51100000000E-03 0. -1.
         11    1    4    4    0    0 -0.53327518976E-01 -0.70367772549E-01  0.83795442740E-01  0.12172668170E+00  0.51100000000E-03 0.  1.
</event>
<event>
 8    1  0.2025822E+004  0.1043930E+01  0.7957747E-01            NaN
         13   -1    0    0    0    0  0.00000000000E+00  0.00000000000E+00  0.74505805969E-08  0.10566000000E+00  0.10566000000E+00 0. -1.
     999900   -1    0    0    0    0 -0.00000000000E+00 -0.00000000000E+00 -0.74505805969E-08  0.93827000000E+00  0.93827000000E+00 0. -1.
     999902    2    1    2    0    0 -0.11670177770E-01  0.64895082112E-02 -0.22141985131E-02  0.10303945118E+01  0.10303056054E+01 0.  0.
     999903    2    3    3    0    0  0.10389526708E+00  0.44883424257E-01  0.67497929378E-01  0.13927765884E+00  0.45094872069E-01 0.  0.
         14    1    1    2    0    0  0.11670177770E-01 -0.64895082112E-02  0.22141985131E-02  0.13535488210E-01  0.00000000000E+00 0.  1.
     999901    1    3    3    0    0 -0.11556544485E+00 -0.38393916046E-01 -0.69712127891E-01  0.89111685295E+00  0.88000000000E+00 0. -1.
        -11    1    4    4    0    0  0.49876174169E-01  0.29913836142E-01  0.10071628454E-01  0.59026851205E-01  0.51100000000E-03 0.  1.
         11    1    4    4    0    0  0.54019092913E-01  0.14969588116E-01  0.57426300924E-01  0.80250807637E-01  0.51100000000E-03 0. -1.
</event>
<event>
 8    1  0.2025822E+004  0.1043930E+01  0.7957747E-01            NaN
         13   -1    0    0    0    0  0.00000000000E+00  0.00000000000E+00  0.74505805969E-08  0.10566000000E+00  0.10566000000E+00 0.  1.
     999900   -1    0    0    0    0 -0.00000000000E+00 -0.00000000000E+00 -0.74505805969E-08  0.93827000000E+00  0.93827000000E+00 0. -1.
     999902    2    1    2    0    0  0.12319977774E-01  0.59540684392E-02  0.39747022511E-02  0.10296811039E+01  0.10295825099E+01 0.  0.
     999903    2    3    3    0    0 -0.33115392659E-01 -0.11400507193E+00 -0.55233067655E-01  0.13841227333E+00  0.44871817327E-01 0.  0.
         14    1    1    2    0    0 -0.12319977774E-01 -0.59540684392E-02 -0.39747022511E-02  0.14248896144E-01  0.00000000000E+00 0.  1.
     999901    1    3    3    0    0  0.45435370433E-01  0.11995914037E+00  0.59207769907E-01  0.89126883052E+00  0.88000000000E+00 0.  1.
        -11    1    4    4    0    0 -0.49226046358E-03 -0.27480330504E-01  0.51550737298E-02  0.27968675176E-01  0.51100000000E-03 0. -1.
         11    1    4    4    0    0 -0.32623132196E-01 -0.86524741425E-01 -0.60388141385E-01  0.11044359816E+00  0.51100000000E-03 0.  1.
</event>
<event>
 8    1  0.2025822E+004  0.1043930E+01  0.7957747E-01            NaN
         13   -1    0    0    0    0  0.00000000000E+00  0.00000000000E+00  0.74505805969E-08  0.10566000000E+00  0.10566000000E+00 0. -1.
     999900   -1    0    0    0    0 -0.00000000000E+00 -0.00000000000E+00 -0.74505805969E-08  0.93827000000E+00  0.93827000000E+00 0.  1.
     999902    2    1    2    0    0 -0.68740416702E-03  0.20400360042E-01 -0.26729091632E-02  0.10233437993E+01  0.10231367162E+01 0.  0.
     999903    2    3    3    0    0  0.16422486498E-01 -0.10084496314E+00  0.69888268492E-01  0.13190771007E+00  0.45561708148E-01 0.  0.
         14    1    1    2    0    0  0.68740416702E-03 -0.20400360042E-01  0.26729091632E-02  0.20586200663E-01  0.00000000000E+00 0. -1.
     999901    1    3    3    0    0 -0.17109890665E-01  0.12124532318E+00 -0.72561177656E-01  0.89143608927E+00  0.88000000000E+00 0. -1.
        -11    1    4    4    0    0 -0.23115653858E-02 -0.78159083107E-02  0.26186833657E-01  0.27430696952E-01  0.51100000000E-03 0. -1.
         11    1    4    4    0    0  0.18734051884E-01 -0.93029054825E-01  0.43701434835E-01  0.10447701311E+00  0.51100000000E-03 0.  1.
</event>
<event>
 8    1  0.2025822E+004  0.1043930E+01  0.7957747E-01            NaN
         13   -1    0    0    0    0  0.00000000000E+00  0.00000000000E+00  0.74505805969E-08  0.10566000000E+00  0.10566000000E+00 0.  1.
     999900   -1    0    0    0    0 -0.00000000000E+00 -0.00000000000E+00 -0.74505805969E-08  0.93827000000E+00  0.93827000000E+00 0. -1.
     999902    2    1    2    0    0 -0.70740591298E-02  0.10555926430E-01 -0.72678354275E-03  0.10312021522E+01  0.10311236010E+01 0.  0.
     999903    2    3    3    0    0  0.74933297457E-01  0.86316141803E-01  0.70155267643E-01  0.14132065337E+00  0.44545371120E-01 0.  0.
         14    1    1    2    0    0  0.70740591298E-02 -0.10555926430E-01  0.72678354275E-03  0.12727847803E-01  0.00000000000E+00 0.  1.
     999901    1    3    3    0    0 -0.82007356587E-01 -0.75760215373E-01 -0.70882051186E-01  0.88988149882E+00  0.88000000000E+00 0. -1.
        -11    1    4    4    0    0  0.22628411477E-01  0.41093691719E-01  0.51577798574E-01  0.69722786317E-01  0.51100000000E-03 0. -1.
         11    1    4    4    0    0  0.52304885981E-01  0.45222450084E-01  0.18577469070E-01  0.71597867057E-01  0.51100000000E-03 0.  1.
</event>
<event>
 8    1  0.2025822E+004  0.1043930E+01  0.7957747E-01            NaN
         13   -1    0    0    0    0  0.00000000000E+00  0.00000000000E+00  0.74505805969E-08  0.10566000000E+00  0.10566000000E+00 0.  1.
     999900   -1    0    0    0    0 -0.00000000000E+00 -0.00000000000E+00 -0.74505805969E-08  0.93827000000E+00  0.93827000000E+00 0. -1.
     999902    2    1    2    0    0 -0.24493851800E-02 -0.63485782110E-02  0.12194538146E-01  0.10299653771E+01  0.10298707041E+01 0.  0.
     999903    2    3    3    0    0  0.79383226861E-01  0.50601808478E-01 -0.93572929904E-01  0.13804235335E+00  0.37915147101E-01 0.  0.
         14    1    1    2    0    0  0.24493851800E-02  0.63485782110E-02 -0.12194538146E-01  0.13964622933E-01  0.00000000000E+00 0. -1.
     999901    1    3    3    0    0 -0.81832612041E-01 -0.56950386689E-01  0.10576746805E+00  0.89192302372E+00  0.88000000000E+00 0.  1.
        -11    1    4    4    0    0  0.45369662796E-02  0.26998801333E-02 -0.25650049089E-01  0.26192738594E-01  0.51100000000E-03 0. -1.
         11    1    4    4    0    0  0.74846260581E-01  0.47901928344E-01 -0.67922880815E-01  0.11184961476E+00  0.51100000000E-03 0.  1.
</event>
<event>
 8    1  0.2025822E+004  0.1043930E+01  0.7957747E-01            NaN
         13   -1    0    0    0    0  0.00000000000E+00  0.00000000000E+00  0.74505805969E-08  0.10566000000E+00  0.10566000000E+00 0. -1.
     999900   -1    0    0    0    0 -0.00000000000E+00 -0.00000000000E+00 -0.74505805969E-08  0.93827000000E+00  0.93827000000E+00 0.  1.
     999902    2    1    2    0    0 -0.21171116834E-03 -0.12821161862E-01  0.20841829421E-02  0.10309388172E+01  0.10308569609E+01 0.  0.
     999903    2    3    3    0    0 -0.17754959908E-01 -0.26701608024E-01  0.13003823370E+00  0.14140372990E+00  0.45352597850E-01 0.  0.
         14    1    1    2    0    0  0.21171116834E-03  0.12821161862E-01 -0.20841829421E-02  0.12991182843E-01  0.00000000000E+00 0.  1.
     999901    1    3    3    0    0  0.17543248740E-01  0.13880446161E-01 -0.12795405076E+00  0.88953508726E+00  0.88000000000E+00 0.  1.
        -11    1    4    4    0    0 -0.32629035562E-01 -0.13693359762E-01  0.75181100902E-01  0.83094049830E-01  0.51100000000E-03 0. -1.
         11    1    4    4    0    0  0.14874075654E-01 -0.13008248261E-01  0.54857132801E-01  0.58309680067E-01  0.51100000000E-03 0.  1.
</event>
<event>
 8    1  0.2025822E+004  0.1043930E+01  0.7957747E-01            NaN
         13   -1    0    0    0    0  0.00000000000E+00  0.00000000000E+00  0.74505805969E-08  0.10566000000E+00  0.10566000000E+00 0.  1.
     999900   -1    0    0    0    0 -0.00000000000E+00 -0.00000000000E+00 -0.74505805969E-08  0.93827000000E+00  0.93827000000E+00 0. -1.
     999902    2    1    2    0    0 -0.23507608162E-02 -0.10698515239E-01 -0.86396555867E-02  0.10299790877E+01  0.10298846019E+01 0.  0.
     999903    2    3    3    0    0 -0.12734087178E+00  0.43198584539E-02 -0.38564313656E-01  0.14051657331E+00  0.44981577153E-01 0.  0.
         14    1    1    2    0    0  0.23507608162E-02  0.10698515239E-01  0.86396555867E-02  0.13950912278E-01  0.00000000000E+00 0.  1.
     999901    1    3    3    0    0  0.12499011097E+00 -0.15018373693E-01  0.29924658069E-01  0.88946251441E+00  0.88000000000E+00 0.  1.
        -11    1    4    4    0    0 -0.85672171977E-01  0.11110107623E-01 -0.49224947567E-02  0.86531194481E-01  0.51100000000E-03 0.  1.
         11    1    4    4    0    0 -0.41668699805E-01 -0.67902491694E-02 -0.33641818899E-01  0.53985378826E-01  0.51100000000E-03 0. -1.
</event>
<event>
 8    1  0.2025822E+004  0.1043930E+01  0.7957747E-01            NaN
         13   -1    0    0    0    0  0.00000000000E+00  0.00000000000E+00  0.74505805969E-08  0.10566000000E+00  0.10566000000E+00 0. -1.
     999900   -1    0    0    0    0 -0.00000000000E+00 -0.00000000000E+00 -0.74505805969E-08  0.93827000000E+00  0.93827000000E+00 0. -1.
     999902    2    1    2    0    0 -0.72064626865E-02  0.74856588846E-02  0.73522577767E-02  0.10312011396E+01  0.10311225758E+01 0.  0.
     999903    2    3    3    0    0  0.35890602124E-01 -0.64274913411E-02  0.12936966081E+00  0.14162866957E+00  0.44639925393E-01 0.  0.
         14    1    1    2    0    0  0.72064626865E-02 -0.74856588846E-02 -0.73522577767E-02  0.12728860428E-01  0.00000000000E+00 0.  1.
     999901    1    3    3    0    0 -0.43097064811E-01  0.13913150226E-01 -0.12201740304E+00  0.88957247000E+00  0.88000000000E+00 0. -1.
        -11    1    4    4    0    0  0.10453884023E-02  0.10291635351E-01  0.70155438593E-01  0.70915846468E-01  0.51100000000E-03 0. -1.
         11    1    4    4    0    0  0.34845213722E-01 -0.16719126692E-01  0.59214222220E-01  0.70712823100E-01  0.51100000000E-03 0.  1.
</event>
<event>
 8    1  0.2025822E+004  0.1043930E+01  0.7957747E-01            NaN
         13   -1    0    0    0    0  0.00000000000E+00  0.00000000000E+00  0.74505805969E-08  0.10566000000E+00  0.10566000000E+00 0.  1.
     999900   -1    0    0    0    0 -0.00000000000E+00 -0.00000000000E+00 -0.74505805969E-08  0.93827000000E+00  0.93827000000E+00 0.  1.
     999902    2    1    2    0    0 -0.91218205451E-02  0.89808156139E-02  0.36811956160E-02  0.10306103206E+01  0.10305242447E+01 0.  0.
     999903    2    3    3    0    0 -0.85956742849E-01  0.88551147568E-02 -0.10173480314E+00  0.14099458673E+00  0.45415070402E-01 0.  0.
         14    1    1    2    0    0  0.91218205451E-02 -0.89808156139E-02 -0.36811956160E-02  0.13319679437E-01  0.00000000000E+00 0. -1.
     999901    1    3    3    0    0  0.76834922304E-01  0.12570085701E-03  0.10541599875E+00  0.88961573383E+00  0.88000000000E+00 0. -1.
        -11    1    4    4    0    0 -0.62723965672E-01 -0.20098242821E-02 -0.40732703230E-01  0.74818109417E-01  0.51100000000E-03 0. -1.
         11    1    4    4    0    0 -0.23232777177E-01  0.10864939039E-01 -0.61002099908E-01  0.66176477315E-01  0.51100000000E-03 0.  1.
</event>
<event>
 8    1  0.2025822E+004  0.1043930E+01  0.7957747E-01            NaN
         13   -1    0    0    0    0  0.00000000000E+00  0.00000000000E+00  0.74505805969E-08  0.10566000000E+00  0.10566000000E+00 0.  1.
     999900   -1    0    0    0    0 -0.00000000000E+00 -0.00000000000E+00 -0.74505805969E-08  0.93827000000E+00  0.93827000000E+00 0.  1.
     999902    2    1    2    0    0 -0.95606264102E-04  0.54564512578E-02 -0.13604165035E-01  0.10292720565E+01  0.10291676788E+01 0.  0.
     999903    2    3    3    0    0 -0.46882786301E-02  0.11068056048E+00  0.70884563359E-01  0.13897348243E+00  0.44909253723E-01 0.  0.
         14    1    1    2    0    0  0.95606264102E-04 -0.54564512578E-02  0.13604165035E-01  0.14657943484E-01  0.00000000000E+00 0.  1.
     999901    1    3    3    0    0  0.45926723660E-02 -0.10522410922E+00 -0.84488728394E-01  0.89029857409E+00  0.88000000000E+00 0.  1.
        -11    1    4    4    0    0 -0.92241885405E-02  0.10737738362E+00  0.52763791723E-01  0.11999694581E+00  0.51100000000E-03 0.  1.
         11    1    4    4    0    0  0.45359099104E-02  0.33031768651E-02  0.18120771636E-01  0.18976536612E-01  0.51100000000E-03 0. -1.
</event>
<event>
 8    1  0.2025822E+004  0.1043930E+01  0.7957747E-01            NaN
         13   -1    0    0    0    0  0.00000000000E+00  0.00000000000E+00  0.74505805969E-08  0.10566000000E+00  0.10566000000E+00 0. -1.
     999900   -1    0    0    0    0 -0.00000000000E+00 -0.00000000000E+00 -0.74505805969E-08  0.93827000000E+00  0.93827000000E+00 0.  1.
     999902    2    1    2    0    0 -0.65789302801E-02 -0.51367840567E-02 -0.12452807264E-01  0.10289386264E+01  0.10288294103E+01 0.  0.
     999903    2    3    3    0    0  0.22004937406E-02 -0.99736472808E-01 -0.88519444088E-01  0.14056240392E+00  0.44383456766E-01 0.  0.
         14    1    1    2    0    0  0.65789302801E-02  0.51367840567E-02  0.12452807264E-01  0.14991373614E-01  0.00000000000E+00 0. -1.
     999901    1    3    3    0    0 -0.87794240207E-02  0.94599688751E-01  0.76066636824E-01  0.88837622246E+00  0.88000000000E+00 0. -1.
        -11    1    4    4    0    0 -0.75389569142E-02 -0.34059807087E-01 -0.72762389705E-02  0.35638618165E-01  0.51100000000E-03 0. -1.
         11    1    4    4    0    0  0.97394506548E-02 -0.65676665720E-01 -0.81243205118E-01  0.10492378576E+00  0.51100000000E-03 0.  1.
</event>
<event>
 8    1  0.2025822E+004  0.1043930E+01  0.7957747E-01            NaN
         13   -1    0    0    0    0  0.00000000000E+00  0.00000000000E+00  0.74505805969E-08  0.10566000000E+00  0.10566000000E+00 0. -1.
     999900   -1    0    0    0    0 -0.00000000000E+00 -0.00000000000E+00 -0.74505805969E-08  0.93827000000E+00  0.93827000000E+00 0.  1.
     999902    2    1    2    0    0 -0.24596143957E-02 -0.12564500429E-01  0.51612526212E-02  0.10301258375E+01  0.10300333423E+01 0.  0.
     999903    2    3    3    0    0  0.96006658521E-01  0.89075238195E-01 -0.25028910266E-02  0.13878696676E+00  0.45868084113E-01 0.  0.
         14    1    1    2    0    0  0.24596143957E-02  0.12564500429E-01 -0.51612526212E-02  0.13804162510E-01  0.00000000000E+00 0. -1.
     999901    1    3    3    0    0 -0.98466272916E-01 -0.10163973862E+00  0.76641436479E-02  0.89133887073E+00  0.88000000000E+00 0.  1.
        -11    1    4    4    0    0  0.49268835162E-01  0.33285055068E-01  0.19789645975E-01  0.62667409535E-01  0.51100000000E-03 0.  1.
         11    1    4    4    0    0  0.46737823359E-01  0.55790183127E-01 -0.22292537001E-01  0.76119557228E-01  0.51100000000E-03 0. -1.
</event>
<event>
 8    1  0.2025822E+004  0.1043930E+01  0.7957747E-01            NaN
         13   -1    0    0    0    0  0.00000000000E+00  0.00000000000E+00  0.74505805969E-08  0.10566000000E+00  0.10566000000E+00 0.  1.
     999900   -1    0    0    0    0 -0.00000000000E+00 -0.00000000000E+00 -0.74505805969E-08  0.93827000000E+00  0.93827000000E+00 0.  1.
     999902    2    1    2    0    0  0.32904524456E-02  0.13450620792E-01 -0.25226824564E-02  0.10298548373E+01  0.10297586493E+01 0.  0.
     999903    2    3    3    0    0 -0.10882865965E+00  0.74929231574E-01 -0.15551722082E-01  0.14051796599E+00  0.45225831116E-01 0.  0.
         14    1    1    2    0    0 -0.32904524456E-02 -0.13450620792E-01  0.25226824564E-02  0.14075162655E-01  0.00000000000E+00 0.  1.
     999901    1    3    3    0    0  0.11211911210E+00 -0.61478610781E-01  0.13029039625E-01  0.88933687136E+00  0.88000000000E+00 0.  1.
        -11    1    4    4    0    0 -0.57175592839E-01  0.65805459914E-01 -0.84605618907E-02  0.87585667774E-01  0.51100000000E-03 0.  1.
         11    1    4    4    0    0 -0.51653066812E-01  0.91237716601E-02 -0.70911601909E-02  0.52932298214E-01  0.51100000000E-03 0. -1.
</event>
<event>
 8    1  0.2025822E+004  0.1043930E+01  0.7957747E-01            NaN
         13   -1    0    0    0    0  0.00000000000E+00  0.00000000000E+00  0.74505805969E-08  0.10566000000E+00  0.10566000000E+00 0. -1.
     999900   -1    0    0    0    0 -0.00000000000E+00 -0.00000000000E+00 -0.74505805969E-08  0.93827000000E+00  0.93827000000E+00 0. -1.
     999902    2    1    2    0    0 -0.20106212214E-03 -0.27185895809E-03  0.14117228716E-01  0.10298087224E+01  0.10297118987E+01 0.  0.
     999903    2    3    3    0    0  0.12253211035E-01 -0.89320966168E-01 -0.95177822577E-01  0.13850054866E+00  0.44667750003E-01 0.  0.
         14    1    1    2    0    0  0.20106212214E-03  0.27185895809E-03 -0.14117228716E-01  0.14121277559E-01  0.00000000000E+00 0.  1.
     999901    1    3    3    0    0 -0.12454273157E-01  0.89049107210E-01  0.10929505129E+00  0.89130817378E+00  0.88000000000E+00 0.  1.
        -11    1    4    4    0    0 -0.99502447817E-02 -0.50420632192E-01 -0.30303308284E-01  0.59664052292E-01  0.51100000000E-03 0.  1.
         11    1    4    4    0    0  0.22203455816E-01 -0.38900333975E-01 -0.64874514293E-01  0.78836496367E-01  0.51100000000E-03 0. -1.
</event>
<event>
 8    1  0.2025822E+004  0.1043930E+01  0.7957747E-01            NaN
         13   -1    0    0    0    0  0.00000000000E+00  0.00000000000E+00  0.74505805969E-08  0.10566000000E+00  0.10566000000E+00 0.  1.
     999900   -1    0    0    0    0 -0.00000000000E+00 -0.00000000000E+00 -0.74505805969E-08  0.93827000000E+00  0.93827000000E+00 0.  1.
     999902    2    1    2    0    0  0.21580856136E-02 -0.47474407932E-02  0.12714480701E-01  0.10301876004E+01  0.10300959365E+01 0.  0.
     999903    2    3    3    0    0  0.87184078996E-02 -0.57055764325E-02  0.13418314650E+00  0.14181909992E+00  0.44709910088E-01 0.  0.
         14    1    1    2    0    0 -0.21580856136E-02  0.47474407932E-02 -0.12714480701E-01  0.13742399612E-01  0.00000000000E+00 0. -1.
     999901    1    3    3    0    0 -0.65603222861E-02  0.95813563934E-03 -0.12146866579E+00  0.88836850047E+00  0.88000000000E+00 0.  1.
        -11    1    4    4    0    0  0.68783564581E-02  0.61011923068E-02  0.24294195478E-02  0.95236303723E-02  0.51100000000E-03 0. -1.
         11    1    4    4    0    0  0.18400514416E-02 -0.11806768739E-01  0.13175372695E+00  0.13229546955E+00  0.51100000000E-03 0.  1.
</event>
<event>
 7    1  0.2025822E+004  0.1043930E+01  0.7957747E-01            NaN
         13   -1    0    0    0    0  0.00000000000E+00  0.00000000000E+00  0.74505805969E-08  0.10566000000E+00  0.10566000000E+00 0.  1.
     999900   -1    0    0    0    0 -0.00000000000E+00 -0.00000000000E+00 -0.74505805969E-08  0.93827000000E+00  0.93827000000E+00 0.  1.
     999903    2    1    2    0    0 -0.14152793820E-01 -0.90696712106E-01  0.33839495071E-01  0.10764044014E+00  0.44890508660E-01 0.  0.
         14    1    1    2    0    0  0.47106269925E-01  0.22833012242E-01 -0.50703199370E-02  0.52593300510E-01  0.00000000000E+00 0. -1.
     999901    1    1    2    0    0 -0.32953476105E-01  0.67863699863E-01 -0.28769175134E-01  0.88369625935E+00  0.88000000000E+00 0.  1.
        -11    1    3    3    0    0 -0.17457300920E-01 -0.49904467856E-01  0.39936057321E-01  0.66259814841E-01  0.51100000000E-03 0.  1.
         11    1    3    3    0    0  0.33045071001E-02 -0.40792244249E-01 -0.60965622499E-02  0.41380625301E-01  0.51100000000E-03 0. -1.
</event>
<event>
 8    1  0.2025822E+004  0.1043930E+01  0.7957747E-01            NaN
         13   -1    0    0    0    0  0.00000000000E+00  0.00000000000E+00  0.74505805969E-08  0.10566000000E+00  0.10566000000E+00 0.  1.
     999900   -1    0    0    0    0 -0.00000000000E+00 -0.00000000000E+00 -0.74505805969E-08  0.93827000000E+00  0.93827000000E+00 0. -1.
     999902    2    1    2    0    0 -0.12420565981E-01 -0.12804955207E-02  0.72231374796E-02  0.10295048885E+01  0.10294038233E+01 0.  0.
     999903    2    3    3    0    0 -0.53629797845E-01 -0.11756532206E+00  0.28264279919E-01  0.14064995577E+00  0.47809835522E-01 0.  0.
         14    1    1    2    0    0  0.12420565981E-01  0.12804955207E-02 -0.72231374796E-02  0.14425111546E-01  0.00000000000E+00 0. -1.
     999901    1    3    3    0    0  0.41209231864E-01  0.11628482654E+00 -0.21041142439E-01  0.88885493268E+00  0.88000000000E+00 0.  1.
        -11    1    4    4    0    0  0.29181840771E-02 -0.46501530701E-01  0.14462910074E-01  0.48788779906E-01  0.51100000000E-03 0. -1.
         11    1    4    4    0    0 -0.56547981922E-01 -0.71063791356E-01  0.13801369845E-01  0.91861175869E-01  0.51100000000E-03 0.  1.
</event>
<event>
 8    1  0.2025822E+004  0.1043930E+01  0.7957747E-01            NaN
         13   -1    0    0    0    0  0.00000000000E+00  0.00000000000E+00  0.74505805969E-08  0.10566000000E+00  0.10566000000E+00 0. -1.
     999900   -1    0    0    0    0 -0.00000000000E+00 -0.00000000000E+00 -0.74505805969E-08  0.93827000000E+00  0.93827000000E+00 0.  1.
     999902    2    1    2    0    0 -0.67562274171E-02 -0.60576715391E-02  0.10786271185E-01  0.10298344106E+01  0.10297379413E+01 0.  0.
     999903    2    3    3    0    0 -0.18724536316E-01  0.13014505919E+00  0.11120855448E-01  0.13927585769E+00  0.44561714714E-01 0.  0.
         14    1    1    2    0    0  0.67562274171E-02  0.60576715391E-02 -0.10786271185E-01  0.14095589362E-01  0.00000000000E+00 0.  1.
     999901    1    3    3    0    0  0.11968308898E-01 -0.13620273073E+00 -0.33458426321E-03  0.89055855294E+00  0.88000000000E+00 0.  1.
        -11    1    4    4    0    0 -0.20210964964E-01  0.94576020262E-01  0.26822686126E-01  0.10036346111E+00  0.51100000000E-03 0. -1.
         11    1    4    4    0    0  0.14864286488E-02  0.35569038929E-01 -0.15701830678E-01  0.38912396586E-01  0.51100000000E-03 0.  1.
</event>
<event>
 8    1  0.2025822E+004  0.1043930E+01  0.7957747E-01            NaN
         13   -1    0    0    0    0  0.00000000000E+00  0.00000000000E+00  0.74505805969E-08  0.10566000000E+00  0.10566000000E+00 0.  1.
     999900   -1    0    0    0    0 -0.00000000000E+00 -0.00000000000E+00 -0.74505805969E-08  0.93827000000E+00  0.93827000000E+00 0.  1.
     999902    2    1    2    0    0  0.64086339138E-02  0.11050528337E-01  0.40947697948E-02  0.10305153847E+01  0.10304280694E+01 0.  0.
     999903    2    3    3    0    0  0.78951312892E-01  0.59942014683E-01  0.90883482740E-01  0.14192937396E+00  0.45362813247E-01 0.  0.
         14    1    1    2    0    0 -0.64086339138E-02 -0.11050528337E-01 -0.40947697948E-02  0.13414615345E-01  0.00000000000E+00 0. -1.
     999901    1    3    3    0    0 -0.72542678978E-01 -0.48891486345E-01 -0.86788712945E-01  0.88858601070E+00  0.88000000000E+00 0.  1.
        -11    1    4    4    0    0  0.74996411499E-01  0.47424091277E-01  0.56686092454E-01  0.10529520583E+00  0.51100000000E-03 0.  1.
         11    1    4    4    0    0  0.39549013935E-02  0.12517923406E-01  0.34197390286E-01  0.36634168134E-01  0.51100000000E-03 0. -1.
</event>
<event>
 8    1  0.2025822E+004  0.1043930E+01  0.7957747E-01            NaN
         13   -1    0    0    0    0  0.00000000000E+00  0.00000000000E+00  0.74505805969E-08  0.10566000000E+00  0.10566000000E+00 0.  1.
     999900   -1    0    0    0    0 -0.00000000000E+00 -0.00000000000E+00 -0.74505805969E-08  0.93827000000E+00  0.93827000000E+00 0.  1.
     999902    2    1    2    0    0  0.11607340940E-02  0.37634894509E-02  0.13999398644E-01  0.10293871558E+01  0.10292844224E+01 0.  0.
     999903    2    3    3    0    0  0.74172937105E-01  0.28784279431E-02  0.11118783631E+00  0.14103071966E+00  0.44911234655E-01 0.  0.
         14    1    1    2    0    0 -0.11607340940E-02 -0.37634894509E-02 -0.13999398644E-01  0.14542844249E-01  0.00000000000E+00 0. -1.
     999901    1    3    3    0    0 -0.73012203011E-01  0.88506150772E-03 -0.97188437670E-01  0.88835643609E+00  0.88000000000E+00 0.  1.
        -11    1    4    4    0    0  0.16906480507E-01  0.16465460611E-01  0.54141937856E-01  0.59063957132E-01  0.51100000000E-03 0.  1.
         11    1    4    4    0    0  0.57266456597E-01 -0.13587032667E-01  0.57045898458E-01  0.81966762531E-01  0.51100000000E-03 0. -1.
</event>
<event>
 8    1  0.2025822E+004  0.1043930E+01  0.7957747E-01            NaN
         13   -1    0    0    0    0  0.00000000000E+00  0.00000000000E+00  0.74505805969E-08  0.10566000000E+00  0.10566000000E+00 0. -1.
     999900   -1    0    0    0    0 -0.00000000000E+00 -0.00000000000E+00 -0.74505805969E-08  0.93827000000E+00  0.93827000000E+00 0.  1.
     999902    2    1    2    0    0 -0.11329070386E-01 -0.48677965545E-02 -0.33719077105E-02  0.10311466890E+01  0.10310674474E+01 0.  0.
     999903    2    3    3    0    0  0.10277220050E+00 -0.33229731079E-02  0.83058293971E-01  0.13957971659E+00  0.44840269167E-01 0.  0.
         14    1    1    2    0    0  0.11329070386E-01  0.48677965545E-02  0.33719077105E-02  0.12783311023E-01  0.00000000000E+00 0. -1.
     999901    1    3    3    0    0 -0.11410127089E+00 -0.15448234467E-02 -0.86430201681E-01  0.89156697239E+00  0.88000000000E+00 0.  1.
        -11    1    4    4    0    0  0.72832942407E-01 -0.18894969248E-01  0.41123339020E-01  0.85749912512E-01  0.51100000000E-03 0.  1.
         11    1    4    4    0    0  0.29939258092E-01  0.15571996140E-01  0.41934954951E-01  0.53829804073E-01  0.51100000000E-03 0. -1.
</event>
<event>
 8    1  0.2025822E+004  0.1043930E+01  0.7957747E-01            NaN
         13   -1    0    0    0    0  0.00000000000E+00  0.00000000000E+00  0.74505805969E-08  0.10566000000E+00  0.10566000000E+00 0.  1.
     999900   -1    0    0    0    0 -0.00000000000E+00 -0.00000000000E+00 -0.74505805969E-08  0.93827000000E+00  0.93827000000E+00 0.  1.
     999902    2    1    2    0    0 -0.67023262404E-02 -0.16791095777E-02 -0.96647835390E-02  0.10320494012E+01  0.10319810163E+01 0.  0.
     999903    2    3    3    0    0 -0.25482729664E-01  0.13017970848E+00 -0.25082484394E-01  0.14189370871E+00  0.43687155281E-01 0.  0.
         14    1    1    2    0    0  0.67023262404E-02  0.16791095777E-02  0.96647835390E-02  0.11880598759E-01  0.00000000000E+00 0.  1.
     999901    1    3    3    0    0  0.18780403423E-01 -0.13185881806E+00  0.15417700855E-01  0.89015569253E+00  0.88000000000E+00 0. -1.
        -11    1    4    4    0    0 -0.18769694382E-01  0.81036895009E-01 -0.36746843059E-01  0.90938833156E-01  0.51100000000E-03 0.  1.
         11    1    4    4    0    0 -0.67130352822E-02  0.49142813469E-01  0.11664358665E-01  0.50954875551E-01  0.51100000000E-03 0. -1.
</event>
<event>
 8    1  0.2025822E+004  0.1043930E+01  0.7957747E-01            NaN
         13   -1    0    0    0    0  0.00000000000E+00  0.00000000000E+00  0.74505805969E-08  0.10566000000E+00  0.10566000000E+00 0.  1.
     999900   -1    0    0    0    0 -0.00000000000E+00 -0.00000000000E+00 -0.74505805969E-08  0.93827000000E+00  0.93827000000E+00 0. -1.
     999902    2    1    2    0    0 -0.71840503594E-02  0.10630445776E-01 -0.38984346006E-02  0.10305204978E+01  0.10304332495E+01 0.  0.
     999903    2    3    3    0    0 -0.12313972085E-01 -0.77764397546E-01 -0.10676605584E+00  0.14011513398E+00  0.45103488275E-01 0.  0.
         14    1    1    2    0    0  0.71840503594E-02 -0.10630445776E-01  0.38984346006E-02  0.13409502202E-01  0.00000000000E+00 0.  1.
     999901    1    3    3    0    0  0.51299217259E-02  0.88394843322E-01  0.10286762124E+00  0.89040536382E+00  0.88000000000E+00 0.  1.
        -11    1    4    4    0    0 -0.73886050535E-02 -0.50728916307E-01 -0.31943704551E-01  0.60404269848E-01  0.51100000000E-03 0.  1.
         11    1    4    4    0    0 -0.49253670318E-02 -0.27035481238E-01 -0.74822351293E-01  0.79710864129E-01  0.51100000000E-03 0. -1.
</event>
<event>
 8    1  0.2025822E+004  0.1043930E+01  0.7957747E-01            NaN
         13   -1    0    0    0    0  0.00000000000E+00  0.00000000000E+00  0.74505805969E-08  0.10566000000E+00  0.10566000000E+00 0. -1.
     999900   -1    0    0    0    0 -0.00000000000E+00 -0.00000000000E+00 -0.74505805969E-08  0.93827000000E+00  0.93827000000E+00 0. -1.
     999902    2    1    2    0    0  0.47638698247E-02 -0.14458294565E-01 -0.12407739100E-02  0.10286566160E+01  0.10285432210E+01 0.  0.
     999903    2    3    3    0    0 -0.42026527349E-01  0.11941928275E+00  0.25742111499E-01  0.13689396653E+00  0.45278114734E-01 0.  0.
         14    1    1    2    0    0 -0.47638698247E-02  0.14458294565E-01  0.12407739100E-02  0.15273383951E-01  0.00000000000E+00 0.  1.
     999901    1    3    3    0    0  0.46790397174E-01 -0.13387757731E+00 -0.26982885409E-01  0.89176264952E+00  0.88000000000E+00 0.  1.
        -11    1    4    4    0    0 -0.21606204386E-01  0.25754186181E-01  0.23466221213E-01  0.41000376009E-01  0.51100000000E-03 0.  1.
         11    1    4    4    0    0 -0.20420322963E-01  0.93665096568E-01  0.22758902859E-02  0.95893590519E-01  0.51100000000E-03 0. -1.
</event>
<event>
 8    1  0.2255789E+004  0.1043930E+01  0.7957747E-01            NaN
         13   -1    0    0    0    0  0.00000000000E+00  0.00000000000E+00  0.74505805969E-08  0.10566000000E+00  0.10566000000E+00 0.  1.
     999900   -1    0    0    0    0 -0.00000000000E+00 -0.00000000000E+00 -0.74505805969E-08  0.93827000000E+00  0.93827000000E+00 0.  1.
     999902    2    1    2    0    0 -0.90478372925E-02  0.11356403327E-01  0.22835404919E-02  0.10292315030E+01  0.10291265428E+01 0.  0.
     999903    2    3    3    0    0  0.67177132818E-01  0.37799182518E-01 -0.10632048981E+00  0.13889207222E+00  0.45226273347E-01 0.  0.
         14    1    1    2    0    0  0.90478372925E-02 -0.11356403327E-01 -0.22835404919E-02  0.14698496977E-01  0.00000000000E+00 0.  1.
     999901    1    3    3    0    0 -0.76224970111E-01 -0.26442779191E-01  0.10860403030E+00  0.89033943080E+00  0.88000000000E+00 0. -1.
        -11    1    4    4    0    0  0.41348798968E-01  0.46120456426E-01 -0.68691426219E-01  0.92496447683E-01  0.51100000000E-03 0. -1.
         11    1    4    4    0    0  0.25828333850E-01 -0.83212739075E-02 -0.37629063588E-01  0.46395624540E-01  0.51100000000E-03 0.  1.
</event>
<event>
 8    1  0.2025822E+004  0.1043930E+01  0.7957747E-01            NaN
         13   -1    0    0    0    0  0.00000000000E+00  0.00000000000E+00  0.74505805969E-08  0.10566000000E+00  0.10566000000E+00 0. -1.
     999900   -1    0    0    0    0 -0.00000000000E+00 -0.00000000000E+00 -0.74505805969E-08  0.93827000000E+00  0.93827000000E+00 0. -1.
     999902    2    1    2    0    0  0.11737817964E-01  0.12165104749E-01  0.51603514799E-02  0.10262552901E+01  0.10261030772E+01 0.  0.
     999903    2    3    3    0    0  0.53722728284E-01 -0.11396164329E+00 -0.23149002408E-01  0.13582162673E+00  0.45146985497E-01 0.  0.
         14    1    1    2    0    0 -0.11737817964E-01 -0.12165104749E-01 -0.51603514799E-02  0.17674709941E-01  0.00000000000E+00 0.  1.
     999901    1    3    3    0    0 -0.41984910320E-01  0.12612674804E+00  0.28309353888E-01  0.89043366333E+00  0.88000000000E+00 0.  1.
        -11    1    4    4    0    0  0.52514326864E-01 -0.66074436055E-01 -0.48555742786E-02  0.84542435194E-01  0.51100000000E-03 0.  1.
         11    1    4    4    0    0  0.12084014193E-02 -0.47887207239E-01 -0.18293428130E-01  0.51279191539E-01  0.51100000000E-03 0. -1.
</event>
<event>
 8    1  0.2025822E+004  0.1043930E+01  0.7957747E-01            NaN
         13   -1    0    0    0    0  0.00000000000E+00  0.00000000000E+00  0.74505805969E-08  0.10566000000E+00  0.10566000000E+00 0.  1.
     999900   -1    0    0    0    0 -0.00000000000E+00 -0.00000000000E+00 -0.74505805969E-08  0.93827000000E+00  0.93827000000E+00 0.  1.
     999902    2    1    2    0    0 -0.10833295296E-02  0.13061504520E-01 -0.53984584231E-02  0.10297553798E+01  0.10296578181E+01 0.  0.
     999903    2    3    3    0    0 -0.47079958726E-01  0.50695846433E-01  0.11288034082E+00  0.13985543719E+00  0.45066402200E-01 0.  0.
         14    1    1    2    0    0  0.10833295296E-02 -0.13061504520E-01  0.53984584231E-02  0.14174620155E-01  0.00000000000E+00 0.  1.
     999901    1    3    3    0    0  0.45996629196E-01 -0.37634341913E-01 -0.11827879925E+00  0.88989994266E+00  0.88000000000E+00 0.  1.
        -11    1    4    4    0    0 -0.18522034680E-01  0.50059258509E-01  0.65109021042E-01  0.84192878993E-01  0.51100000000E-03 0.  1.
         11    1    4    4    0    0 -0.28557924046E-01  0.63658792364E-03  0.47771319783E-01  0.55662558195E-01  0.51100000000E-03 0. -1.
</event>
<event>
 8    1  0.2025822E+004  0.1043930E+01  0.7957747E-01            NaN
         13   -1    0    0    0    0  0.00000000000E+00  0.00000000000E+00  0.74505805969E-08  0.10566000000E+00  0.10566000000E+00 0. -1.
     999900   -1    0    0    0    0 -0.00000000000E+00 -0.00000000000E+00 -0.74505805969E-08  0.93827000000E+00  0.93827000000E+00 0.  1.
     999902    2    1    2    0    0 -0.46505462068E-02 -0.56180431740E-04  0.12793425182E-01  0.10303174152E+01  0.10302274864E+01 0.  0.
     999903    2    3    3    0    0  0.11429451701E+00 -0.66647844353E-01 -0.35749316739E-02  0.13967141323E+00  0.44611117022E-01 0.  0.
         14    1    1    2    0    0  0.46505462068E-02  0.56180431740E-04 -0.12793425182E-01  0.13612584771E-01  0.00000000000E+00 0.  1.
     999901    1    3    3    0    0 -0.11894506322E+00  0.66591663922E-01  0.16368356856E-01  0.89064600200E+00  0.88000000000E+00 0.  1.
        -11    1    4    4    0    0  0.70212128143E-01 -0.51109820655E-01  0.17177372642E-01  0.88528413279E-01  0.51100000000E-03 0.  1.
         11    1    4    4    0    0  0.44082388867E-01 -0.15538023698E-01 -0.20752304316E-01  0.51142999952E-01  0.51100000000E-03 0. -1.
</event>
<event>
 8    1  0.2025822E+004  0.1043930E+01  0.7957747E-01            NaN
         13   -1    0    0    0    0  0.00000000000E+00  0.00000000000E+00  0.74505805969E-08  0.10566000000E+00  0.10566000000E+00 0.  1.
     999900   -1    0    0    0    0 -0.00000000000E+00 -0.00000000000E+00 -0.74505805969E-08  0.93827000000E+00  0.93827000000E+00 0. -1.
     999902    2    1    2    0    0  0.13211600358E-02 -0.38865643598E-02 -0.13654352403E-01  0.10296719431E+01  0.10295732214E+01 0.  0.
     999903    2    3    3    0    0 -0.49848489142E-01 -0.11235631557E+00 -0.51768111273E-01  0.14071936928E+00  0.44868586209E-01 0.  0.
         14    1    1    2    0    0 -0.13211600358E-02  0.38865643598E-02  0.13654352403E-01  0.14258056877E-01  0.00000000000E+00 0.  1.
     999901    1    3    3    0    0  0.51169649178E-01  0.10846975121E+00  0.38113758870E-01  0.88895257384E+00  0.88000000000E+00 0.  1.
        -11    1    4    4    0    0 -0.45390965573E-01 -0.87918124753E-01 -0.20961215764E-01  0.10114133726E+00  0.51100000000E-03 0.  1.
         11    1    4    4    0    0 -0.44575235690E-02 -0.24438190815E-01 -0.30806895509E-01  0.39578032020E-01  0.51100000000E-03 0. -1.
</event>
<event>
 8    1  0.2025822E+004  0.1043930E+01  0.7957747E-01            NaN
         13   -1    0    0    0    0  0.00000000000E+00  0.00000000000E+00  0.74505805969E-08  0.10566000000E+00  0.10566000000E+00 0.  1.
     999900   -1    0    0    0    0 -0.00000000000E+00 -0.00000000000E+00 -0.74505805969E-08  0.93827000000E+00  0.93827000000E+00 0. -1.
     999902    2    1    2    0    0 -0.11102139194E-02  0.11524253138E-01 -0.54010305504E-02  0.10311545502E+01  0.10310754067E+01 0.  0.
     999903    2    3    3    0    0 -0.69459787480E-01 -0.48821877637E-01 -0.10393886732E+00  0.14097309404E+00  0.43149592010E-01 0.  0.
         14    1    1    2    0    0  0.11102139194E-02 -0.11524253138E-01  0.54010305504E-02  0.12775449751E-01  0.00000000000E+00 0.  1.
     999901    1    3    3    0    0  0.68349573561E-01  0.60346130775E-01  0.98537836768E-01  0.89018145621E+00  0.88000000000E+00 0.  1.
        -11    1    4    4    0    0 -0.29598956720E-01  0.30542670369E-02 -0.30342521942E-01  0.42501253451E-01  0.51100000000E-03 0. -1.
         11    1    4    4    0    0 -0.39860830760E-01 -0.51876144674E-01 -0.73596345376E-01  0.98471840588E-01  0.51100000000E-03 0.  1.
</event>
<event>
 8    1  0.2025822E+004  0.1043930E+01  0.7957747E-01            NaN
         13   -1    0    0    0    0  0.00000000000E+00  0.00000000000E+00  0.74505805969E-08  0.10566000000E+00  0.10566000000E+00 0.  1.
     999900   -1    0    0    0    0 -0.00000000000E+00 -0.00000000000E+00 -0.74505805969E-08  0.93827000000E+00  0.93827000000E+00 0. -1.
     999902    2    1    2    0    0 -0.85218254288E-02  0.71174733670E-02  0.12559427174E-01  0.10271663743E+01  0.10270295718E+01 0.  0.
     999903    2    3    3    0    0 -0.10634353855E+00  0.74708482674E-01 -0.28311129743E-01  0.13822991171E+00  0.37625561115E-01 0.  0.
         14    1    1    2    0    0  0.85218254288E-02 -0.71174733670E-02 -0.12559427174E-01  0.16763625703E-01  0.00000000000E+00 0. -1.
     999901    1    3    3    0    0  0.97821713120E-01 -0.67591009307E-01  0.40870556917E-01  0.88893646259E+00  0.88000000000E+00 0. -1.
        -11    1    4    4    0    0 -0.84423664336E-01  0.67171024962E-01 -0.93730302107E-02  0.10829319697E+00  0.51100000000E-03 0. -1.
         11    1    4    4    0    0 -0.21919874212E-01  0.75374577123E-02 -0.18938099533E-01  0.29936714735E-01  0.51100000000E-03 0.  1.
</event>
<event>
 8    1  0.2025822E+004  0.1043930E+01  0.7957747E-01            NaN
         13   -1    0    0    0    0  0.00000000000E+00  0.00000000000E+00  0.74505805969E-08  0.10566000000E+00  0.10566000000E+00 0. -1.
     999900   -1    0    0    0    0 -0.00000000000E+00 -0.00000000000E+00 -0.74505805969E-08  0.93827000000E+00  0.93827000000E+00 0. -1.
     999902    2    1    2    0    0 -0.10242428708E-01 -0.27164214587E-02  0.87274895145E-02  0.10302020954E+01  0.10301106261E+01 0.  0.
     999903    2    3    3    0    0 -0.47952724864E-01  0.15429318721E-02  0.12522123183E+00  0.14171405355E+00  0.45833084248E-01 0.  0.
         14    1    1    2    0    0  0.10242428708E-01  0.27164214587E-02 -0.87274895145E-02  0.13727904596E-01  0.00000000000E+00 0.  1.
     999901    1    3    3    0    0  0.37710296156E-01 -0.42593533308E-02 -0.11649374231E+00  0.88848804186E+00  0.88000000000E+00 0. -1.
        -11    1    4    4    0    0 -0.23389178426E-01  0.18355515294E-02  0.12984691369E-01  0.26819512445E-01  0.51100000000E-03 0.  1.
         11    1    4    4    0    0 -0.24563546439E-01 -0.29261965734E-03  0.11223654046E+00  0.11489454110E+00  0.51100000000E-03 0. -1.
</event>
<event>
 8    1  0.2025822E+004  0.1043930E+01  0.7957747E-01            NaN
         13   -1    0    0    0    0  0.00000000000E+00  0.00000000000E+00  0.74505805969E-08  0.10566000000E+00  0.10566000000E+00 0. -1.
     999900   -1    0    0    0    0 -0.00000000000E+00 -0.00000000000E+00 -0.74505805969E-08  0.93827000000E+00  0.93827000000E+00 0.  1.
     999902    2    1    2    0    0  0.87686228209E-02  0.34949570732E-02  0.10795944502E-01  0.10295892926E+01  0.10294894150E+01 0.  0.
     999903    2    3    3    0    0 -0.92424924908E-01  0.83594116371E-01 -0.40811611500E-01  0.13868001031E+00  0.45124434527E-01 0.  0.
         14    1    1    2    0    0 -0.87686228209E-02 -0.34949570732E-02 -0.10795944502E-01  0.14340707403E-01  0.00000000000E+00 0.  1.
     999901    1    3    3    0    0  0.10119354773E+00 -0.80099159298E-01  0.51607556002E-01  0.89090928228E+00  0.88000000000E+00 0. -1.
        -11    1    4    4    0    0 -0.12314950737E-01  0.34735253017E-01 -0.13420926406E-02  0.36881677666E-01  0.51100000000E-03 0.  1.
         11    1    4    4    0    0 -0.80109974171E-01  0.48858863355E-01 -0.39469518859E-01  0.10179833265E+00  0.51100000000E-03 0. -1.
</event>
<event>
 8    1  0.2160162E+004  0.1043930E+01  0.7957747E-01            NaN
         13   -1    0    0    0    0  0.00000000000E+00  0.00000000000E+00  0.74505805969E-08  0.10566000000E+00  0.10566000000E+00 0.  1.
     999900   -1    0    0    0    0 -0.00000000000E+00 -0.00000000000E+00 -0.74505805969E-08  0.93827000000E+00  0.93827000000E+00 0.  1.
     999902    2    1    2    0    0  0.10851257362E-01  0.17475688483E-02  0.86597743795E-02  0.10299373064E+01  0.10298422498E+01 0.  0.
     999903    2    3    3    0    0 -0.11149121146E-02  0.49467002826E-01  0.12470356128E+00  0.14095671373E+00  0.43238750579E-01 0.  0.
         14    1    1    2    0    0 -0.10851257362E-01 -0.17475688483E-02 -0.86597743795E-02  0.13992693647E-01  0.00000000000E+00 0.  1.
     999901    1    3    3    0    0  0.11966169476E-01 -0.47719433977E-01 -0.11604378690E+00  0.88898059263E+00  0.88000000000E+00 0.  1.
        -11    1    4    4    0    0  0.79549832081E-02  0.11645404923E-01  0.81951054482E-01  0.83157282696E-01  0.51100000000E-03 0. -1.
         11    1    4    4    0    0 -0.90698953227E-02  0.37821597903E-01  0.42752506794E-01  0.57799431029E-01  0.51100000000E-03 0.  1.
</event>
<event>
 8    1  0.2025822E+004  0.1043930E+01  0.7957747E-01            NaN
         13   -1    0    0    0    0  0.00000000000E+00  0.00000000000E+00  0.74505805969E-08  0.10566000000E+00  0.10566000000E+00 0. -1.
     999900   -1    0    0    0    0 -0.00000000000E+00 -0.00000000000E+00 -0.74505805969E-08  0.93827000000E+00  0.93827000000E+00 0. -1.
     999902    2    1    2    0    0 -0.25469646781E-02  0.60242583630E-02  0.11869994733E-01  0.10303773068E+01  0.10302881727E+01 0.  0.
     999903    2    3    3    0    0  0.20771625392E-01 -0.19502204149E-01 -0.12794185413E+00  0.13866955759E+00  0.45258499484E-01 0.  0.
         14    1    1    2    0    0  0.25469646781E-02 -0.60242583630E-02 -0.11869994733E-01  0.13552693196E-01  0.00000000000E+00 0.  1.
     999901    1    3    3    0    0 -0.23318590070E-01  0.25526462512E-01  0.13981184886E+00  0.89170774922E+00  0.88000000000E+00 0.  1.
        -11    1    4    4    0    0 -0.32963278457E-02 -0.27009617371E-01 -0.52661416860E-01  0.59277914559E-01  0.51100000000E-03 0. -1.
         11    1    4    4    0    0  0.24067953238E-01  0.75074132221E-02 -0.75280437269E-01  0.79391643028E-01  0.51100000000E-03 0.  1.
</event>
<event>
 8    1  0.2025822E+004  0.1043930E+01  0.7957747E-01            NaN
         13   -1    0    0    0    0  0.00000000000E+00  0.00000000000E+00  0.74505805969E-08  0.10566000000E+00  0.10566000000E+00 0. -1.
     999900   -1    0    0    0    0 -0.00000000000E+00 -0.00000000000E+00 -0.74505805969E-08  0.93827000000E+00  0.93827000000E+00 0.  1.
     999902    2    1    2    0    0  0.13678616984E-01 -0.11365283718E-02  0.28326109121E-02  0.10299150100E+01  0.10298196483E+01 0.  0.
     999903    2    3    3    0    0 -0.11855072171E+00  0.44948153643E-01  0.30809468418E-01  0.13840443775E+00  0.46173097254E-01 0.  0.
         14    1    1    2    0    0 -0.13678616984E-01  0.11365283718E-02 -0.28326109121E-02  0.14014989972E-01  0.00000000000E+00 0. -1.
     999901    1    3    3    0    0  0.13222933870E+00 -0.46084682014E-01 -0.27976857506E-01  0.89151057228E+00  0.88000000000E+00 0. -1.
        -11    1    4    4    0    0 -0.88222789599E-01  0.31084835726E-01  0.80541725290E-03  0.93543772827E-01  0.51100000000E-03 0. -1.
         11    1    4    4    0    0 -0.30327932114E-01  0.13863317917E-01  0.30004051165E-01  0.44860664922E-01  0.51100000000E-03 0.  1.
</event>
<event>
 8    1  0.2025822E+004  0.1043930E+01  0.7957747E-01            NaN
         13   -1    0    0    0    0  0.00000000000E+00  0.00000000000E+00  0.74505805969E-08  0.10566000000E+00  0.10566000000E+00 0.  1.
     999900   -1    0    0    0    0 -0.00000000000E+00 -0.00000000000E+00 -0.74505805969E-08  0.93827000000E+00  0.93827000000E+00 0. -1.
     999902    2    1    2    0    0  0.27260868983E-02  0.48595062096E-02  0.11577194585E-01  0.10310817400E+01  0.10310016861E+01 0.  0.
     999903    2    3    3    0    0 -0.27834231741E-01 -0.54590544619E-01 -0.11679928110E+00  0.13925846092E+00  0.44676334384E-01 0.  0.
         14    1    1    2    0    0 -0.27260868983E-02 -0.48595062096E-02 -0.11577194585E-01  0.12848259992E-01  0.00000000000E+00 0. -1.
     999901    1    3    3    0    0  0.30560318639E-01  0.59450050829E-01  0.12837647568E+00  0.89182327909E+00  0.88000000000E+00 0.  1.
        -11    1    4    4    0    0 -0.15239074958E-01 -0.86317335050E-02 -0.57918226536E-02  0.18453795261E-01  0.51100000000E-03 0. -1.
         11    1    4    4    0    0 -0.12595156783E-01 -0.45958811114E-01 -0.11100745844E+00  0.12080466566E+00  0.51100000000E-03 0.  1.
</event>
<event>
 8    1  0.2025822E+004  0.1043930E+01  0.7957747E-01            NaN
         13   -1    0    0    0    0  0.00000000000E+00  0.00000000000E+00  0.74505805969E-08  0.10566000000E+00  0.10566000000E+00 0.  1.
     999900   -1    0    0    0    0 -0.00000000000E+00 -0.00000000000E+00 -0.74505805969E-08  0.93827000000E+00  0.93827000000E+00 0.  1.
     999902    2    1    2    0    0 -0.18019529474E-02 -0.12803286627E-01 -0.99992612284E-05  0.10310005266E+01  0.10309194510E+01 0.  0.
     999903    2    3    3    0    0  0.11026620705E+00 -0.66934252720E-01 -0.37908808870E-01  0.14143560273E+00  0.43910378323E-01 0.  0.
         14    1    1    2    0    0  0.18019529474E-02  0.12803286627E-01  0.99992612284E-05  0.12929473418E-01  0.00000000000E+00 0.  1.
     999901    1    3    3    0    0 -0.11206816000E+00  0.54130966092E-01  0.37898809609E-01  0.88956492385E+00  0.88000000000E+00 0. -1.
        -11    1    4    4    0    0  0.40733908244E-01 -0.71084212737E-02  0.20008796265E-02  0.41401033491E-01  0.51100000000E-03 0. -1.
         11    1    4    4    0    0  0.69532298811E-01 -0.59825831446E-01 -0.39909688497E-01  0.10003456924E+00  0.51100000000E-03 0.  1.
</event>
<event>
 8    1  0.2025822E+004  0.1043930E+01  0.7957747E-01            NaN
         13   -1    0    0    0    0  0.00000000000E+00  0.00000000000E+00  0.74505805969E-08  0.10566000000E+00  0.10566000000E+00 0. -1.
     999900   -1    0    0    0    0 -0.00000000000E+00 -0.00000000000E+00 -0.74505805969E-08  0.93827000000E+00  0.93827000000E+00 0. -1.
     999902    2    1    2    0    0 -0.12683294083E-01  0.27729782104E-02 -0.61815244298E-02  0.10295506189E+01  0.10294501980E+01 0.  0.
     999903    2    3    3    0    0  0.77470898021E-01  0.68526000060E-01  0.80514814256E-01  0.13827765656E+00  0.44051359386E-01 0.  0.
         14    1    1    2    0    0  0.12683294083E-01 -0.27729782104E-02  0.61815244298E-02  0.14379381114E-01  0.00000000000E+00 0. -1.
     999901    1    3    3    0    0 -0.90154192104E-01 -0.65753021850E-01 -0.86696338686E-01  0.89127296233E+00  0.88000000000E+00 0.  1.
        -11    1    4    4    0    0  0.59559442987E-01  0.47028136016E-01  0.80024857179E-01  0.11028695169E+00  0.51100000000E-03 0.  1.
         11    1    4    4    0    0  0.17911455034E-01  0.21497864045E-01  0.48995707754E-03  0.27990704865E-01  0.51100000000E-03 0. -1.
</event>
<event>
 8    1  0.2025822E+004  0.1043930E+01  0.7957747E-01            NaN
         13   -1    0    0    0    0  0.00000000000E+00  0.00000000000E+00  0.74505805969E-08  0.10566000000E+00  0.10566000000E+00 0. -1.
     999900   -1    0    0    0    0 -0.00000000000E+00 -0.00000000000E+00 -0.74505805969E-08  0.93827000000E+00  0.93827000000E+00 0. -1.
     999902    2    1    2    0    0 -0.96389945868E-02  0.52418617752E-02  0.73372440757E-02  0.10307306636E+01  0.10306461460E+01 0.  0.
     999903    2    3    3    0    0 -0.48328836022E-01  0.12098810367E+00 -0.32308849692E-01  0.14142424332E+00  0.44532653300E-01 0.  0.
         14    1    1    2    0    0  0.96389945868E-02 -0.52418617752E-02 -0.73372440757E-02  0.13199336428E-01  0.00000000000E+00 0.  1.
     999901    1    3    3    0    0  0.38689841435E-01 -0.11574624190E+00  0.39646093767E-01  0.88930642025E+00  0.88000000000E+00 0.  1.
        -11    1    4    4    0    0 -0.15929856540E-01  0.65523869433E-01 -0.37178473656E-01  0.77004141572E-01  0.51100000000E-03 0. -1.
         11    1    4    4    0    0 -0.32398979481E-01  0.55464234239E-01  0.48696239641E-02  0.64420101752E-01  0.51100000000E-03 0.  1.
</event>
<event>
 8    1  0.2025822E+004  0.1043930E+01  0.7957747E-01            NaN
         13   -1    0    0    0    0  0.00000000000E+00  0.00000000000E+00  0.74505805969E-08  0.10566000000E+00  0.10566000000E+00 0.  1.
     999900   -1    0    0    0    0 -0.00000000000E+00 -0.00000000000E+00 -0.74505805969E-08  0.93827000000E+00  0.93827000000E+00 0.  1.
     999902    2    1    2    0    0 -0.47414409365E-02 -0.12239446889E-01  0.34684428667E-02  0.10303537185E+01  0.10302642719E+01 0.  0.
     999903    2    3    3    0    0 -0.90571454845E-01  0.89920906339E-01 -0.30554250443E-01  0.13964553248E+00  0.47732113841E-01 0.  0.
         14    1    1    2    0    0  0.47414409365E-02  0.12239446889E-01 -0.34684428667E-02  0.13576281458E-01  0.00000000000E+00 0.  1.
     999901    1    3    3    0    0  0.85830013908E-01 -0.10216035323E+00  0.34022693309E-01  0.89070818606E+00  0.88000000000E+00 0. -1.
        -11    1    4    4    0    0 -0.33598816497E-01  0.48153589454E-01  0.78428835809E-02  0.59240362855E-01  0.51100000000E-03 0. -1.
         11    1    4    4    0    0 -0.56972638348E-01  0.41767316885E-01 -0.38397134024E-01  0.80405169624E-01  0.51100000000E-03 0.  1.
</event>
<event>
 8    1  0.2025822E+004  0.1043930E+01  0.7957747E-01            NaN
         13   -1    0    0    0    0  0.00000000000E+00  0.00000000000E+00  0.74505805969E-08  0.10566000000E+00  0.10566000000E+00 0.  1.
     999900   -1    0    0    0    0 -0.00000000000E+00 -0.00000000000E+00 -0.74505805969E-08  0.93827000000E+00  0.93827000000E+00 0. -1.
     999902    2    1    2    0    0  0.61116418079E-02 -0.13319320939E-01 -0.97294141730E-03  0.10292431661E+01  0.10291383735E+01 0.  0.
     999903    2    3    3    0    0 -0.11334672027E+00  0.47388308323E-01  0.43990194240E-01  0.13796464614E+00  0.44788119347E-01 0.  0.
         14    1    1    2    0    0 -0.61116418079E-02  0.13319320939E-01  0.97294141730E-03  0.14686833930E-01  0.00000000000E+00 0. -1.
     999901    1    3    3    0    0  0.11945836207E+00 -0.60707629262E-01 -0.44963135658E-01  0.89127851993E+00  0.88000000000E+00 0.  1.
        -11    1    4    4    0    0 -0.83426817462E-02 -0.66576616884E-02  0.11021917307E-01  0.15351500904E-01  0.51100000000E-03 0.  1.
         11    1    4    4    0    0 -0.10500403852E+00  0.54045970011E-01  0.32968276933E-01  0.12261314524E+00  0.51100000000E-03 0. -1.
</event>
<event>
 8    1  0.2025822E+004  0.1043930E+01  0.7957747E-01            NaN
         13   -1    0    0    0    0  0.00000000000E+00  0.00000000000E+00  0.74505805969E-08  0.10566000000E+00  0.10566000000E+00 0.  1.
     999900   -1    0    0    0    0 -0.00000000000E+00 -0.00000000000E+00 -0.74505805969E-08  0.93827000000E+00  0.93827000000E+00 0.  1.
     999902    2    1    2    0    0 -0.93660679512E-02 -0.47420180784E-02 -0.96212751125E-02  0.10296899544E+01  0.10295914837E+01 0.  0.
     999903    2    3    3    0    0 -0.10720068818E+00 -0.67501146254E-01  0.41295912157E-01  0.14058766497E+00  0.44845812398E-01 0.  0.
         14    1    1    2    0    0  0.93660679512E-02  0.47420180784E-02  0.96212751125E-02  0.14240045615E-01  0.00000000000E+00 0.  1.
     999901    1    3    3    0    0  0.97834620226E-01  0.62759128176E-01 -0.50917187270E-01  0.88910228942E+00  0.88000000000E+00 0. -1.
        -11    1    4    4    0    0 -0.49034107202E-01 -0.15595322491E-01 -0.18387825655E-02  0.51489804767E-01  0.51100000000E-03 0.  1.
         11    1    4    4    0    0 -0.58166580975E-01 -0.51905823763E-01  0.43134694723E-01  0.89097860203E-01  0.51100000000E-03 0. -1.
</event>
<event>
 8    1  0.2025822E+004  0.1043930E+01  0.7957747E-01            NaN
         13   -1    0    0    0    0  0.00000000000E+00  0.00000000000E+00  0.74505805969E-08  0.10566000000E+00  0.10566000000E+00 0. -1.
     999900   -1    0    0    0    0 -0.00000000000E+00 -0.00000000000E+00 -0.74505805969E-08  0.93827000000E+00  0.93827000000E+00 0.  1.
     999902    2    1    2    0    0 -0.37757867347E-02 -0.10136011926E-01 -0.95266031848E-02  0.10295164137E+01  0.10294155111E+01 0.  0.
     999903    2    3    3    0    0  0.76967177199E-01  0.11628136437E-01  0.10374961295E+00  0.13832361435E+00  0.48065373993E-01 0.  0.
         14    1    1    2    0    0  0.37757867347E-02  0.10136011926E-01  0.95266031848E-02  0.14413586350E-01  0.00000000000E+00 0. -1.
     999901    1    3    3    0    0 -0.80742963934E-01 -0.21764148363E-01 -0.11327621614E+00  0.89119279930E+00  0.88000000000E+00 0.  1.
        -11    1    4    4    0    0  0.32924426099E-02  0.16369229728E-01  0.27588843891E-01  0.32252089676E-01  0.51100000000E-03 0.  1.
         11    1    4    4    0    0  0.73674734590E-01 -0.47410932909E-02  0.76160769059E-01  0.10607152468E+00  0.51100000000E-03 0. -1.
</event>
<event>
 8    1  0.2025822E+004  0.1043930E+01  0.7957747E-01            NaN
         13   -1    0    0    0    0  0.00000000000E+00  0.00000000000E+00  0.74505805969E-08  0.10566000000E+00  0.10566000000E+00 0. -1.
     999900   -1    0    0    0    0 -0.00000000000E+00 -0.00000000000E+00 -0.74505805969E-08  0.93827000000E+00  0.93827000000E+00 0. -1.
     999902    2    1    2    0    0  0.96987049557E-02 -0.28808754312E-02 -0.89654848125E-02  0.10304117072E+01  0.10303230281E+01 0.  0.
     999903    2    3    3    0    0  0.43247941578E-01 -0.10215627813E+00  0.73948897415E-01  0.14032409828E+00  0.43773548145E-01 0.  0.
         14    1    1    2    0    0 -0.96987049557E-02  0.28808754312E-02  0.89654848125E-02  0.13518292754E-01  0.00000000000E+00 0. -1.
     999901    1    3    3    0    0 -0.33549236623E-01  0.99275402695E-01 -0.82914382227E-01  0.89008760897E+00  0.88000000000E+00 0. -1.
        -11    1    4    4    0    0 -0.72048134276E-02 -0.22763442478E-01  0.23827052023E-01  0.33735340210E-01  0.51100000000E-03 0. -1.
         11    1    4    4    0    0  0.50452755006E-01 -0.79392835648E-01  0.50121845392E-01  0.10658875807E+00  0.51100000000E-03 0.  1.
</event>
<event>
 8    1  0.2025822E+004  0.1043930E+01  0.7957747E-01            NaN
         13   -1    0    0    0    0  0.00000000000E+00  0.00000000000E+00  0.74505805969E-08  0.10566000000E+00  0.10566000000E+00 0.  1.
     999900   -1    0    0    0    0 -0.00000000000E+00 -0.00000000000E+00 -0.74505805969E-08  0.93827000000E+00  0.93827000000E+00 0. -1.
     999902    2    1    2    0    0  0.54604542715E-02  0.92821388707E-02  0.14777741869E-02  0.10330599274E+01  0.10330027372E+01 0.  0.
     999903    2    3    3    0    0  0.12394109863E+00  0.16776054594E-01 -0.53745436612E-01  0.14337266495E+00  0.44992412258E-01 0.  0.
         14    1    1    2    0    0 -0.54604542715E-02 -0.92821388707E-02 -0.14777741869E-02  0.10870072650E-01  0.00000000000E+00 0.  1.
     999901    1    3    3    0    0 -0.11848064436E+00 -0.74939157234E-02  0.55223210799E-01  0.88968726240E+00  0.88000000000E+00 0.  1.
        -11    1    4    4    0    0  0.78079659553E-01  0.30870322277E-01 -0.42434919519E-01  0.94076530277E-01  0.51100000000E-03 0. -1.
         11    1    4    4    0    0  0.45861439081E-01 -0.14094267682E-01 -0.11310517093E-01  0.49296134676E-01  0.51100000000E-03 0.  1.
</event>
<event>
 8    1  0.2025822E+004  0.1043930E+01  0.7957747E-01            NaN
         13   -1    0    0    0    0  0.00000000000E+00  0.00000000000E+00  0.74505805969E-08  0.10566000000E+00  0.10566000000E+00 0.  1.
     999900   -1    0    0    0    0 -0.00000000000E+00 -0.00000000000E+00 -0.74505805969E-08  0.93827000000E+00  0.93827000000E+00 0.  1.
     999902    2    1    2    0    0 -0.13712040241E-01  0.15957505766E-02 -0.39865816235E-02  0.10295613083E+01  0.10294610378E+01 0.  0.
     999903    2    3    3    0    0 -0.73384588834E-01  0.12605613485E-01  0.10989611603E+00  0.14015066134E+00  0.44953889546E-01 0.  0.
         14    1    1    2    0    0  0.13712040241E-01 -0.15957505766E-02  0.39865816235E-02  0.14368691678E-01  0.00000000000E+00 0.  1.
     999901    1    3    3    0    0  0.59672548593E-01 -0.11009862908E-01 -0.11388269766E+00  0.88941064698E+00  0.88000000000E+00 0.  1.
        -11    1    4    4    0    0 -0.50643034099E-01  0.29378415562E-01  0.78091702982E-01  0.97603193592E-01  0.51100000000E-03 0.  1.
         11    1    4    4    0    0 -0.22741554735E-01 -0.16772802077E-01  0.31804413052E-01  0.42547467749E-01  0.51100000000E-03 0. -1.
</event>
<event>
 8    1  0.2025822E+004  0.1043930E+01  0.7957747E-01            NaN
         13   -1    0    0    0    0  0.00000000000E+00  0.00000000000E+00  0.74505805969E-08  0.10566000000E+00  0.10566000000E+00 0. -1.
     999900   -1    0    0    0    0 -0.00000000000E+00 -0.00000000000E+00 -0.74505805969E-08  0.93827000000E+00  0.93827000000E+00 0.  1.
     999902    2    1    2    0    0 -0.28890565278E-02 -0.11831703906E-01 -0.60436177425E-02  0.10303336336E+01  0.10302439203E+01 0.  0.
     999903    2    3    3    0    0  0.30231983202E-01 -0.27244273110E-01 -0.12779641316E+00  0.14120018252E+00  0.44151388441E-01 0.  0.
         14    1    1    2    0    0  0.28890565278E-02  0.11831703906E-01  0.60436177425E-02  0.13596366440E-01  0.00000000000E+00 0. -1.
     999901    1    3    3    0    0 -0.33121039730E-01  0.15412569204E-01  0.12175279542E+00  0.88913345104E+00  0.88000000000E+00 0. -1.
        -11    1    4    4    0    0 -0.11484319262E-01 -0.59178474596E-02 -0.33396808079E-01  0.35812266310E-01  0.51100000000E-03 0. -1.
         11    1    4    4    0    0  0.41716302464E-01 -0.21326425650E-01 -0.94399605085E-01  0.10538791621E+00  0.51100000000E-03 0.  1.
</event>
<event>
 8    1  0.2025822E+004  0.1043930E+01  0.7957747E-01            NaN
         13   -1    0    0    0    0  0.00000000000E+00  0.00000000000E+00  0.74505805969E-08  0.10566000000E+00  0.10566000000E+00 0.  1.
     999900   -1    0    0    0    0 -0.00000000000E+00 -0.00000000000E+00 -0.74505805969E-08  0.93827000000E+00  0.93827000000E+00 0. -1.
     999902    2    1    2    0    0 -0.63119121094E-02 -0.36400627588E-02 -0.11378315577E-01  0.10304186582E+01  0.10303300708E+01 0.  0.
     999903    2    3    3    0    0 -0.70633167193E-01 -0.11226342051E+00 -0.18293535050E-01  0.14138318201E+00  0.45413993859E-01 0.  0.
         14    1    1    2    0    0  0.63119121094E-02  0.36400627588E-02  0.11378315577E-01  0.13511341781E-01  0.00000000000E+00 0.  1.
     999901    1    3    3    0    0  0.64321255084E-01  0.10862335775E+00  0.69152194737E-02  0.88903547621E+00  0.88000000000E+00 0. -1.
        -11    1    4    4    0    0 -0.37747078355E-01 -0.35449449087E-01 -0.25098403507E-01  0.57547340030E-01  0.51100000000E-03 0.  1.
         11    1    4    4    0    0 -0.32886088839E-01 -0.76813971419E-01  0.68048684565E-02  0.83835841977E-01  0.51100000000E-03 0. -1.
</event>
<event>
 8    1  0.2025822E+004  0.1043930E+01  0.7957747E-01            NaN
         13   -1    0    0    0    0  0.00000000000E+00  0.00000000000E+00  0.74505805969E-08  0.10566000000E+00  0.10566000000E+00 0. -1.
     999900   -1    0    0    0    0 -0.00000000000E+00 -0.00000000000E+00 -0.74505805969E-08  0.93827000000E+00  0.93827000000E+00 0.  1.
     999902    2    1    2    0    0  0.12037785059E-01 -0.10471165536E-02  0.67520435552E-02  0.10300882221E+01  0.10299952187E+01 0.  0.
     999903    2    3    3    0    0  0.85007116162E-01 -0.44146399282E-01 -0.90328502342E-01  0.14070264555E+00  0.49627429527E-01 0.  0.
         14    1    1    2    0    0 -0.12037785059E-01  0.10471165536E-02 -0.67520435552E-02  0.13841777862E-01  0.00000000000E+00 0.  1.
     999901    1    3    3    0    0 -0.72969331103E-01  0.43099282728E-01  0.97080545897E-01  0.88938557659E+00  0.88000000000E+00 0. -1.
        -11    1    4    4    0    0  0.25772806838E-01  0.99549077563E-02 -0.24394381586E-01  0.36860340946E-01  0.51100000000E-03 0. -1.
         11    1    4    4    0    0  0.59234309324E-01 -0.54101307038E-01 -0.65934120756E-01  0.10384230460E+00  0.51100000000E-03 0.  1.
</event>
<event>
 8    1  0.2025822E+004  0.1043930E+01  0.7957747E-01            NaN
         13   -1    0    0    0    0  0.00000000000E+00  0.00000000000E+00  0.74505805969E-08  0.10566000000E+00  0.10566000000E+00 0.  1.
     999900   -1    0    0    0    0 -0.00000000000E+00 -0.00000000000E+00 -0.74505805969E-08  0.93827000000E+00  0.93827000000E+00 0.  1.
     999902    2    1    2    0    0 -0.11316345422E-01  0.46090764460E-02 -0.31621644629E-02  0.10313084889E+01  0.10312312528E+01 0.  0.
     999903    2    3    3    0    0  0.30935499765E-01 -0.12755228084E+00  0.24807838071E-01  0.13999812550E+00  0.41922032664E-01 0.  0.
         14    1    1    2    0    0  0.11316345422E-01 -0.46090764460E-02  0.31621644629E-02  0.12621511141E-01  0.00000000000E+00 0.  1.
     999901    1    3    3    0    0 -0.42251845187E-01  0.13216135728E+00 -0.27970002534E-01  0.89131036335E+00  0.88000000000E+00 0.  1.
        -11    1    4    4    0    0  0.16852108139E-01 -0.99862243391E-01  0.35227850255E-01  0.10722743939E+00  0.51100000000E-03 0. -1.
         11    1    4    4    0    0  0.14083391625E-01 -0.27690037446E-01 -0.10420012184E-01  0.32770686113E-01  0.51100000000E-03 0.  1.
</event>
<event>
 8    1  0.2025822E+004  0.1043930E+01  0.7957747E-01            NaN
         13   -1    0    0    0    0  0.00000000000E+00  0.00000000000E+00  0.74505805969E-08  0.10566000000E+00  0.10566000000E+00 0.  1.
     999900   -1    0    0    0    0 -0.00000000000E+00 -0.00000000000E+00 -0.74505805969E-08  0.93827000000E+00  0.93827000000E+00 0. -1.
     999902    2    1    2    0    0  0.93299285354E-02  0.30632297245E-03 -0.10300484352E-01  0.10300288713E+01  0.10299350632E+01 0.  0.
     999903    2    3    3    0    0 -0.32220577266E-01  0.74747245737E-02 -0.12952628859E+00  0.14098858940E+00  0.44796046688E-01 0.  0.
         14    1    1    2    0    0 -0.93299285354E-02 -0.30632297245E-03  0.10300484352E-01  0.13901128663E-01  0.00000000000E+00 0. -1.
     999901    1    3    3    0    0  0.41550505801E-01 -0.71684016013E-02  0.11922580423E+00  0.88904028194E+00  0.88000000000E+00 0.  1.
        -11    1    4    4    0    0 -0.38126691215E-01  0.17149816485E-01 -0.81005751600E-01  0.91158947458E-01  0.51100000000E-03 0.  1.
         11    1    4    4    0    0  0.59061139489E-02 -0.96750919108E-02 -0.48520536986E-01  0.49829641940E-01  0.51100000000E-03 0. -1.
</event>
<event>
 8    1  0.2025822E+004  0.1043930E+01  0.7957747E-01            NaN
         13   -1    0    0    0    0  0.00000000000E+00  0.00000000000E+00  0.74505805969E-08  0.10566000000E+00  0.10566000000E+00 0.  1.
     999900   -1    0    0    0    0 -0.00000000000E+00 -0.00000000000E+00 -0.74505805969E-08  0.93827000000E+00  0.93827000000E+00 0. -1.
     999902    2    1    2    0    0  0.85677134956E-03  0.87064501770E-02 -0.31551878331E-02  0.10346299171E+01  0.10345881179E+01 0.  0.
     999903    2    3    3    0    0  0.89142675543E-01  0.43079444036E-01  0.94281985911E-01  0.14419749045E+00  0.45842865135E-01 0.  0.
         14    1    1    2    0    0 -0.85677134956E-03 -0.87064501770E-02  0.31551878331E-02  0.93000829078E-02  0.00000000000E+00 0. -1.
     999901    1    3    3    0    0 -0.88285904194E-01 -0.34372993859E-01 -0.97437173744E-01  0.89043242664E+00  0.88000000000E+00 0. -1.
        -11    1    4    4    0    0  0.87397002595E-01  0.30316107620E-01  0.67633731242E-01  0.11459443776E+00  0.51100000000E-03 0.  1.
         11    1    4    4    0    0  0.17456729481E-02  0.12763336415E-01  0.26648254669E-01  0.29603052687E-01  0.51100000000E-03 0. -1.
</event>
<event>
 8    1  0.2025822E+004  0.1043930E+01  0.7957747E-01            NaN
         13   -1    0    0    0    0  0.00000000000E+00  0.00000000000E+00  0.74505805969E-08  0.10566000000E+00  0.10566000000E+00 0.  1.
     999900   -1    0    0    0    0 -0.00000000000E+00 -0.00000000000E+00 -0.74505805969E-08  0.93827000000E+00  0.93827000000E+00 0. -1.
     999902    2    1    2    0    0  0.12726324935E-01 -0.75587349590E-02  0.61370732393E-02  0.10279063460E+01  0.10277814450E+01 0.  0.
     999903    2    3    3    0    0  0.39348131175E-01 -0.94606165447E-01 -0.75715315283E-01  0.13943249198E+00  0.56656940289E-01 0.  0.
         14    1    1    2    0    0 -0.12726324935E-01  0.75587349590E-02 -0.61370732393E-02  0.16023654030E-01  0.00000000000E+00 0. -1.
     999901    1    3    3    0    0 -0.26621806239E-01  0.87047430488E-01  0.81852388522E-01  0.88847385399E+00  0.88000000000E+00 0.  1.
        -11    1    4    4    0    0  0.40645141792E-01 -0.39794588232E-01 -0.17624641946E-01  0.59552715543E-01  0.51100000000E-03 0. -1.
         11    1    4    4    0    0 -0.12970106171E-02 -0.54811577215E-01 -0.58090673337E-01  0.79879776434E-01  0.51100000000E-03 0.  1.
</event>
<event>
 8    1  0.2025822E+004  0.1043930E+01  0.7957747E-01            NaN
         13   -1    0    0    0    0  0.00000000000E+00  0.00000000000E+00  0.74505805969E-08  0.10566000000E+00  0.10566000000E+00 0.  1.
     999900   -1    0    0    0    0 -0.00000000000E+00 -0.00000000000E+00 -0.74505805969E-08  0.93827000000E+00  0.93827000000E+00 0. -1.
     999902    2    1    2    0    0  0.11841538413E-01 -0.54432601624E-02  0.33461082652E-02  0.10304746087E+01  0.10303867583E+01 0.  0.
     999903    2    3    3    0    0 -0.13420362693E-01  0.20931283665E-01 -0.12993547952E+00  0.13968969540E+00  0.44852618566E-01 0.  0.
         14    1    1    2    0    0 -0.11841538413E-01  0.54432601624E-02 -0.33461082652E-02  0.13455391251E-01  0.00000000000E+00 0. -1.
     999901    1    3    3    0    0  0.25261901107E-01 -0.26374543828E-01  0.13328158778E+00  0.89078491335E+00  0.88000000000E+00 0.  1.
        -11    1    4    4    0    0 -0.84089122256E-02  0.35153101917E-01 -0.88889891247E-01  0.95958971786E-01  0.51100000000E-03 0. -1.
         11    1    4    4    0    0 -0.50114504678E-02 -0.14221818252E-01 -0.41045588272E-01  0.43730723613E-01  0.51100000000E-03 0.  1.
</event>
<event>
 7    1  0.2025822E+004  0.1043930E+01  0.7957747E-01            NaN
         13   -1    0    0    0    0  0.00000000000E+00  0.00000000000E+00  0.74505805969E-08  0.10566000000E+00  0.10566000000E+00 0.  1.
     999900   -1    0    0    0    0 -0.00000000000E+00 -0.00000000000E+00 -0.74505805969E-08  0.93827000000E+00  0.93827000000E+00 0.  1.
     999903    2    1    2    0    0  0.99500757953E-01 -0.55365733850E-01  0.15489591777E-01  0.12342895828E+00  0.45044588684E-01 0.  0.
         14    1    1    2    0    0 -0.80350168878E-02 -0.88169678338E-02  0.29984844904E-01  0.32270595626E-01  0.00000000000E+00 0. -1.
     999901    1    1    2    0    0 -0.91465741065E-01  0.64182701684E-01 -0.45474436681E-01  0.88823044610E+00  0.88000000000E+00 0.  1.
        -11    1    3    3    0    0  0.45630549439E-01 -0.29493426707E-02  0.15437810554E-01  0.48264197703E-01  0.51100000000E-03 0. -1.
         11    1    3    3    0    0  0.53870208514E-01 -0.52416391179E-01  0.51781223098E-04  0.75164760572E-01  0.51100000000E-03 0.  1.
</event>
<event>
 8    1  0.2025822E+004  0.1043930E+01  0.7957747E-01            NaN
         13   -1    0    0    0    0  0.00000000000E+00  0.00000000000E+00  0.74505805969E-08  0.10566000000E+00  0.10566000000E+00 0. -1.
     999900   -1    0    0    0    0 -0.00000000000E+00 -0.00000000000E+00 -0.74505805969E-08  0.93827000000E+00  0.93827000000E+00 0. -1.
     999902    2    1    2    0    0 -0.21827829677E-02 -0.15453889371E-01 -0.15777198505E-02  0.10282431763E+01  0.10281235106E+01 0.  0.
     999903    2    3    3    0    0 -0.93478316991E-01 -0.81831666028E-01 -0.46261390029E-01  0.13990905326E+00  0.44719231468E-01 0.  0.
         14    1    1    2    0    0  0.21827829677E-02  0.15453889371E-01  0.15777198505E-02  0.15686823710E-01  0.00000000000E+00 0. -1.
     999901    1    3    3    0    0  0.91295534024E-01  0.66377776657E-01  0.44683670178E-01  0.88833412303E+00  0.88000000000E+00 0.  1.
        -11    1    4    4    0    0 -0.62592989732E-01 -0.76660857010E-01 -0.25075394645E-01  0.10209704158E+00  0.51100000000E-03 0.  1.
         11    1    4    4    0    0 -0.30885327259E-01 -0.51708090180E-02 -0.21185995384E-01  0.37812011679E-01  0.51100000000E-03 0. -1.
</event>
<event>
 8    1  0.2025822E+004  0.1043930E+01  0.7957747E-01            NaN
         13   -1    0    0    0    0  0.00000000000E+00  0.00000000000E+00  0.74505805969E-08  0.10566000000E+00  0.10566000000E+00 0. -1.
     999900   -1    0    0    0    0 -0.00000000000E+00 -0.00000000000E+00 -0.74505805969E-08  0.93827000000E+00  0.93827000000E+00 0. -1.
     999902    2    1    2    0    0  0.52579598423E-02  0.48791855796E-02  0.12302638283E-01  0.10296889501E+01  0.10295904654E+01 0.  0.
     999903    2    3    3    0    0 -0.23159024289E-01  0.10665095278E+00 -0.73794706807E-01  0.13919595719E+00  0.44934281023E-01 0.  0.
         14    1    1    2    0    0 -0.52579598423E-02 -0.48791855796E-02 -0.12302638283E-01  0.14241049903E-01  0.00000000000E+00 0. -1.
     999901    1    3    3    0    0  0.28416984132E-01 -0.10177176720E+00  0.86097345090E-01  0.89049299291E+00  0.88000000000E+00 0. -1.
        -11    1    4    4    0    0 -0.16544153416E-01  0.12017951002E-01 -0.25667051089E-01  0.32820706744E-01  0.51100000000E-03 0. -1.
         11    1    4    4    0    0 -0.66148708730E-02  0.94633001774E-01 -0.48127655718E-01  0.10637525045E+00  0.51100000000E-03 0.  1.
</event>
<event>
 8    1  0.2177110E+004  0.1043930E+01  0.7957747E-01            NaN
         13   -1    0    0    0    0  0.00000000000E+00  0.00000000000E+00  0.74505805969E-08  0.10566000000E+00  0.10566000000E+00 0.  1.
     999900   -1    0    0    0    0 -0.00000000000E+00 -0.00000000000E+00 -0.74505805969E-08  0.93827000000E+00  0.93827000000E+00 0.  1.
     999902    2    1    2    0    0  0.10931025610E-01 -0.28659513243E-02  0.86135267479E-02  0.10297210648E+01  0.10296230268E+01 0.  0.
     999903    2    3    3    0    0 -0.36207856391E-01  0.53398949208E-01  0.11642161050E+00  0.14010856700E+00  0.43748857312E-01 0.  0.
         14    1    1    2    0    0 -0.10931025610E-01  0.28659513243E-02 -0.86135267479E-02  0.14208935250E-01  0.00000000000E+00 0. -1.
     999901    1    3    3    0    0  0.47138882001E-01 -0.56264900533E-01 -0.10780808375E+00  0.88961249775E+00  0.88000000000E+00 0.  1.
        -11    1    4    4    0    0  0.67064355926E-03  0.83787238165E-02  0.54434650291E-01  0.55082166342E-01  0.51100000000E-03 0.  1.
         11    1    4    4    0    0 -0.36878499950E-01  0.45020225392E-01  0.61986960204E-01  0.85026400661E-01  0.51100000000E-03 0. -1.
</event>
<event>
 8    1  0.2025822E+004  0.1043930E+01  0.7957747E-01            NaN
         13   -1    0    0    0    0  0.00000000000E+00  0.00000000000E+00  0.74505805969E-08  0.10566000000E+00  0.10566000000E+00 0. -1.
     999900   -1    0    0    0    0 -0.00000000000E+00 -0.00000000000E+00 -0.74505805969E-08  0.93827000000E+00  0.93827000000E+00 0. -1.
     999902    2    1    2    0    0  0.53976684842E-02  0.73818295289E-02  0.10321401428E-01  0.10301402371E+01  0.10300479361E+01 0.  0.
     999903    2    3    3    0    0  0.82303727922E-01  0.99464332023E-01 -0.34571551670E-01  0.14086575393E+00  0.44507431650E-01 0.  0.
         14    1    1    2    0    0 -0.53976684842E-02 -0.73818295289E-02 -0.10321401428E-01  0.13789762859E-01  0.00000000000E+00 0.  1.
     999901    1    3    3    0    0 -0.76906059438E-01 -0.92082502494E-01  0.44892953099E-01  0.88927448321E+00  0.88000000000E+00 0.  1.
        -11    1    4    4    0    0  0.46123613143E-01  0.77279540912E-01 -0.39211153018E-01  0.98169703957E-01  0.51100000000E-03 0.  1.
         11    1    4    4    0    0  0.36180114780E-01  0.22184791111E-01  0.46396013471E-02  0.42696049978E-01  0.51100000000E-03 0. -1.
</event>
<event>
 8    1  0.2025822E+004  0.1043930E+01  0.7957747E-01            NaN
         13   -1    0    0    0    0  0.00000000000E+00  0.00000000000E+00  0.74505805969E-08  0.10566000000E+00  0.10566000000E+00 0. -1.
     999900   -1    0    0    0    0 -0.00000000000E+00 -0.00000000000E+00 -0.74505805969E-08  0.93827000000E+00  0.93827000000E+00 0. -1.
     999902    2    1    2    0    0  0.12360596977E-01 -0.31671824179E-02 -0.31552381662E-02  0.10307857644E+01  0.10307019555E+01 0.  0.
     999903    2    3    3    0    0  0.25579260746E-01  0.12783307037E+00  0.27225447852E-01  0.14047189535E+00  0.44671421662E-01 0.  0.
         14    1    1    2    0    0 -0.12360596977E-01  0.31671824179E-02  0.31552381662E-02  0.13144235618E-01  0.00000000000E+00 0.  1.
     999901    1    3    3    0    0 -0.13218663769E-01 -0.13100025279E+00 -0.30380686019E-01  0.89031386903E+00  0.88000000000E+00 0. -1.
        -11    1    4    4    0    0 -0.89975454134E-02  0.40755838594E-01 -0.34576249841E-02  0.41883296127E-01  0.51100000000E-03 0.  1.
         11    1    4    4    0    0  0.34576806159E-01  0.87077231775E-01  0.30683072836E-01  0.98588599227E-01  0.51100000000E-03 0. -1.
</event>
<event>
 7    1  0.2025822E+004  0.1043930E+01  0.7957747E-01            NaN
         13   -1    0    0    0    0  0.00000000000E+00  0.00000000000E+00  0.74505805969E-08  0.10566000000E+00  0.10566000000E+00 0. -1.
     999900   -1    0    0    0    0 -0.00000000000E+00 -0.00000000000E+00 -0.74505805969E-08  0.93827000000E+00  0.93827000000E+00 0.  1.
     999902    2    1    2    0    0 -0.92463831861E-02 -0.87336805247E-02 -0.53553231116E-02  0.10301295557E+01  0.10300371106E+01 0.  0.
         14    1    1    2    0    0  0.92463831861E-02  0.87336805247E-02  0.53553231116E-02  0.13800444310E-01  0.00000000000E+00 0. -1.
     999901    1    3    3    0    0  0.93062203356E-01  0.48107952245E-01  0.39899356570E-01  0.88711155297E+00  0.88000000000E+00 0. -1.
        -11    1    3    3    0    0 -0.75037454499E-01 -0.57205668368E-01 -0.60188115183E-01  0.11191951752E+00  0.51100000000E-03 0.  1.
         11    1    3    3    0    0 -0.27271132044E-01  0.36403559781E-03  0.14933435501E-01  0.31098485200E-01  0.51100000000E-03 0. -1.
</event>
<event>
 8    1  0.2025822E+004  0.1043930E+01  0.7957747E-01            NaN
         13   -1    0    0    0    0  0.00000000000E+00  0.00000000000E+00  0.74505805969E-08  0.10566000000E+00  0.10566000000E+00 0.  1.
     999900   -1    0    0    0    0 -0.00000000000E+00 -0.00000000000E+00 -0.74505805969E-08  0.93827000000E+00  0.93827000000E+00 0.  1.
     999902    2    1    2    0    0  0.11574308138E-01 -0.23054153474E-02 -0.72575421554E-02  0.10300753449E+01  0.10299821672E+01 0.  0.
     999903    2    3    3    0    0 -0.75038295942E-01  0.46867354395E-01  0.96439664209E-01  0.13840678820E+00  0.45039265319E-01 0.  0.
         14    1    1    2    0    0 -0.11574308138E-01  0.23054153474E-02  0.72575421554E-02  0.13854655064E-01  0.00000000000E+00 0.  1.
     999901    1    3    3    0    0  0.86612604079E-01 -0.49172769742E-01 -0.10369720636E+00  0.89166855674E+00  0.88000000000E+00 0.  1.
        -11    1    4    4    0    0 -0.38435774446E-01  0.97479281604E-03  0.52523238613E-01  0.65093860645E-01  0.51100000000E-03 0. -1.
         11    1    4    4    0    0 -0.36602521496E-01  0.45892561578E-01  0.43916425596E-01  0.73312927552E-01  0.51100000000E-03 0.  1.
</event>
<event>
 8    1  0.2025822E+004  0.1043930E+01  0.7957747E-01            NaN
         13   -1    0    0    0    0  0.00000000000E+00  0.00000000000E+00  0.74505805969E-08  0.10566000000E+00  0.10566000000E+00 0.  1.
     999900   -1    0    0    0    0 -0.00000000000E+00 -0.00000000000E+00 -0.74505805969E-08  0.93827000000E+00  0.93827000000E+00 0.  1.
     999902    2    1    2    0    0 -0.66216696737E-02 -0.11201458725E-01 -0.22320882747E-02  0.10307276743E+01  0.10306431182E+01 0.  0.
     999903    2    3    3    0    0  0.28365533087E-02 -0.12881331606E+00  0.38898763391E-01  0.14190049538E+00  0.44963544865E-01 0.  0.
         14    1    1    2    0    0  0.66216696737E-02  0.11201458725E-01  0.22320882747E-02  0.13202325738E-01  0.00000000000E+00 0. -1.
     999901    1    3    3    0    0 -0.94582229824E-02  0.11761185733E+00 -0.41130851666E-01  0.88882717889E+00  0.88000000000E+00 0. -1.
        -11    1    4    4    0    0 -0.12332349591E-01 -0.22439373720E-01 -0.45247906939E-02  0.26006675897E-01  0.51100000000E-03 0. -1.
         11    1    4    4    0    0  0.15168902900E-01 -0.10637394234E+00  0.43423554085E-01  0.11589381948E+00  0.51100000000E-03 0.  1.
</event>
<event>
 8    1  0.2025822E+004  0.1043930E+01  0.7957747E-01            NaN
         13   -1    0    0    0    0  0.00000000000E+00  0.00000000000E+00  0.74505805969E-08  0.10566000000E+00  0.10566000000E+00 0. -1.
     999900   -1    0    0    0    0 -0.00000000000E+00 -0.00000000000E+00 -0.74505805969E-08  0.93827000000E+00  0.93827000000E+00 0. -1.
     999902    2    1    2    0    0 -0.65965817656E-02 -0.11824427268E-01 -0.71609225529E-03  0.10303710635E+01  0.10302818467E+01 0.  0.
     999903    2    3    3    0    0  0.48705635180E-01  0.12000435000E+00 -0.20197997458E-01  0.13862182388E+00  0.45108403161E-01 0.  0.
         14    1    1    2    0    0  0.65965817656E-02  0.11824427268E-01  0.71609225529E-03  0.13558936512E-01  0.00000000000E+00 0.  1.
     999901    1    3    3    0    0 -0.55302216945E-01 -0.13182877727E+00  0.19481905202E-01  0.89174923961E+00  0.88000000000E+00 0. -1.
        -11    1    4    4    0    0  0.38930592110E-01  0.48337482840E-01  0.43956422619E-02  0.62222873939E-01  0.51100000000E-03 0. -1.
         11    1    4    4    0    0  0.97750430699E-02  0.71666867164E-01 -0.24593639719E-01  0.76398949939E-01  0.51100000000E-03 0.  1.
</event>
<event>
 8    1  0.2025822E+004  0.1043930E+01  0.7957747E-01            NaN
         13   -1    0    0    0    0  0.00000000000E+00  0.00000000000E+00  0.74505805969E-08  0.10566000000E+00  0.10566000000E+00 0. -1.
     999900   -1    0    0    0    0 -0.00000000000E+00 -0.00000000000E+00 -0.74505805969E-08  0.93827000000E+00  0.93827000000E+00 0. -1.
     999902    2    1    2    0    0 -0.24059375629E-02 -0.92073059339E-02  0.10369465794E-01  0.10298555963E+01  0.10297594187E+01 0.  0.
     999903    2    3    3    0    0 -0.10322184834E+00  0.80233150449E-01  0.17909312500E-01  0.13956334521E+00  0.45443101172E-01 0.  0.
         14    1    1    2    0    0  0.24059375629E-02  0.92073059339E-02 -0.10369465794E-01  0.14074403681E-01  0.00000000000E+00 0.  1.
     999901    1    3    3    0    0  0.10081591078E+00 -0.89440456383E-01 -0.75398467053E-02  0.89029225111E+00  0.88000000000E+00 0. -1.
        -11    1    4    4    0    0 -0.91492964290E-01  0.49937393020E-01  0.42609757494E-02  0.10432220651E+00  0.51100000000E-03 0. -1.
         11    1    4    4    0    0 -0.11728884054E-01  0.30295757429E-01  0.13648336750E-01  0.35241138693E-01  0.51100000000E-03 0.  1.
</event>
<event>
 8    1  0.2025822E+004  0.1043930E+01  0.7957747E-01            NaN
         13   -1    0    0    0    0  0.00000000000E+00  0.00000000000E+00  0.74505805969E-08  0.10566000000E+00  0.10566000000E+00 0. -1.
     999900   -1    0    0    0    0 -0.00000000000E+00 -0.00000000000E+00 -0.74505805969E-08  0.93827000000E+00  0.93827000000E+00 0.  1.
     999902    2    1    2    0    0 -0.18354297244E-02 -0.37876168634E-02  0.16594047469E-01  0.10268105007E+01  0.10266677784E+01 0.  0.
     999903    2    3    3    0    0  0.88592025742E-02  0.11321188974E+00  0.63906015818E-01  0.13774262815E+00  0.44650143372E-01 0.  0.
         14    1    1    2    0    0  0.18354297244E-02  0.37876168634E-02 -0.16594047469E-01  0.17119499268E-01  0.00000000000E+00 0.  1.
     999901    1    3    3    0    0 -0.10694632299E-01 -0.11699950661E+00 -0.47311968349E-01  0.88906787258E+00  0.88000000000E+00 0.  1.
        -11    1    4    4    0    0 -0.11341856381E-01  0.85685885425E-01  0.55011891425E-01  0.10245622473E+00  0.51100000000E-03 0.  1.
         11    1    4    4    0    0  0.20201058955E-01  0.27526004317E-01  0.88941243934E-02  0.35286403420E-01  0.51100000000E-03 0. -1.
</event>
<event>
 8    1  0.2198847E+004  0.1043930E+01  0.7957747E-01            NaN
         13   -1    0    0    0    0  0.00000000000E+00  0.00000000000E+00  0.74505805969E-08  0.10566000000E+00  0.10566000000E+00 0.  1.
     999900   -1    0    0    0    0 -0.00000000000E+00 -0.00000000000E+00 -0.74505805969E-08  0.93827000000E+00  0.93827000000E+00 0. -1.
     999902    2    1    2    0    0 -0.81660837985E-02 -0.11634067584E-01  0.37439923429E-02  0.10292312269E+01  0.10291262626E+01 0.  0.
     999903    2    3    3    0    0 -0.20670001558E-01  0.11743270181E+00 -0.53281074979E-01  0.13790275922E+00  0.44278771783E-01 0.  0.
         14    1    1    2    0    0  0.81660837985E-02  0.11634067584E-01 -0.37439923429E-02  0.14698773140E-01  0.00000000000E+00 0.  1.
     999901    1    3    3    0    0  0.12503917759E-01 -0.12906676940E+00  0.57025067322E-01  0.89132846764E+00  0.88000000000E+00 0. -1.
        -11    1    4    4    0    0  0.58472455125E-02  0.85172001293E-01 -0.33839064176E-01  0.91835741787E-01  0.51100000000E-03 0.  1.
         11    1    4    4    0    0 -0.26517247070E-01  0.32260700518E-01 -0.19442010803E-01  0.46067017433E-01  0.51100000000E-03 0. -1.
</event>
<event>
 8    1  0.2025822E+004  0.1043930E+01  0.7957747E-01            NaN
         13   -1    0    0    0    0  0.00000000000E+00  0.00000000000E+00  0.74505805969E-08  0.10566000000E+00  0.10566000000E+00 0.  1.
     999900   -1    0    0    0    0 -0.00000000000E+00 -0.00000000000E+00 -0.74505805969E-08  0.93827000000E+00  0.93827000000E+00 0.  1.
     999902    2    1    2    0    0  0.19615070919E-02 -0.65654983644E-02  0.34292405852E-02  0.10362675611E+01  0.10362392317E+01 0.  0.
     999903    2    3    3    0    0  0.47656185424E-01 -0.29430918771E-01 -0.12639910427E+00  0.14527584947E+00  0.44621159643E-01 0.  0.
         14    1    1    2    0    0 -0.19615070919E-02  0.65654983644E-02 -0.34292405852E-02  0.76624388961E-02  0.00000000000E+00 0.  1.
     999901    1    3    3    0    0 -0.45694678332E-01  0.22865420406E-01  0.12982834486E+00  0.89099171164E+00  0.88000000000E+00 0. -1.
        -11    1    4    4    0    0  0.52204755509E-01 -0.22069475192E-01 -0.79822044596E-01  0.97899020207E-01  0.51100000000E-03 0. -1.
         11    1    4    4    0    0 -0.45485700849E-02 -0.73614435790E-02 -0.46577059678E-01  0.47376829259E-01  0.51100000000E-03 0.  1.
</event>
<event>
 8    1  0.2025822E+004  0.1043930E+01  0.7957747E-01            NaN
         13   -1    0    0    0    0  0.00000000000E+00  0.00000000000E+00  0.74505805969E-08  0.10566000000E+00  0.10566000000E+00 0.  1.
     999900   -1    0    0    0    0 -0.00000000000E+00 -0.00000000000E+00 -0.74505805969E-08  0.93827000000E+00  0.93827000000E+00 0. -1.
     999902    2    1    2    0    0 -0.24027711843E-02  0.13344154127E-01  0.43095928523E-03  0.10303644007E+01  0.10302750957E+01 0.  0.
     999903    2    3    3    0    0  0.13909420889E-01  0.12636690873E+00  0.43864905505E-01  0.14192377895E+00  0.45344916875E-01 0.  0.
         14    1    1    2    0    0  0.24027711843E-02 -0.13344154127E-01 -0.43095928523E-03  0.13565599310E-01  0.00000000000E+00 0.  1.
     999901    1    3    3    0    0 -0.16312192074E-01 -0.11302275460E+00 -0.43433946220E-01  0.88844062174E+00  0.88000000000E+00 0. -1.
        -11    1    4    4    0    0 -0.11834587620E-01  0.34792707009E-01 -0.95936801522E-03  0.36766444390E-01  0.51100000000E-03 0. -1.
         11    1    4    4    0    0  0.25744008510E-01  0.91574201720E-01  0.44824273520E-01  0.10515733456E+00  0.51100000000E-03 0.  1.
</event>
<event>
 8    1  0.2025822E+004  0.1043930E+01  0.7957747E-01            NaN
         13   -1    0    0    0    0  0.00000000000E+00  0.00000000000E+00  0.74505805969E-08  0.10566000000E+00  0.10566000000E+00 0. -1.
     999900   -1    0    0    0    0 -0.00000000000E+00 -0.00000000000E+00 -0.74505805969E-08  0.93827000000E+00  0.93827000000E+00 0. -1.
     999902    2    1    2    0    0 -0.10563042783E-01  0.80523670614E-02 -0.54777944384E-02  0.10295625117E+01  0.10294622581E+01 0.  0.
     999903    2    3    3    0    0  0.11780543515E+00 -0.16118176654E-01 -0.54981165307E-01  0.13854440580E+00  0.45096648118E-01 0.  0.
         14    1    1    2    0    0  0.10563042783E-01 -0.80523670614E-02  0.54777944384E-02  0.14367488299E-01  0.00000000000E+00 0. -1.
     999901    1    3    3    0    0 -0.12836847793E+00  0.24170543716E-01  0.49503370869E-01  0.89101810590E+00  0.88000000000E+00 0. -1.
        -11    1    4    4    0    0 -0.12647705795E-02 -0.45766585663E-02 -0.93663702470E-02  0.10513584586E-01  0.51100000000E-03 0. -1.
         11    1    4    4    0    0  0.11907020573E+00 -0.11541518088E-01 -0.45614795060E-01  0.12803082122E+00  0.51100000000E-03 0.  1.
</event>
<event>
 8    1  0.2025822E+004  0.1043930E+01  0.7957747E-01            NaN
         13   -1    0    0    0    0  0.00000000000E+00  0.00000000000E+00  0.74505805969E-08  0.10566000000E+00  0.10566000000E+00 0. -1.
     999900   -1    0    0    0    0 -0.00000000000E+00 -0.00000000000E+00 -0.74505805969E-08  0.93827000000E+00  0.93827000000E+00 0. -1.
     999902    2    1    2    0    0  0.10028098947E-01  0.24297239313E-02 -0.91654051369E-02  0.10301288776E+01  0.10300364234E+01 0.  0.
     999903    2    3    3    0    0 -0.17976851647E-01 -0.33474796665E-01 -0.12807631381E+00  0.14096454185E+00  0.44985894378E-01 0.  0.
         14    1    1    2    0    0 -0.10028098947E-01 -0.24297239313E-02  0.91654051369E-02  0.13801122353E-01  0.00000000000E+00 0.  1.
     999901    1    3    3    0    0  0.28004950594E-01  0.35904520596E-01  0.11891090867E+00  0.88916433580E+00  0.88000000000E+00 0.  1.
        -11    1    4    4    0    0  0.20695441092E-02 -0.30901528077E-01 -0.39963930294E-01  0.50562479131E-01  0.51100000000E-03 0.  1.
         11    1    4    4    0    0 -0.20046395756E-01 -0.25732685877E-02 -0.88112383513E-01  0.90402062716E-01  0.51100000000E-03 0. -1.
</event>
<event>
 8    1  0.2025822E+004  0.1043930E+01  0.7957747E-01            NaN
         13   -1    0    0    0    0  0.00000000000E+00  0.00000000000E+00  0.74505805969E-08  0.10566000000E+00  0.10566000000E+00 0. -1.
     999900   -1    0    0    0    0 -0.00000000000E+00 -0.00000000000E+00 -0.74505805969E-08  0.93827000000E+00  0.93827000000E+00 0. -1.
     999902    2    1    2    0    0 -0.64081975649E-02 -0.14527977865E-01 -0.40631202826E-03  0.10280462905E+01  0.10279235785E+01 0.  0.
     999903    2    3    3    0    0 -0.10085227401E+00 -0.59618783657E-01  0.60611721987E-01  0.13974675501E+00  0.46149692898E-01 0.  0.
         14    1    1    2    0    0  0.64081975649E-02  0.14527977865E-01  0.40631202826E-03  0.15883709464E-01  0.00000000000E+00 0. -1.
     999901    1    3    3    0    0  0.94444076449E-01  0.45090805792E-01 -0.61018034015E-01  0.88829953553E+00  0.88000000000E+00 0. -1.
        -11    1    4    4    0    0 -0.11048020926E-02 -0.10972784388E-02  0.15539186754E-01  0.15625365711E-01  0.51100000000E-03 0. -1.
         11    1    4    4    0    0 -0.99747471921E-01 -0.58521505218E-01  0.45072535233E-01  0.12412138930E+00  0.51100000000E-03 0.  1.
</event>
<event>
 8    1  0.2025822E+004  0.1043930E+01  0.7957747E-01            NaN
         13   -1    0    0    0    0  0.00000000000E+00  0.00000000000E+00  0.74505805969E-08  0.10566000000E+00  0.10566000000E+00 0.  1.
     999900   -1    0    0    0    0 -0.00000000000E+00 -0.00000000000E+00 -0.74505805969E-08  0.93827000000E+00  0.93827000000E+00 0.  1.
     999902    2    1    2    0    0  0.11612004427E-01  0.69177246751E-02  0.11406804173E-02  0.10303655349E+01  0.10302762449E+01 0.  0.
     999903    2    3    3    0    0 -0.11440982347E+00  0.27615722084E-01 -0.59161999817E-01  0.13910445001E+00  0.44695301525E-01 0.  0.
         14    1    1    2    0    0 -0.11612004427E-01 -0.69177246751E-02 -0.11406804173E-02  0.13564465095E-01  0.00000000000E+00 0.  1.
     999901    1    3    3    0    0  0.12602182789E+00 -0.20697997409E-01  0.60302680235E-01  0.89126108489E+00  0.88000000000E+00 0. -1.
        -11    1    4    4    0    0 -0.87005415759E-01  0.12562272774E-01 -0.22161371529E-01  0.90659475940E-01  0.51100000000E-03 0. -1.
         11    1    4    4    0    0 -0.27404407709E-01  0.15053449310E-01 -0.37000628289E-01  0.48444974071E-01  0.51100000000E-03 0.  1.
</event>
<event>
 8    1  0.2025822E+004  0.1043930E+01  0.7957747E-01            NaN
         13   -1    0    0    0    0  0.00000000000E+00  0.00000000000E+00  0.74505805969E-08  0.10566000000E+00  0.10566000000E+00 0. -1.
     999900   -1    0    0    0    0 -0.00000000000E+00 -0.00000000000E+00 -0.74505805969E-08  0.93827000000E+00  0.93827000000E+00 0. -1.
     999902    2    1    2    0    0  0.63963095282E-02 -0.38386929617E-02  0.92007149423E-02  0.10320851068E+01  0.10320171346E+01 0.  0.
     999903    2    3    3    0    0  0.89068601275E-01  0.88127421870E-01  0.50693410212E-01  0.14247051730E+00  0.45037409381E-01 0.  0.
         14    1    1    2    0    0 -0.63963095282E-02  0.38386929617E-02 -0.92007149423E-02  0.11844893190E-01  0.00000000000E+00 0.  1.
     999901    1    3    3    0    0 -0.82672291747E-01 -0.91966114832E-01 -0.41492695269E-01  0.88961458951E+00  0.88000000000E+00 0. -1.
        -11    1    4    4    0    0  0.30853673281E-01  0.55615649525E-01  0.39464076768E-01  0.74851346703E-01  0.51100000000E-03 0.  1.
         11    1    4    4    0    0  0.58214927994E-01  0.32511772344E-01  0.11229333443E-01  0.67619170602E-01  0.51100000000E-03 0. -1.
</event>
<event>
 8    1  0.2025822E+004  0.1043930E+01  0.7957747E-01            NaN
         13   -1    0    0    0    0  0.00000000000E+00  0.00000000000E+00  0.74505805969E-08  0.10566000000E+00  0.10566000000E+00 0. -1.
     999900   -1    0    0    0    0 -0.00000000000E+00 -0.00000000000E+00 -0.74505805969E-08  0.93827000000E+00  0.93827000000E+00 0. -1.
     999902    2    1    2    0    0  0.59407407616E-02 -0.11203971790E-02  0.13840029079E-01  0.10288272156E+01  0.10287163582E+01 0.  0.
     999903    2    3    3    0    0  0.92522144803E-01  0.68773466339E-01  0.67739562055E-01  0.14018406378E+00  0.42104471494E-01 0.  0.
         14    1    1    2    0    0 -0.59407407616E-02  0.11203971790E-02 -0.13840029079E-01  0.15102784364E-01  0.00000000000E+00 0.  1.
     999901    1    3    3    0    0 -0.86581404041E-01 -0.69893863518E-01 -0.53899532976E-01  0.88864315185E+00  0.88000000000E+00 0. -1.
        -11    1    4    4    0    0  0.74715428167E-02  0.26745522321E-01  0.13152187020E-01  0.30730897493E-01  0.51100000000E-03 0.  1.
         11    1    4    4    0    0  0.85050601986E-01  0.42027944018E-01  0.54587375034E-01  0.10945316629E+00  0.51100000000E-03 0. -1.
</event>
<event>
 8    1  0.2025822E+004  0.1043930E+01  0.7957747E-01            NaN
         13   -1    0    0    0    0  0.00000000000E+00  0.00000000000E+00  0.74505805969E-08  0.10566000000E+00  0.10566000000E+00 0.  1.
     999900   -1    0    0    0    0 -0.00000000000E+00 -0.00000000000E+00 -0.74505805969E-08  0.93827000000E+00  0.93827000000E+00 0. -1.
     999902    2    1    2    0    0  0.92315865983E-02  0.64894742679E-02  0.12134019351E-01  0.10273598493E+01  0.10272262118E+01 0.  0.
     999903    2    3    3    0    0 -0.57301044610E-01  0.15845768549E-01  0.11665219959E+00  0.13863144242E+00  0.45568004836E-01 0.  0.
         14    1    1    2    0    0 -0.92315865983E-02 -0.64894742679E-02 -0.12134019351E-01  0.16570150663E-01  0.00000000000E+00 0. -1.
     999901    1    3    3    0    0  0.66532631208E-01 -0.93562942814E-02 -0.10451818024E+00  0.88872840692E+00  0.88000000000E+00 0. -1.
        -11    1    4    4    0    0 -0.41290829906E-01 -0.27341939457E-02  0.10195500939E+00  0.11003405614E+00  0.51100000000E-03 0. -1.
         11    1    4    4    0    0 -0.16010214704E-01  0.18579962495E-01  0.14697190200E-01  0.28597386278E-01  0.51100000000E-03 0.  1.
</event>
<event>
 8    1  0.2025822E+004  0.1043930E+01  0.7957747E-01            NaN
         13   -1    0    0    0    0  0.00000000000E+00  0.00000000000E+00  0.74505805969E-08  0.10566000000E+00  0.10566000000E+00 0.  1.
     999900   -1    0    0    0    0 -0.00000000000E+00 -0.00000000000E+00 -0.74505805969E-08  0.93827000000E+00  0.93827000000E+00 0.  1.
     999902    2    1    2    0    0 -0.10349465742E-01 -0.63019694367E-02  0.63376642807E-02  0.10302554891E+01  0.10301647347E+01 0.  0.
     999903    2    3    3    0    0 -0.12197699211E+00 -0.39121628534E-01 -0.39830066040E-01  0.14139706730E+00  0.44696846171E-01 0.  0.
         14    1    1    2    0    0  0.10349465742E-01  0.63019694367E-02 -0.63376642807E-02  0.13674510904E-01  0.00000000000E+00 0.  1.
     999901    1    3    3    0    0  0.11162752637E+00  0.32819659097E-01  0.46167730320E-01  0.88885842179E+00  0.88000000000E+00 0.  1.
        -11    1    4    4    0    0 -0.95273314671E-01 -0.14909404195E-01 -0.14928038865E-01  0.97582797086E-01  0.51100000000E-03 0.  1.
         11    1    4    4    0    0 -0.26703677442E-01 -0.24212224339E-01 -0.24902027175E-01  0.43814270219E-01  0.51100000000E-03 0. -1.
</event>
<event>
 8    1  0.2025822E+004  0.1043930E+01  0.7957747E-01            NaN
         13   -1    0    0    0    0  0.00000000000E+00  0.00000000000E+00  0.74505805969E-08  0.10566000000E+00  0.10566000000E+00 0.  1.
     999900   -1    0    0    0    0 -0.00000000000E+00 -0.00000000000E+00 -0.74505805969E-08  0.93827000000E+00  0.93827000000E+00 0.  1.
     999902    2    1    2    0    0 -0.51201152635E-02 -0.12396163799E-01  0.77139989357E-02  0.10284578884E+01  0.10283415007E+01 0.  0.
     999903    2    3    3    0    0  0.67727551219E-01  0.72462604561E-01  0.84617383335E-01  0.13805240572E+00  0.45392894927E-01 0.  0.
         14    1    1    2    0    0  0.51201152635E-02  0.12396163799E-01 -0.77139989357E-02  0.15472111582E-01  0.00000000000E+00 0.  1.
     999901    1    3    3    0    0 -0.72847666483E-01 -0.84858768360E-01 -0.76903384399E-01  0.89040548269E+00  0.88000000000E+00 0.  1.
        -11    1    4    4    0    0  0.22631232061E-01  0.35946329744E-01  0.63297285130E-01  0.76230694031E-01  0.51100000000E-03 0. -1.
         11    1    4    4    0    0  0.45096319158E-01  0.36516274817E-01  0.21320098205E-01  0.61821711693E-01  0.51100000000E-03 0.  1.
</event>
<event>
 8    1  0.2025822E+004  0.1043930E+01  0.7957747E-01            NaN
         13   -1    0    0    0    0  0.00000000000E+00  0.00000000000E+00  0.74505805969E-08  0.10566000000E+00  0.10566000000E+00 0.  1.
     999900   -1    0    0    0    0 -0.00000000000E+00 -0.00000000000E+00 -0.74505805969E-08  0.93827000000E+00  0.93827000000E+00 0.  1.
     999902    2    1    2    0    0  0.10353620708E-01 -0.71152142648E-02  0.47807465469E-02  0.10304883010E+01  0.10304006304E+01 0.  0.
     999903    2    3    3    0    0  0.24632752116E-02  0.23309914660E-01  0.13160905939E+00  0.14084041164E+00  0.44335732668E-01 0.  0.
         14    1    1    2    0    0 -0.10353620708E-01  0.71152142648E-02 -0.47807465469E-02  0.13441699050E-01  0.00000000000E+00 0.  1.
     999901    1    3    3    0    0  0.78903454962E-02 -0.30425128925E-01 -0.12682831284E+00  0.88964788931E+00  0.88000000000E+00 0.  1.
        -11    1    4    4    0    0  0.14998916884E-02 -0.10194150344E-01  0.88681659519E-02  0.13604259063E-01  0.51100000000E-03 0.  1.
         11    1    4    4    0    0  0.96338352322E-03  0.33504065004E-01  0.12274089343E+00  0.12723615257E+00  0.51100000000E-03 0. -1.
</event>
<event>
 8    1  0.2025822E+004  0.1043930E+01  0.7957747E-01            NaN
         13   -1    0    0    0    0  0.00000000000E+00  0.00000000000E+00  0.74505805969E-08  0.10566000000E+00  0.10566000000E+00 0. -1.
     999900   -1    0    0    0    0 -0.00000000000E+00 -0.00000000000E+00 -0.74505805969E-08  0.93827000000E+00  0.93827000000E+00 0. -1.
     999902    2    1    2    0    0 -0.92147424327E-02  0.99487765580E-02  0.11358785083E-02  0.10303219196E+01  0.10302320506E+01 0.  0.
     999903    2    3    3    0    0 -0.10556196796E+00 -0.64079957749E-01 -0.48570506689E-01  0.14058388728E+00  0.46423756600E-01 0.  0.
         14    1    1    2    0    0  0.92147424327E-02 -0.99487765580E-02 -0.11358785083E-02  0.13608080434E-01  0.00000000000E+00 0.  1.
     999901    1    3    3    0    0  0.96347225531E-01  0.74028734307E-01  0.49706385197E-01  0.88973803229E+00  0.88000000000E+00 0.  1.
        -11    1    4    4    0    0 -0.64716684279E-01 -0.52389575414E-01 -0.51649765395E-01  0.97984061063E-01  0.51100000000E-03 0.  1.
         11    1    4    4    0    0 -0.40845283684E-01 -0.11690382336E-01  0.30792587059E-02  0.42599826215E-01  0.51100000000E-03 0. -1.
</event>
<event>
 8    1  0.2025822E+004  0.1043930E+01  0.7957747E-01            NaN
         13   -1    0    0    0    0  0.00000000000E+00  0.00000000000E+00  0.74505805969E-08  0.10566000000E+00  0.10566000000E+00 0.  1.
     999900   -1    0    0    0    0 -0.00000000000E+00 -0.00000000000E+00 -0.74505805969E-08  0.93827000000E+00  0.93827000000E+00 0. -1.
     999902    2    1    2    0    0 -0.66099301628E-02  0.95670824361E-03 -0.12191927485E-01  0.10300285769E+01  0.10299347648E+01 0.  0.
     999903    2    3    3    0    0 -0.90765282542E-01  0.97254880376E-01 -0.98322889721E-04  0.14070202467E+00  0.45827958797E-01 0.  0.
         14    1    1    2    0    0  0.66099301628E-02 -0.95670824361E-03  0.12191927485E-01  0.13901423064E-01  0.00000000000E+00 0.  1.
     999901    1    3    3    0    0  0.84155352379E-01 -0.96298172132E-01 -0.12093604595E-01  0.88932655226E+00  0.88000000000E+00 0. -1.
        -11    1    4    4    0    0 -0.29491914408E-01  0.36591963483E-01 -0.21767874699E-01  0.51796199637E-01  0.51100000000E-03 0.  1.
         11    1    4    4    0    0 -0.61273368134E-01  0.60662916893E-01  0.21669551809E-01  0.88905825034E-01  0.51100000000E-03 0. -1.
</event>
<event>
 8    1  0.2025822E+004  0.1043930E+01  0.7957747E-01            NaN
         13   -1    0    0    0    0  0.00000000000E+00  0.00000000000E+00  0.74505805969E-08  0.10566000000E+00  0.10566000000E+00 0.  1.
     999900   -1    0    0    0    0 -0.00000000000E+00 -0.00000000000E+00 -0.74505805969E-08  0.93827000000E+00  0.93827000000E+00 0. -1.
     999902    2    1    2    0    0 -0.26010939188E-02 -0.10692674556E-01  0.85610029239E-02  0.10299876275E+01  0.10298932581E+01 0.  0.
     999903    2    3    3    0    0 -0.89058885570E-01 -0.80869940437E-01  0.59339701490E-01  0.14151800250E+00  0.45107787515E-01 0.  0.
         14    1    1    2    0    0  0.26010939188E-02  0.10692674556E-01 -0.85610029239E-02  0.13942372460E-01  0.00000000000E+00 0. -1.
     999901    1    3    3    0    0  0.86457791651E-01  0.70177265881E-01 -0.50778698567E-01  0.88846962504E+00  0.88000000000E+00 0. -1.
        -11    1    4    4    0    0 -0.13506803836E-01 -0.13503839942E-01  0.30974995095E-01  0.36393665454E-01  0.51100000000E-03 0.  1.
         11    1    4    4    0    0 -0.75552081734E-01 -0.67366100496E-01  0.28364706395E-01  0.10512433705E+00  0.51100000000E-03 0. -1.
</event>
<event>
 8    1  0.2025822E+004  0.1043930E+01  0.7957747E-01            NaN
         13   -1    0    0    0    0  0.00000000000E+00  0.00000000000E+00  0.74505805969E-08  0.10566000000E+00  0.10566000000E+00 0.  1.
     999900   -1    0    0    0    0 -0.00000000000E+00 -0.00000000000E+00 -0.74505805969E-08  0.93827000000E+00  0.93827000000E+00 0.  1.
     999902    2    1    2    0    0 -0.31732383801E-02  0.32621797417E-02 -0.65852654980E-02  0.10359251902E+01  0.10358942623E+01 0.  0.
     999903    2    3    3    0    0 -0.10976379963E+00  0.31706099114E-01 -0.78765698735E-01  0.14610463567E+00  0.45707338968E-01 0.  0.
         14    1    1    2    0    0  0.31732383801E-02 -0.32621797417E-02  0.65852654980E-02  0.80048098143E-02  0.00000000000E+00 0.  1.
     999901    1    3    3    0    0  0.10659056125E+00 -0.28443919373E-01  0.72180433237E-01  0.88982055452E+00  0.88000000000E+00 0. -1.
        -11    1    4    4    0    0 -0.61178101141E-01  0.38261554295E-01 -0.34222118125E-01  0.79863139722E-01  0.51100000000E-03 0. -1.
         11    1    4    4    0    0 -0.48585698493E-01 -0.65554551811E-02 -0.44543580610E-01  0.66241495947E-01  0.51100000000E-03 0.  1.
</event>
<event>
 8    1  0.2025822E+004  0.1043930E+01  0.7957747E-01            NaN
         13   -1    0    0    0    0  0.00000000000E+00  0.00000000000E+00  0.74505805969E-08  0.10566000000E+00  0.10566000000E+00 0.  1.
     999900   -1    0    0    0    0 -0.00000000000E+00 -0.00000000000E+00 -0.74505805969E-08  0.93827000000E+00  0.93827000000E+00 0.  1.
     999902    2    1    2    0    0  0.82397565733E-02 -0.10713557959E-01 -0.40691975625E-03  0.10304081844E+01  0.10303194587E+01 0.  0.
     999903    2    3    3    0    0  0.16328746963E-01 -0.13379960846E+00  0.38504827731E-02  0.14179480783E+00  0.43840370773E-01 0.  0.
         14    1    1    2    0    0 -0.82397565733E-02  0.10713557959E-01  0.40691975625E-03  0.13521815567E-01  0.00000000000E+00 0.  1.
     999901    1    3    3    0    0 -0.80889903897E-02  0.12308605050E+00 -0.42574025294E-02  0.88861337660E+00  0.88000000000E+00 0.  1.
        -11    1    4    4    0    0  0.20229785026E-01 -0.30986663288E-01 -0.90538412613E-02  0.38100533677E-01  0.51100000000E-03 0. -1.
         11    1    4    4    0    0 -0.39010380630E-02 -0.10281294517E+00  0.12904324034E-01  0.10369427416E+00  0.51100000000E-03 0.  1.
</event>
<event>
 8    1  0.2025822E+004  0.1043930E+01  0.7957747E-01            NaN
         13   -1    0    0    0    0  0.00000000000E+00  0.00000000000E+00  0.74505805969E-08  0.10566000000E+00  0.10566000000E+00 0.  1.
     999900   -1    0    0    0    0 -0.00000000000E+00 -0.00000000000E+00 -0.74505805969E-08  0.93827000000E+00  0.93827000000E+00 0.  1.
     999902    2    1    2    0    0 -0.92583418286E-02 -0.84271370865E-02 -0.71784665381E-02  0.10294986482E+01  0.10293974950E+01 0.  0.
     999903    2    3    3    0    0 -0.23601894516E-01 -0.84872519593E-01 -0.10078909678E+00  0.14112227295E+00  0.44684000334E-01 0.  0.
         14    1    1    2    0    0  0.92583418286E-02  0.84271370865E-02  0.71784665381E-02  0.14431351798E-01  0.00000000000E+00 0.  1.
     999901    1    3    3    0    0  0.14343552687E-01  0.76445382507E-01  0.93610630243E-01  0.88837637525E+00  0.88000000000E+00 0. -1.
        -11    1    4    4    0    0 -0.32840029403E-01 -0.57203576692E-01 -0.50855215616E-01  0.83290040184E-01  0.51100000000E-03 0. -1.
         11    1    4    4    0    0  0.92381348876E-02 -0.27668942901E-01 -0.49933881165E-01  0.57832232766E-01  0.51100000000E-03 0.  1.
</event>
<event>
 8    1  0.2025822E+004  0.1043930E+01  0.7957747E-01            NaN
         13   -1    0    0    0    0  0.00000000000E+00  0.00000000000E+00  0.74505805969E-08  0.10566000000E+00  0.10566000000E+00 0.  1.
     999900   -1    0    0    0    0 -0.00000000000E+00 -0.00000000000E+00 -0.74505805969E-08  0.93827000000E+00  0.93827000000E+00 0. -1.
     999902    2    1    2    0    0 -0.46167086777E-02 -0.40813349655E-03  0.13002759743E-01  0.10301259306E+01  0.10300334366E+01 0.  0.
     999903    2    3    3    0    0 -0.93109145201E-01  0.85906353481E-01 -0.39539813163E-01  0.13993391535E+00  0.44372168670E-01 0.  0.
         14    1    1    2    0    0  0.46167086777E-02  0.40813349655E-03 -0.13002759743E-01  0.13804069433E-01  0.00000000000E+00 0. -1.
     999901    1    3    3    0    0  0.88492436524E-01 -0.86314486977E-01  0.52542572906E-01  0.89019201521E+00  0.88000000000E+00 0. -1.
        -11    1    4    4    0    0 -0.27982442947E-01  0.10543897393E-01 -0.25580623924E-01  0.39355054654E-01  0.51100000000E-03 0. -1.
         11    1    4    4    0    0 -0.65126702254E-01  0.75362456088E-01 -0.13959189239E-01  0.10057886070E+00  0.51100000000E-03 0.  1.
</event>
<event>
 8    1  0.2025822E+004  0.1043930E+01  0.7957747E-01            NaN
         13   -1    0    0    0    0  0.00000000000E+00  0.00000000000E+00  0.74505805969E-08  0.10566000000E+00  0.10566000000E+00 0.  1.
     999900   -1    0    0    0    0 -0.00000000000E+00 -0.00000000000E+00 -0.74505805969E-08  0.93827000000E+00  0.93827000000E+00 0.  1.
     999902    2    1    2    0    0 -0.55759071450E-02  0.12144796772E-01 -0.10617649621E-02  0.10305242485E+01  0.10304370493E+01 0.  0.
     999903    2    3    3    0    0 -0.79381490094E-01 -0.23390777609E-01  0.10425347620E+00  0.14046731707E+00  0.44874607714E-01 0.  0.
         14    1    1    2    0    0  0.55759071450E-02 -0.12144796772E-01  0.10617649621E-02  0.13405751525E-01  0.00000000000E+00 0.  1.
     999901    1    3    3    0    0  0.73805582949E-01  0.35535574381E-01 -0.10531524117E+00  0.89005693141E+00  0.88000000000E+00 0.  1.
        -11    1    4    4    0    0 -0.62721964033E-01 -0.67207305623E-02  0.47356620653E-01  0.78880438843E-01  0.51100000000E-03 0.  1.
         11    1    4    4    0    0 -0.16659526061E-01 -0.16670047047E-01  0.56896855550E-01  0.61586878226E-01  0.51100000000E-03 0. -1.
</event>
<event>
 8    1  0.2025822E+004  0.1043930E+01  0.7957747E-01            NaN
         13   -1    0    0    0    0  0.00000000000E+00  0.00000000000E+00  0.74505805969E-08  0.10566000000E+00  0.10566000000E+00 0.  1.
     999900   -1    0    0    0    0 -0.00000000000E+00 -0.00000000000E+00 -0.74505805969E-08  0.93827000000E+00  0.93827000000E+00 0.  1.
     999902    2    1    2    0    0  0.29329000470E-02 -0.14229246974E-02  0.12890443931E-01  0.10306337538E+01  0.10305479826E+01 0.  0.
     999903    2    3    3    0    0  0.62158012028E-01  0.16149168763E-01  0.11856416499E+00  0.14216128511E+00  0.45032828622E-01 0.  0.
         14    1    1    2    0    0 -0.29329000470E-02  0.14229246974E-02 -0.12890443931E-01  0.13296246166E-01  0.00000000000E+00 0. -1.
     999901    1    3    3    0    0 -0.59225111981E-01 -0.17572093461E-01 -0.10567372106E+00  0.88847246872E+00  0.88000000000E+00 0.  1.
        -11    1    4    4    0    0  0.26499221015E-01 -0.38800195110E-02  0.14747958600E-01  0.30578205795E-01  0.51100000000E-03 0. -1.
         11    1    4    4    0    0  0.35658791014E-01  0.20029188274E-01  0.10381620639E+00  0.11158307931E+00  0.51100000000E-03 0.  1.
</event>
<event>
 8    1  0.2025822E+004  0.1043930E+01  0.7957747E-01            NaN
         13   -1    0    0    0    0  0.00000000000E+00  0.00000000000E+00  0.74505805969E-08  0.10566000000E+00  0.10566000000E+00 0.  1.
     999900   -1    0    0    0    0 -0.00000000000E+00 -0.00000000000E+00 -0.74505805969E-08  0.93827000000E+00  0.93827000000E+00 0.  1.
     999902    2    1    2    0    0  0.95049357736E-02 -0.94520673588E-02 -0.29122467982E-02  0.10302126182E+01  0.10301212900E+01 0.  0.
     999903    2    3    3    0    0  0.75002864035E-01  0.78903435188E-01  0.69508711053E-01  0.14041406317E+00  0.55076914636E-01 0.  0.
         14    1    1    2    0    0 -0.95049357736E-02  0.94520673588E-02  0.29122467982E-02  0.13717381778E-01  0.00000000000E+00 0. -1.
     999901    1    3    3    0    0 -0.65497928261E-01 -0.88355502547E-01 -0.72420957851E-01  0.88979855505E+00  0.88000000000E+00 0. -1.
        -11    1    4    4    0    0  0.94764255456E-03  0.30062357335E-01  0.32519058087E-01  0.44298912117E-01  0.51100000000E-03 0. -1.
         11    1    4    4    0    0  0.74055221480E-01  0.48841077853E-01  0.36989652966E-01  0.96115151053E-01  0.51100000000E-03 0.  1.
</event>
<event>
 8    1  0.2025822E+004  0.1043930E+01  0.7957747E-01            NaN
         13   -1    0    0    0    0  0.00000000000E+00  0.00000000000E+00  0.74505805969E-08  0.10566000000E+00  0.10566000000E+00 0. -1.
     999900   -1    0    0    0    0 -0.00000000000E+00 -0.00000000000E+00 -0.74505805969E-08  0.93827000000E+00  0.93827000000E+00 0. -1.
     999902    2    1    2    0    0 -0.10624808784E-01  0.40855963008E-02 -0.74643115370E-02  0.10303177039E+01  0.10302277789E+01 0.  0.
     999903    2    3    3    0    0 -0.10989583283E+00  0.37035709031E-01  0.65575594621E-01  0.14111847197E+00  0.46535220050E-01 0.  0.
         14    1    1    2    0    0  0.10624808784E-01 -0.40855963008E-02  0.74643115370E-02  0.13612296116E-01  0.00000000000E+00 0. -1.
     999901    1    3    3    0    0  0.99271024043E-01 -0.32950112730E-01 -0.73039906158E-01  0.88919923191E+00  0.88000000000E+00 0.  1.
        -11    1    4    4    0    0 -0.83375663272E-01  0.53763009209E-02  0.46574558427E-01  0.95654882005E-01  0.51100000000E-03 0.  1.
         11    1    4    4    0    0 -0.26520169555E-01  0.31659408110E-01  0.19001036194E-01  0.45463589966E-01  0.51100000000E-03 0. -1.
</event>
<event>
 8    1  0.2840763E+004  0.1043930E+01  0.7957747E-01            NaN
         13   -1    0    0    0    0  0.00000000000E+00  0.00000000000E+00  0.74505805969E-08  0.10566000000E+00  0.10566000000E+00 0. -1.
     999900   -1    0    0    0    0 -0.00000000000E+00 -0.00000000000E+00 -0.74505805969E-08  0.93827000000E+00  0.93827000000E+00 0. -1.
     999902    2    1    2    0    0 -0.40851179935E-02  0.14182973760E-01  0.10072992225E-01  0.10260607497E+01  0.10259051379E+01 0.  0.
     999903    2    3    3    0    0  0.11444339981E+00  0.85954354688E-02 -0.56234497070E-01  0.13562438856E+00  0.45392541678E-01 0.  0.
         14    1    1    2    0    0  0.40851179935E-02 -0.14182973760E-01 -0.10072992225E-01  0.17869250294E-01  0.00000000000E+00 0.  1.
     999901    1    3    3    0    0 -0.11852851780E+00  0.55875382909E-02  0.66307489295E-01  0.89043636115E+00  0.88000000000E+00 0.  1.
        -11    1    4    4    0    0  0.61889128967E-01  0.26990661824E-01 -0.34774073954E-01  0.75949045091E-01  0.51100000000E-03 0. -1.
         11    1    4    4    0    0  0.52554270844E-01 -0.18395226355E-01 -0.21460423117E-01  0.59675343468E-01  0.51100000000E-03 0.  1.
</event>
<event>
 8    1  0.2025822E+004  0.1043930E+01  0.7957747E-01            NaN
         13   -1    0    0    0    0  0.00000000000E+00  0.00000000000E+00  0.74505805969E-08  0.10566000000E+00  0.10566000000E+00 0.  1.
     999900   -1    0    0    0    0 -0.00000000000E+00 -0.00000000000E+00 -0.74505805969E-08  0.93827000000E+00  0.93827000000E+00 0. -1.
     999902    2    1    2    0    0 -0.27278954339E-02  0.11587585572E-01  0.67866638056E-02  0.10302269945E+01  0.10301358590E+01 0.  0.
     999903    2    3    3    0    0 -0.25210905387E-01  0.51612129700E-01  0.12130382637E+00  0.14162042784E+00  0.45192096725E-01 0.  0.
         14    1    1    2    0    0  0.27278954339E-02 -0.11587585572E-01 -0.67866638056E-02  0.13703005455E-01  0.00000000000E+00 0. -1.
     999901    1    3    3    0    0  0.22483009953E-01 -0.40024544128E-01 -0.11451716257E+00  0.88860656671E+00  0.88000000000E+00 0. -1.
        -11    1    4    4    0    0 -0.17368236305E-01  0.47610884323E-01  0.12264055438E+00  0.13270048470E+00  0.51100000000E-03 0. -1.
         11    1    4    4    0    0 -0.78426690821E-02  0.40012453765E-02 -0.13367280110E-02  0.89199431427E-02  0.51100000000E-03 0.  1.
</event>
<event>
 8    1  0.2025822E+004  0.1043930E+01  0.7957747E-01            NaN
         13   -1    0    0    0    0  0.00000000000E+00  0.00000000000E+00  0.74505805969E-08  0.10566000000E+00  0.10566000000E+00 0. -1.
     999900   -1    0    0    0    0 -0.00000000000E+00 -0.00000000000E+00 -0.74505805969E-08  0.93827000000E+00  0.93827000000E+00 0.  1.
     999902    2    1    2    0    0 -0.87258118367E-02 -0.70117478300E-03  0.94875179118E-02  0.10310209166E+01  0.10309400982E+01 0.  0.
     999903    2    3    3    0    0  0.11554959884E+00  0.37419180602E-01 -0.51120941763E-01  0.13940949642E+00  0.45494528643E-01 0.  0.
         14    1    1    2    0    0  0.87258118367E-02  0.70117478300E-03 -0.94875179118E-02  0.12909083407E-01  0.00000000000E+00 0.  1.
     999901    1    3    3    0    0 -0.12427541068E+00 -0.38120355385E-01  0.60608459675E-01  0.89161142017E+00  0.88000000000E+00 0.  1.
        -11    1    4    4    0    0  0.75902049800E-01  0.91715777614E-02 -0.48734382456E-01  0.90667194491E-01  0.51100000000E-03 0. -1.
         11    1    4    4    0    0  0.39647549042E-01  0.28247602840E-01 -0.23865593078E-02  0.48742301932E-01  0.51100000000E-03 0.  1.
</event>
<event>
 8    1  0.2025822E+004  0.1043930E+01  0.7957747E-01            NaN
         13   -1    0    0    0    0  0.00000000000E+00  0.00000000000E+00  0.74505805969E-08  0.10566000000E+00  0.10566000000E+00 0. -1.
     999900   -1    0    0    0    0 -0.00000000000E+00 -0.00000000000E+00 -0.74505805969E-08  0.93827000000E+00  0.93827000000E+00 0. -1.
     999902    2    1    2    0    0 -0.13635914325E-01 -0.60709473040E-02  0.10539748365E-03  0.10290033236E+01  0.10288950550E+01 0.  0.
     999903    2    3    3    0    0 -0.72772222175E-01  0.99304700766E-01 -0.47555974825E-01  0.13946819974E+00  0.45084233198E-01 0.  0.
         14    1    1    2    0    0  0.13635914325E-01  0.60709473040E-02 -0.10539748365E-03  0.14926676431E-01  0.00000000000E+00 0. -1.
     999901    1    3    3    0    0  0.59136307850E-01 -0.10537564807E+00  0.47661372308E-01  0.88953512383E+00  0.88000000000E+00 0. -1.
        -11    1    4    4    0    0 -0.43733316499E-01  0.28728947157E-01 -0.32737138828E-01  0.61724685146E-01  0.51100000000E-03 0.  1.
         11    1    4    4    0    0 -0.29038905677E-01  0.70575753609E-01 -0.14818835997E-01  0.77743514595E-01  0.51100000000E-03 0. -1.
</event>
<event>
 8    1  0.2025822E+004  0.1043930E+01  0.7957747E-01            NaN
         13   -1    0    0    0    0  0.00000000000E+00  0.00000000000E+00  0.74505805969E-08  0.10566000000E+00  0.10566000000E+00 0.  1.
     999900   -1    0    0    0    0 -0.00000000000E+00 -0.00000000000E+00 -0.74505805969E-08  0.93827000000E+00  0.93827000000E+00 0. -1.
     999902    2    1    2    0    0  0.27751674190E-02 -0.78196617529E-02  0.20865901583E-01  0.10214748333E+01  0.10212279865E+01 0.  0.
     999903    2    3    3    0    0  0.62289073686E-01 -0.76393350146E-01 -0.74776818367E-01  0.13164800424E+00  0.44986129060E-01 0.  0.
         14    1    1    2    0    0 -0.27751674190E-02  0.78196617529E-02 -0.20865901583E-01  0.22455166733E-01  0.00000000000E+00 0. -1.
     999901    1    3    3    0    0 -0.59513906267E-01  0.68573688394E-01  0.95642719950E-01  0.88982682903E+00  0.88000000000E+00 0.  1.
        -11    1    4    4    0    0  0.17375431084E-01 -0.55554191740E-01 -0.47402817315E-01  0.75069714504E-01  0.51100000000E-03 0. -1.
         11    1    4    4    0    0  0.44913642601E-01 -0.20839158407E-01 -0.27374001052E-01  0.56578289735E-01  0.51100000000E-03 0.  1.
</event>
<event>
 8    1  0.2025822E+004  0.1043930E+01  0.7957747E-01            NaN
         13   -1    0    0    0    0  0.00000000000E+00  0.00000000000E+00  0.74505805969E-08  0.10566000000E+00  0.10566000000E+00 0. -1.
     999900   -1    0    0    0    0 -0.00000000000E+00 -0.00000000000E+00 -0.74505805969E-08  0.93827000000E+00  0.93827000000E+00 0.  1.
     999902    2    1    2    0    0 -0.99793588871E-02 -0.26634378548E-02 -0.40568793871E-02  0.10328331637E+01  0.10327735494E+01 0.  0.
     999903    2    3    3    0    0 -0.81652103901E-02  0.13356711873E+00  0.16552608341E-01  0.14211053200E+00  0.44883945840E-01 0.  0.
         14    1    1    2    0    0  0.99793588871E-02  0.26634378548E-02  0.40568793871E-02  0.11096836277E-01  0.00000000000E+00 0. -1.
     999901    1    3    3    0    0 -0.18141484970E-02 -0.13623055659E+00 -0.20609487728E-01  0.89072263173E+00  0.88000000000E+00 0.  1.
        -11    1    4    4    0    0  0.32491010318E-02  0.10949757223E+00 -0.21327878336E-02  0.10956771827E+00  0.51100000000E-03 0.  1.
         11    1    4    4    0    0 -0.11414311422E-01  0.24069546502E-01  0.18685396174E-01  0.32542813727E-01  0.51100000000E-03 0. -1.
</event>
<event>
 8    1  0.2025822E+004  0.1043930E+01  0.7957747E-01            NaN
         13   -1    0    0    0    0  0.00000000000E+00  0.00000000000E+00  0.74505805969E-08  0.10566000000E+00  0.10566000000E+00 0. -1.
     999900   -1    0    0    0    0 -0.00000000000E+00 -0.00000000000E+00 -0.74505805969E-08  0.93827000000E+00  0.93827000000E+00 0. -1.
     999902    2    1    2    0    0  0.36874015279E-02 -0.31551371368E-02 -0.14012886385E-01  0.10291005427E+01  0.10289936900E+01 0.  0.
     999903    2    3    3    0    0 -0.85811131736E-01 -0.88645809507E-01 -0.48373515213E-01  0.13977535166E+00  0.44446845611E-01 0.  0.
         14    1    1    2    0    0 -0.36874015279E-02  0.31551371368E-02  0.14012886385E-01  0.14829457348E-01  0.00000000000E+00 0. -1.
     999901    1    3    3    0    0  0.89498533264E-01  0.85490672370E-01  0.34360628828E-01  0.88932519099E+00  0.88000000000E+00 0. -1.
        -11    1    4    4    0    0 -0.51643231720E-02 -0.18513418039E-02  0.70710010868E-02  0.89642555558E-02  0.51100000000E-03 0. -1.
         11    1    4    4    0    0 -0.80646808564E-01 -0.86794467703E-01 -0.55444516300E-01  0.13081109610E+00  0.51100000000E-03 0.  1.
</event>
<event>
 8    1  0.2025822E+004  0.1043930E+01  0.7957747E-01            NaN
         13   -1    0    0    0    0  0.00000000000E+00  0.00000000000E+00  0.74505805969E-08  0.10566000000E+00  0.10566000000E+00 0.  1.
     999900   -1    0    0    0    0 -0.00000000000E+00 -0.00000000000E+00 -0.74505805969E-08  0.93827000000E+00  0.93827000000E+00 0. -1.
     999902    2    1    2    0    0 -0.10152203521E-01  0.95499480306E-02 -0.21517105373E-02  0.10298268584E+01  0.10297302850E+01 0.  0.
     999903    2    3    3    0    0  0.71816117763E-01 -0.13326729205E-01  0.10851359485E+00  0.13882239275E+00  0.46489783606E-01 0.  0.
         14    1    1    2    0    0  0.10152203521E-01 -0.95499480306E-02  0.21517105373E-02  0.14103141563E-01  0.00000000000E+00 0. -1.
     999901    1    3    3    0    0 -0.81968321283E-01  0.22876677236E-01 -0.11066530539E+00  0.89100446569E+00  0.88000000000E+00 0. -1.
        -11    1    4    4    0    0  0.42934780014E-01  0.21715361175E-02  0.93205597245E-01  0.10264334066E+00  0.51100000000E-03 0. -1.
         11    1    4    4    0    0  0.28881337749E-01 -0.15498265323E-01  0.15307997607E-01  0.36179052087E-01  0.51100000000E-03 0.  1.
</event>
<event>
 8    1  0.2025822E+004  0.1043930E+01  0.7957747E-01            NaN
         13   -1    0    0    0    0  0.00000000000E+00  0.00000000000E+00  0.74505805969E-08  0.10566000000E+00  0.10566000000E+00 0.  1.
     999900   -1    0    0    0    0 -0.00000000000E+00 -0.00000000000E+00 -0.74505805969E-08  0.93827000000E+00  0.93827000000E+00 0.  1.
     999902    2    1    2    0    0 -0.20106624233E-02  0.40652921982E-02  0.14378964989E-01  0.10288527324E+01  0.10287422520E+01 0.  0.
     999903    2    3    3    0    0  0.77990800360E-01  0.60452696124E-01 -0.84567651998E-01  0.13791490832E+00  0.46170778238E-01 0.  0.
         14    1    1    2    0    0  0.20106624233E-02 -0.40652921982E-02 -0.14378964989E-01  0.15077267597E-01  0.00000000000E+00 0. -1.
     999901    1    3    3    0    0 -0.80001462783E-01 -0.56387403926E-01  0.98946616987E-01  0.89093782408E+00  0.88000000000E+00 0. -1.
        -11    1    4    4    0    0  0.49012326004E-01  0.50636703321E-01 -0.80589883644E-01  0.10705734113E+00  0.51100000000E-03 0. -1.
         11    1    4    4    0    0  0.28978474355E-01  0.98159928035E-02 -0.39777683540E-02  0.30857567188E-01  0.51100000000E-03 0.  1.
</event>
<event>
 8    1  0.2025822E+004  0.1043930E+01  0.7957747E-01            NaN
         13   -1    0    0    0    0  0.00000000000E+00  0.00000000000E+00  0.74505805969E-08  0.10566000000E+00  0.10566000000E+00 0.  1.
     999900   -1    0    0    0    0 -0.00000000000E+00 -0.00000000000E+00 -0.74505805969E-08  0.93827000000E+00  0.93827000000E+00 0.  1.
     999902    2    1    2    0    0 -0.92594367533E-02 -0.11365820418E-01  0.24849366717E-02  0.10290607716E+01  0.10289533409E+01 0.  0.
     999903    2    3    3    0    0 -0.96805746459E-01 -0.49184113922E-01  0.77581153427E-01  0.14072861445E+00  0.44668534207E-01 0.  0.
         14    1    1    2    0    0  0.92594367533E-02  0.11365820418E-01 -0.24849366717E-02  0.14869228394E-01  0.00000000000E+00 0.  1.
     999901    1    3    3    0    0  0.87546309705E-01  0.37818293504E-01 -0.75096216756E-01  0.88833215716E+00  0.88000000000E+00 0. -1.
        -11    1    4    4    0    0 -0.48219707131E-01 -0.33318582689E-01  0.16117733813E-01  0.60789066224E-01  0.51100000000E-03 0.  1.
         11    1    4    4    0    0 -0.48586039328E-01 -0.15865531233E-01  0.61463419614E-01  0.79939548226E-01  0.51100000000E-03 0. -1.
</event>
<event>
 8    1  0.2025822E+004  0.1043930E+01  0.7957747E-01            NaN
         13   -1    0    0    0    0  0.00000000000E+00  0.00000000000E+00  0.74505805969E-08  0.10566000000E+00  0.10566000000E+00 0.  1.
     999900   -1    0    0    0    0 -0.00000000000E+00 -0.00000000000E+00 -0.74505805969E-08  0.93827000000E+00  0.93827000000E+00 0. -1.
     999902    2    1    2    0    0  0.75301388237E-02 -0.10055734581E-01  0.72572987192E-02  0.10294217550E+01  0.10293195133E+01 0.  0.
     999903    2    3    3    0    0 -0.38446775736E-01 -0.14668169688E-01  0.12615657481E+00  0.14022425775E+00  0.45321643044E-01 0.  0.
         14    1    1    2    0    0 -0.75301388237E-02  0.10055734581E-01 -0.72572987192E-02  0.14508245013E-01  0.00000000000E+00 0. -1.
     999901    1    3    3    0    0  0.45976914560E-01  0.46124351076E-02 -0.11889927609E+00  0.88919749723E+00  0.88000000000E+00 0. -1.
        -11    1    4    4    0    0 -0.46576662646E-01 -0.18133200670E-01  0.89480252551E-01  0.10249475688E+00  0.51100000000E-03 0.  1.
         11    1    4    4    0    0  0.81298869102E-02  0.34650309819E-02  0.36676322260E-01  0.37729500877E-01  0.51100000000E-03 0. -1.
</event>
<event>
 8    1  0.2025822E+004  0.1043930E+01  0.7957747E-01            NaN
         13   -1    0    0    0    0  0.00000000000E+00  0.00000000000E+00  0.74505805969E-08  0.10566000000E+00  0.10566000000E+00 0. -1.
     999900   -1    0    0    0    0 -0.00000000000E+00 -0.00000000000E+00 -0.74505805969E-08  0.93827000000E+00  0.93827000000E+00 0.  1.
     999902    2    1    2    0    0 -0.72986056942E-02  0.22517761272E-01 -0.63207486912E-02  0.10194295698E+01  0.10191351121E+01 0.  0.
     999903    2    3    3    0    0 -0.81382032985E-01 -0.42591347685E-01  0.80167971852E-01  0.12970610202E+00  0.44268623204E-01 0.  0.
         14    1    1    2    0    0  0.72986056942E-02 -0.22517761272E-01  0.63207486912E-02  0.24500430237E-01  0.00000000000E+00 0. -1.
     999901    1    3    3    0    0  0.74083427291E-01  0.65109108958E-01 -0.86488720543E-01  0.88972346774E+00  0.88000000000E+00 0.  1.
        -11    1    4    4    0    0 -0.23789429601E-01 -0.10736903291E-01  0.51859699990E-01  0.58059518230E-01  0.51100000000E-03 0.  1.
         11    1    4    4    0    0 -0.57592603384E-01 -0.31854444395E-01  0.28308271861E-01  0.71646583792E-01  0.51100000000E-03 0. -1.
</event>
<event>
 8    1  0.2025822E+004  0.1043930E+01  0.7957747E-01            NaN
         13   -1    0    0    0    0  0.00000000000E+00  0.00000000000E+00  0.74505805969E-08  0.10566000000E+00  0.10566000000E+00 0. -1.
     999900   -1    0    0    0    0 -0.00000000000E+00 -0.00000000000E+00 -0.74505805969E-08  0.93827000000E+00  0.93827000000E+00 0.  1.
     999902    2    1    2    0    0  0.61196160606E-02 -0.18634461873E-01 -0.20022554807E-02  0.10242144757E+01  0.10240247021E+01 0.  0.
     999903    2    3    3    0    0 -0.57951956928E-01 -0.62542408624E-01 -0.95609593089E-01  0.13584776772E+00  0.45204419210E-01 0.  0.
         14    1    1    2    0    0 -0.61196160606E-02  0.18634461873E-01  0.20022554807E-02  0.19715524264E-01  0.00000000000E+00 0. -1.
     999901    1    3    3    0    0  0.64071572988E-01  0.43907946751E-01  0.93607337609E-01  0.88836670801E+00  0.88000000000E+00 0. -1.
        -11    1    4    4    0    0 -0.19989602091E-01 -0.12676692049E-01 -0.58264863752E-01  0.62891479408E-01  0.51100000000E-03 0.  1.
         11    1    4    4    0    0 -0.37962354837E-01 -0.49865716575E-01 -0.37344729337E-01  0.72956288314E-01  0.51100000000E-03 0. -1.
</event>
<event>
 8    1  0.2025822E+004  0.1043930E+01  0.7957747E-01            NaN
         13   -1    0    0    0    0  0.00000000000E+00  0.00000000000E+00  0.74505805969E-08  0.10566000000E+00  0.10566000000E+00 0. -1.
     999900   -1    0    0    0    0 -0.00000000000E+00 -0.00000000000E+00 -0.74505805969E-08  0.93827000000E+00  0.93827000000E+00 0. -1.
     999902    2    1    2    0    0 -0.11354319552E-01 -0.30935363826E-02  0.66890070295E-02  0.10303936284E+01  0.10303047104E+01 0.  0.
     999903    2    3    3    0    0  0.82467587943E-01  0.36513522987E-01  0.96923584501E-01  0.13993669605E+00  0.45320605102E-01 0.  0.
         14    1    1    2    0    0  0.11354319552E-01  0.30935363826E-02 -0.66890070295E-02  0.13536371555E-01  0.00000000000E+00 0.  1.
     999901    1    3    3    0    0 -0.93821907495E-01 -0.39607059370E-01 -0.90234577472E-01  0.89045693239E+00  0.88000000000E+00 0. -1.
        -11    1    4    4    0    0  0.25911566147E-02  0.14875924491E-01  0.29681714311E-01  0.33305742860E-01  0.51100000000E-03 0. -1.
         11    1    4    4    0    0  0.79876431329E-01  0.21637598497E-01  0.67241870191E-01  0.10663095319E+00  0.51100000000E-03 0.  1.
</event>
<event>
 8    1  0.2025822E+004  0.1043930E+01  0.7957747E-01            NaN
         13   -1    0    0    0    0  0.00000000000E+00  0.00000000000E+00  0.74505805969E-08  0.10566000000E+00  0.10566000000E+00 0. -1.
     999900   -1    0    0    0    0 -0.00000000000E+00 -0.00000000000E+00 -0.74505805969E-08  0.93827000000E+00  0.93827000000E+00 0. -1.
     999902    2    1    2    0    0 -0.16103880730E-02 -0.12890283583E-01 -0.45082061559E-02  0.10301794843E+01  0.10300877114E+01 0.  0.
     999903    2    3    3    0    0 -0.95686988269E-01 -0.62330303977E-01 -0.70022259111E-01  0.14136746056E+00  0.45172730901E-01 0.  0.
         14    1    1    2    0    0  0.16103880730E-02  0.12890283583E-01  0.45082061559E-02  0.13750515748E-01  0.00000000000E+00 0. -1.
     999901    1    3    3    0    0  0.94076600196E-01  0.49440020394E-01  0.65514052955E-01  0.88881202369E+00  0.88000000000E+00 0.  1.
        -11    1    4    4    0    0 -0.27817815967E-01 -0.25244105480E-01 -0.47994150272E-01  0.60949120814E-01  0.51100000000E-03 0. -1.
         11    1    4    4    0    0 -0.67869172301E-01 -0.37086198496E-01 -0.22028108839E-01  0.80418339748E-01  0.51100000000E-03 0.  1.
</event>
<event>
 8    1  0.2025822E+004  0.1043930E+01  0.7957747E-01            NaN
         13   -1    0    0    0    0  0.00000000000E+00  0.00000000000E+00  0.74505805969E-08  0.10566000000E+00  0.10566000000E+00 0.  1.
     999900   -1    0    0    0    0 -0.00000000000E+00 -0.00000000000E+00 -0.74505805969E-08  0.93827000000E+00  0.93827000000E+00 0. -1.
     999902    2    1    2    0    0 -0.45607147718E-02  0.11422802091E-01 -0.60980803044E-02  0.10302016676E+01  0.10301101926E+01 0.  0.
     999903    2    3    3    0    0 -0.67089270787E-01 -0.17045951486E-01 -0.11416955517E+00  0.14093245419E+00  0.45119115697E-01 0.  0.
         14    1    1    2    0    0  0.45607147718E-02 -0.11422802091E-01  0.60980803044E-02  0.13728332391E-01  0.00000000000E+00 0. -1.
     999901    1    3    3    0    0  0.62528556015E-01  0.28468753577E-01  0.10807147486E+00  0.88926921341E+00  0.88000000000E+00 0.  1.
        -11    1    4    4    0    0 -0.33706801579E-01  0.14497890858E-01 -0.50557836067E-01  0.62471539286E-01  0.51100000000E-03 0.  1.
         11    1    4    4    0    0 -0.33382469207E-01 -0.31543842344E-01 -0.63611719101E-01  0.78460914908E-01  0.51100000000E-03 0. -1.
</event>
<event>
 8    1  0.2025822E+004  0.1043930E+01  0.7957747E-01            NaN
         13   -1    0    0    0    0  0.00000000000E+00  0.00000000000E+00  0.74505805969E-08  0.10566000000E+00  0.10566000000E+00 0.  1.
     999900   -1    0    0    0    0 -0.00000000000E+00 -0.00000000000E+00 -0.74505805969E-08  0.93827000000E+00  0.93827000000E+00 0.  1.
     999902    2    1    2    0    0  0.56655519657E-02  0.11049351798E-01  0.66430036442E-02  0.10298475232E+01  0.10297512345E+01 0.  0.
     999903    2    3    3    0    0 -0.67625800545E-01 -0.83132699673E-01  0.76678692140E-01  0.13903504082E+00  0.44348913105E-01 0.  0.
         14    1    1    2    0    0 -0.56655519657E-02 -0.11049351798E-01 -0.66430036442E-02  0.14082476759E-01  0.00000000000E+00 0. -1.
     999901    1    3    3    0    0  0.73291352511E-01  0.94182051471E-01 -0.70035688496E-01  0.89081248242E+00  0.88000000000E+00 0. -1.
        -11    1    4    4    0    0 -0.48313269572E-01 -0.38647990929E-01  0.63760456557E-01  0.88845349687E-01  0.51100000000E-03 0.  1.
         11    1    4    4    0    0 -0.19312530973E-01 -0.44484708744E-01  0.12918235583E-01  0.50189691134E-01  0.51100000000E-03 0. -1.
</event>
<event>
 8    1  0.2025822E+004  0.1043930E+01  0.7957747E-01            NaN
         13   -1    0    0    0    0  0.00000000000E+00  0.00000000000E+00  0.74505805969E-08  0.10566000000E+00  0.10566000000E+00 0. -1.
     999900   -1    0    0    0    0 -0.00000000000E+00 -0.00000000000E+00 -0.74505805969E-08  0.93827000000E+00  0.93827000000E+00 0. -1.
     999902    2    1    2    0    0 -0.91541351504E-02 -0.87724952849E-02  0.63222594735E-02  0.10297622257E+01  0.10296647589E+01 0.  0.
     999903    2    3    3    0    0 -0.76919694556E-01 -0.90835457202E-02  0.10993176917E+00  0.14109626016E+00  0.42708436469E-01 0.  0.
         14    1    1    2    0    0  0.91541351504E-02  0.87724952849E-02 -0.63222594735E-02  0.14167774304E-01  0.00000000000E+00 0.  1.
     999901    1    3    3    0    0  0.67765559406E-01  0.31105043532E-03 -0.10360950970E+00  0.88866596553E+00  0.88000000000E+00 0. -1.
        -11    1    4    4    0    0 -0.52902001354E-01 -0.25349758850E-01  0.81996385763E-01  0.10082113082E+00  0.51100000000E-03 0. -1.
         11    1    4    4    0    0 -0.24017693202E-01  0.16266213130E-01  0.27935383410E-01  0.40275129343E-01  0.51100000000E-03 0.  1.
</event>
<event>
 8    1  0.2025822E+004  0.1043930E+01  0.7957747E-01            NaN
         13   -1    0    0    0    0  0.00000000000E+00  0.00000000000E+00  0.74505805969E-08  0.10566000000E+00  0.10566000000E+00 0.  1.
     999900   -1    0    0    0    0 -0.00000000000E+00 -0.00000000000E+00 -0.74505805969E-08  0.93827000000E+00  0.93827000000E+00 0. -1.
     999902    2    1    2    0    0 -0.11857095255E-01 -0.82876309917E-02 -0.10548952334E-02  0.10294252305E+01  0.10293230381E+01 0.  0.
     999903    2    3    3    0    0 -0.65852009503E-01  0.77053840373E-02  0.11536258927E+00  0.13997356905E+00  0.43453572128E-01 0.  0.
         14    1    1    2    0    0  0.11857095255E-01  0.82876309917E-02  0.10548952334E-02  0.14504769536E-01  0.00000000000E+00 0.  1.
     999901    1    3    3    0    0  0.53994914247E-01 -0.15993015029E-01 -0.11641748450E+00  0.88945166141E+00  0.88000000000E+00 0. -1.
        -11    1    4    4    0    0 -0.34667797034E-01  0.26998591084E-02  0.21375811518E-01  0.40820727939E-01  0.51100000000E-03 0.  1.
         11    1    4    4    0    0 -0.31184212468E-01  0.50055249289E-02  0.93986777752E-01  0.99152841111E-01  0.51100000000E-03 0. -1.
</event>
<event>
 8    1  0.2025822E+004  0.1043930E+01  0.7957747E-01            NaN
         13   -1    0    0    0    0  0.00000000000E+00  0.00000000000E+00  0.74505805969E-08  0.10566000000E+00  0.10566000000E+00 0.  1.
     999900   -1    0    0    0    0 -0.00000000000E+00 -0.00000000000E+00 -0.74505805969E-08  0.93827000000E+00  0.93827000000E+00 0.  1.
     999902    2    1    2    0    0 -0.10081245702E-01 -0.37000226030E-02  0.70200452292E-02  0.10311002410E+01  0.10310204189E+01 0.  0.
     999903    2    3    3    0    0 -0.53666925889E-01  0.11194582239E+00 -0.48962664151E-01  0.14070272482E+00  0.44585964236E-01 0.  0.
         14    1    1    2    0    0  0.10081245702E-01  0.37000226030E-02 -0.70200452292E-02  0.12829759046E-01  0.00000000000E+00 0. -1.
     999901    1    3    3    0    0  0.43585680187E-01 -0.11564584499E+00  0.55982709380E-01  0.89039751613E+00  0.88000000000E+00 0.  1.
        -11    1    4    4    0    0 -0.49653959698E-01  0.10530732265E+00 -0.30032936840E-01  0.12023887197E+00  0.51100000000E-03 0.  1.
         11    1    4    4    0    0 -0.40129661914E-02  0.66384997453E-02 -0.18929727311E-01  0.20463852853E-01  0.51100000000E-03 0. -1.
</event>
<event>
 8    1  0.2025822E+004  0.1043930E+01  0.7957747E-01            NaN
         13   -1    0    0    0    0  0.00000000000E+00  0.00000000000E+00  0.74505805969E-08  0.10566000000E+00  0.10566000000E+00 0.  1.
     999900   -1    0    0    0    0 -0.00000000000E+00 -0.00000000000E+00 -0.74505805969E-08  0.93827000000E+00  0.93827000000E+00 0.  1.
     999902    2    1    2    0    0  0.53560571760E-02 -0.14097584855E-01 -0.18074440499E-02  0.10287413167E+01  0.10286291851E+01 0.  0.
     999903    2    3    3    0    0 -0.35056503895E-02 -0.12842189598E+00  0.34996094512E-01  0.14053915589E+00  0.44967263149E-01 0.  0.
         14    1    1    2    0    0 -0.53560571760E-02  0.14097584855E-01  0.18074440499E-02  0.15188683327E-01  0.00000000000E+00 0. -1.
     999901    1    3    3    0    0  0.88617075656E-02  0.11432431112E+00 -0.36803538562E-01  0.88820216079E+00  0.88000000000E+00 0.  1.
        -11    1    4    4    0    0 -0.17659931227E-01 -0.84271965949E-01  0.37913032316E-01  0.94081329477E-01  0.51100000000E-03 0. -1.
         11    1    4    4    0    0  0.14154280837E-01 -0.44149930029E-01 -0.29169378039E-02  0.46457826409E-01  0.51100000000E-03 0.  1.
</event>
<event>
 8    1  0.2025822E+004  0.1043930E+01  0.7957747E-01            NaN
         13   -1    0    0    0    0  0.00000000000E+00  0.00000000000E+00  0.74505805969E-08  0.10566000000E+00  0.10566000000E+00 0.  1.
     999900   -1    0    0    0    0 -0.00000000000E+00 -0.00000000000E+00 -0.74505805969E-08  0.93827000000E+00  0.93827000000E+00 0. -1.
     999902    2    1    2    0    0  0.13489993320E-01  0.58169391394E-03 -0.23287903497E-02  0.10302281187E+01  0.10301369981E+01 0.  0.
     999903    2    3    3    0    0  0.13890613835E-01 -0.25903365428E-01 -0.12995043219E+00  0.14062770144E+00  0.45001134357E-01 0.  0.
         14    1    1    2    0    0 -0.13489993320E-01 -0.58169391394E-03  0.23287903497E-02  0.13701881333E-01  0.00000000000E+00 0.  1.
     999901    1    3    3    0    0 -0.40062051538E-03  0.26485059342E-01  0.12762164184E+00  0.88960041723E+00  0.88000000000E+00 0. -1.
        -11    1    4    4    0    0  0.18598419622E-01 -0.32447386762E-01 -0.63567754565E-01  0.73755370391E-01  0.51100000000E-03 0.  1.
         11    1    4    4    0    0 -0.47078057869E-02  0.65440213343E-02 -0.66382677622E-01  0.66872331049E-01  0.51100000000E-03 0. -1.
</event>
<event>
 8    1  0.2025822E+004  0.1043930E+01  0.7957747E-01            NaN
         13   -1    0    0    0    0  0.00000000000E+00  0.00000000000E+00  0.74505805969E-08  0.10566000000E+00  0.10566000000E+00 0. -1.
     999900   -1    0    0    0    0 -0.00000000000E+00 -0.00000000000E+00 -0.74505805969E-08  0.93827000000E+00  0.93827000000E+00 0. -1.
     999902    2    1    2    0    0 -0.12087094159E-01  0.33093371614E-02 -0.22699637988E-02  0.10311941336E+01  0.10311154828E+01 0.  0.
     999903    2    3    3    0    0  0.10585369518E+00  0.57406450243E-01  0.54693946283E-01  0.13985726434E+00  0.45476601837E-01 0.  0.
         14    1    1    2    0    0  0.12087094159E-01 -0.33093371614E-02  0.22699637988E-02  0.12735866413E-01  0.00000000000E+00 0. -1.
     999901    1    3    3    0    0 -0.11794078934E+00 -0.54097113081E-01 -0.56963910082E-01  0.89133686925E+00  0.88000000000E+00 0. -1.
        -11    1    4    4    0    0  0.34062149667E-01  0.26981433168E-01  0.42775835026E-01  0.60977544710E-01  0.51100000000E-03 0. -1.
         11    1    4    4    0    0  0.71791545514E-01  0.30425017075E-01  0.11918111257E-01  0.78879719626E-01  0.51100000000E-03 0.  1.
</event>
<event>
 8    1  0.2025822E+004  0.1043930E+01  0.7957747E-01            NaN
         13   -1    0    0    0    0  0.00000000000E+00  0.00000000000E+00  0.74505805969E-08  0.10566000000E+00  0.10566000000E+00 0. -1.
     999900   -1    0    0    0    0 -0.00000000000E+00 -0.00000000000E+00 -0.74505805969E-08  0.93827000000E+00  0.93827000000E+00 0. -1.
     999902    2    1    2    0    0 -0.10728627310E-01 -0.79442377354E-02  0.49271786241E-02  0.10297000511E+01  0.10296017209E+01 0.  0.
     999903    2    3    3    0    0 -0.59769716741E-01  0.34684808998E-01  0.11381457126E+00  0.14061134439E+00  0.45192239676E-01 0.  0.
         14    1    1    2    0    0  0.10728627310E-01  0.79442377354E-02 -0.49271786241E-02  0.14229948923E-01  0.00000000000E+00 0.  1.
     999901    1    3    3    0    0  0.49041089431E-01 -0.42629046734E-01 -0.10888739263E+00  0.88908870668E+00  0.88000000000E+00 0. -1.
        -11    1    4    4    0    0 -0.23701593108E-01 -0.21822541204E-02  0.66444269776E-01  0.70580662054E-01  0.51100000000E-03 0. -1.
         11    1    4    4    0    0 -0.36068123634E-01  0.36867063119E-01  0.47370301481E-01  0.70030682339E-01  0.51100000000E-03 0.  1.
</event>
<event>
 8    1  0.2025822E+004  0.1043930E+01  0.7957747E-01            NaN
         13   -1    0    0    0    0  0.00000000000E+00  0.00000000000E+00  0.74505805969E-08  0.10566000000E+00  0.10566000000E+00 0.  1.
     999900   -1    0    0    0    0 -0.00000000000E+00 -0.00000000000E+00 -0.74505805969E-08  0.93827000000E+00  0.93827000000E+00 0.  1.
     999902    2    1    2    0    0 -0.12977076968E-01  0.43657791765E-03  0.35128998828E-02  0.10304787699E+01  0.10303909741E+01 0.  0.
     999903    2    3    3    0    0  0.39377320403E-01 -0.57533176688E-01  0.11271972733E+00  0.14029474026E+00  0.46002580743E-01 0.  0.
         14    1    1    2    0    0  0.12977076968E-01 -0.43657791765E-03 -0.35128998828E-02  0.13451230148E-01  0.00000000000E+00 0.  1.
     999901    1    3    3    0    0 -0.52354397371E-01  0.57969754606E-01 -0.10920682744E+00  0.89018402959E+00  0.88000000000E+00 0.  1.
        -11    1    4    4    0    0  0.33989030746E-01 -0.11602154350E-01  0.36990337580E-01  0.51559774940E-01  0.51100000000E-03 0.  1.
         11    1    4    4    0    0  0.53882896571E-02 -0.45931022339E-01  0.75729389747E-01  0.88734965323E-01  0.51100000000E-03 0. -1.
</event>
<event>
 8    1  0.2025822E+004  0.1043930E+01  0.7957747E-01            NaN
         13   -1    0    0    0    0  0.00000000000E+00  0.00000000000E+00  0.74505805969E-08  0.10566000000E+00  0.10566000000E+00 0.  1.
     999900   -1    0    0    0    0 -0.00000000000E+00 -0.00000000000E+00 -0.74505805969E-08  0.93827000000E+00  0.93827000000E+00 0. -1.
     999902    2    1    2    0    0 -0.49994788273E-02  0.11753787581E-02  0.13429428582E-01  0.10295520358E+01  0.10294516348E+01 0.  0.
     999903    2    3    3    0    0  0.15653713030E-01 -0.99132107183E-01  0.87355365740E-01  0.14053393119E+00  0.45239501375E-01 0.  0.
         14    1    1    2    0    0  0.49994788273E-02 -0.11753787581E-02 -0.13429428582E-01  0.14377964244E-01  0.00000000000E+00 0. -1.
     999901    1    3    3    0    0 -0.20653191857E-01  0.10030748594E+00 -0.73925937159E-01  0.88901810457E+00  0.88000000000E+00 0. -1.
        -11    1    4    4    0    0  0.16014444019E-02 -0.75843892446E-02  0.31346625221E-01  0.32294885325E-01  0.51100000000E-03 0. -1.
         11    1    4    4    0    0  0.14052268628E-01 -0.91547717938E-01  0.56008740519E-01  0.10823904586E+00  0.51100000000E-03 0.  1.
</event>
<event>
 8    1  0.2025822E+004  0.1043930E+01  0.7957747E-01            NaN
         13   -1    0    0    0    0  0.00000000000E+00  0.00000000000E+00  0.74505805969E-08  0.10566000000E+00  0.10566000000E+00 0.  1.
     999900   -1    0    0    0    0 -0.00000000000E+00 -0.00000000000E+00 -0.74505805969E-08  0.93827000000E+00  0.93827000000E+00 0.  1.
     999902    2    1    2    0    0  0.60601269076E-02  0.35404807838E-02 -0.12727874980E-01  0.10293952505E+01  0.10292926322E+01 0.  0.
     999903    2    3    3    0    0  0.11382733039E+00  0.44229681553E-01  0.51118411969E-01  0.13959430107E+00  0.44278109431E-01 0.  0.
         14    1    1    2    0    0 -0.60601269076E-02 -0.35404807838E-02  0.12727874980E-01  0.14534749527E-01  0.00000000000E+00 0.  1.
     999901    1    3    3    0    0 -0.10776720348E+00 -0.40689200769E-01 -0.63846286949E-01  0.88980094941E+00  0.88000000000E+00 0. -1.
        -11    1    4    4    0    0  0.82386531019E-01  0.20551240494E-01  0.15111437117E-01  0.86246800705E-01  0.51100000000E-03 0.  1.
         11    1    4    4    0    0  0.31440799370E-01  0.23678441059E-01  0.36006974851E-01  0.53347500363E-01  0.51100000000E-03 0. -1.
</event>
<event>
 8    1  0.2025822E+004  0.1043930E+01  0.7957747E-01            NaN
         13   -1    0    0    0    0  0.00000000000E+00  0.00000000000E+00  0.74505805969E-08  0.10566000000E+00  0.10566000000E+00 0.  1.
     999900   -1    0    0    0    0 -0.00000000000E+00 -0.00000000000E+00 -0.74505805969E-08  0.93827000000E+00  0.93827000000E+00 0.  1.
     999902    2    1    2    0    0 -0.11664277405E-01 -0.11686411902E-02 -0.61477299108E-02  0.10306930943E+01  0.10306080918E+01 0.  0.
     999903    2    3    3    0    0  0.28713595472E-01 -0.46074750872E-01  0.12045635039E+00  0.13958394023E+00  0.45017671972E-01 0.  0.
         14    1    1    2    0    0  0.11664277405E-01  0.11686411902E-02  0.61477299108E-02  0.13236905706E-01  0.00000000000E+00 0.  1.
     999901    1    3    3    0    0 -0.40377872877E-01  0.44906109682E-01 -0.12660408030E+00  0.89110915406E+00  0.88000000000E+00 0.  1.
        -11    1    4    4    0    0  0.35176740201E-01 -0.24759441526E-01  0.51425513789E-01  0.67046831285E-01  0.51100000000E-03 0.  1.
         11    1    4    4    0    0 -0.64631447286E-02 -0.21315309345E-01  0.69030836596E-01  0.72537108948E-01  0.51100000000E-03 0. -1.
</event>
<event>
 8    1  0.2025822E+004  0.1043930E+01  0.7957747E-01            NaN
         13   -1    0    0    0    0  0.00000000000E+00  0.00000000000E+00  0.74505805969E-08  0.10566000000E+00  0.10566000000E+00 0.  1.
     999900   -1    0    0    0    0 -0.00000000000E+00 -0.00000000000E+00 -0.74505805969E-08  0.93827000000E+00  0.93827000000E+00 0. -1.
     999902    2    1    2    0    0  0.27720622418E-02  0.19084587304E-02  0.14220119643E-01  0.10293170487E+01  0.10292133153E+01 0.  0.
     999903    2    3    3    0    0 -0.83590698960E-01  0.84560952281E-01 -0.54834024626E-01  0.13855420928E+00  0.45304956109E-01 0.  0.
         14    1    1    2    0    0 -0.27720622418E-02 -0.19084587304E-02 -0.14220119643E-01  0.14612951326E-01  0.00000000000E+00 0. -1.
     999901    1    3    3    0    0  0.86362761202E-01 -0.82652493550E-01  0.69054144269E-01  0.89076283940E+00  0.88000000000E+00 0.  1.
        -11    1    4    4    0    0 -0.64310323016E-01  0.78581315978E-01 -0.59686992552E-01  0.11778641292E+00  0.51100000000E-03 0.  1.
         11    1    4    4    0    0 -0.19280375945E-01  0.59796363027E-02  0.48529679255E-02  0.20767796358E-01  0.51100000000E-03 0. -1.
</event>
<event>
 8    1  0.2025822E+004  0.1043930E+01  0.7957747E-01            NaN
         13   -1    0    0    0    0  0.00000000000E+00  0.00000000000E+00  0.74505805969E-08  0.10566000000E+00  0.10566000000E+00 0. -1.
     999900   -1    0    0    0    0 -0.00000000000E+00 -0.00000000000E+00 -0.74505805969E-08  0.93827000000E+00  0.93827000000E+00 0. -1.
     999902    2    1    2    0    0  0.22734628848E-02 -0.11880075507E-01  0.16222565072E-01  0.10236944757E+01  0.10234944568E+01 0.  0.
     999903    2    3    3    0    0 -0.11352292760E+00 -0.42240589569E-01 -0.36790459091E-01  0.13400860661E+00  0.43966422059E-01 0.  0.
         14    1    1    2    0    0 -0.22734628848E-02  0.11880075507E-01 -0.16222565072E-01  0.20235524333E-01  0.00000000000E+00 0.  1.
     999901    1    3    3    0    0  0.11579639048E+00  0.30360514062E-01  0.53013024163E-01  0.88968586905E+00  0.88000000000E+00 0.  1.
        -11    1    4    4    0    0 -0.48787648676E-01 -0.33948506867E-01 -0.34449280680E-01  0.68700435532E-01  0.51100000000E-03 0.  1.
         11    1    4    4    0    0 -0.64735278922E-01 -0.82920827016E-02 -0.23411784107E-02  0.65308171081E-01  0.51100000000E-03 0. -1.
</event>
<event>
 8    1  0.2025822E+004  0.1043930E+01  0.7957747E-01            NaN
         13   -1    0    0    0    0  0.00000000000E+00  0.00000000000E+00  0.74505805969E-08  0.10566000000E+00  0.10566000000E+00 0. -1.
     999900   -1    0    0    0    0 -0.00000000000E+00 -0.00000000000E+00 -0.74505805969E-08  0.93827000000E+00  0.93827000000E+00 0.  1.
     999902    2    1    2    0    0 -0.91106743882E-02  0.84936332269E-02  0.40011995275E-02  0.10308473477E+01  0.10307643273E+01 0.  0.
     999903    2    3    3    0    0  0.12712590743E-01  0.11234943922E+00 -0.71690122100E-01  0.14124549322E+00  0.45020098774E-01 0.  0.
         14    1    1    2    0    0  0.91106743882E-02 -0.84936332269E-02 -0.40011995275E-02  0.13082652287E-01  0.00000000000E+00 0.  1.
     999901    1    3    3    0    0 -0.21823265132E-01 -0.10385580599E+00  0.75691321627E-01  0.88960185449E+00  0.88000000000E+00 0.  1.
        -11    1    4    4    0    0 -0.16225922016E-02  0.88418592114E-01 -0.34899944057E-01  0.95072327483E-01  0.51100000000E-03 0.  1.
         11    1    4    4    0    0  0.14335182945E-01  0.23930847104E-01 -0.36790178043E-01  0.46173165742E-01  0.51100000000E-03 0. -1.
</event>
<event>
 8    1  0.2025822E+004  0.1043930E+01  0.7957747E-01            NaN
         13   -1    0    0    0    0  0.00000000000E+00  0.00000000000E+00  0.74505805969E-08  0.10566000000E+00  0.10566000000E+00 0.  1.
     999900   -1    0    0    0    0 -0.00000000000E+00 -0.00000000000E+00 -0.74505805969E-08  0.93827000000E+00  0.93827000000E+00 0.  1.
     999902    2    1    2    0    0  0.12537032787E-02 -0.42133724271E-02  0.12972931513E-01  0.10302325100E+01  0.10301414483E+01 0.  0.
     999903    2    3    3    0    0  0.65560064001E-01  0.91111082376E-02 -0.11284318352E+00  0.13886135019E+00  0.46559169073E-01 0.  0.
         14    1    1    2    0    0 -0.12537032787E-02  0.42133724271E-02 -0.12972931513E-01  0.13697489959E-01  0.00000000000E+00 0. -1.
     999901    1    3    3    0    0 -0.64306360722E-01 -0.13324480665E-01  0.12581611503E+00  0.89137115985E+00  0.88000000000E+00 0. -1.
        -11    1    4    4    0    0  0.28060032721E-01 -0.17689944609E-01 -0.33807198577E-01  0.47365466040E-01  0.51100000000E-03 0. -1.
         11    1    4    4    0    0  0.37500031280E-01  0.26801052847E-01 -0.79035984941E-01  0.91495884149E-01  0.51100000000E-03 0.  1.
</event>
<event>
 8    1  0.2025822E+004  0.1043930E+01  0.7957747E-01            NaN
         13   -1    0    0    0    0  0.00000000000E+00  0.00000000000E+00  0.74505805969E-08  0.10566000000E+00  0.10566000000E+00 0. -1.
     999900   -1    0    0    0    0 -0.00000000000E+00 -0.00000000000E+00 -0.74505805969E-08  0.93827000000E+00  0.93827000000E+00 0. -1.
     999902    2    1    2    0    0  0.74360350179E-02 -0.40718228201E-02 -0.10519551266E-01  0.10304194368E+01  0.10303308597E+01 0.  0.
     999903    2    3    3    0    0 -0.10668428277E+00  0.92010595626E-03 -0.79556923422E-01  0.14035509926E+00  0.44585502582E-01 0.  0.
         14    1    1    2    0    0 -0.74360350179E-02  0.40718228201E-02  0.10519551266E-01  0.13510563153E-01  0.00000000000E+00 0. -1.
     999901    1    3    3    0    0  0.11412031778E+00 -0.49919287763E-02  0.69037372156E-01  0.89006433758E+00  0.88000000000E+00 0.  1.
        -11    1    4    4    0    0 -0.52775074409E-01  0.66106220086E-02 -0.13452932899E-01  0.54864846001E-01  0.51100000000E-03 0.  1.
         11    1    4    4    0    0 -0.53909208358E-01 -0.56905160523E-02 -0.66103990523E-01  0.85490253262E-01  0.51100000000E-03 0. -1.
</event>
<event>
 8    1  0.2025822E+004  0.1043930E+01  0.7957747E-01            NaN
         13   -1    0    0    0    0  0.00000000000E+00  0.00000000000E+00  0.74505805969E-08  0.10566000000E+00  0.10566000000E+00 0. -1.
     999900   -1    0    0    0    0 -0.00000000000E+00 -0.00000000000E+00 -0.74505805969E-08  0.93827000000E+00  0.93827000000E+00 0. -1.
     999902    2    1    2    0    0  0.44654555740E-02 -0.12626648215E-01  0.19449358566E-02  0.10303965114E+01  0.10303076314E+01 0.  0.
     999903    2    3    3    0    0  0.17473648762E-01 -0.12915867055E+00  0.34324277255E-01  0.14202871195E+00  0.44796299277E-01 0.  0.
         14    1    1    2    0    0 -0.44654555740E-02  0.12626648215E-01 -0.19449358566E-02  0.13533488616E-01  0.00000000000E+00 0.  1.
     999901    1    3    3    0    0 -0.13008193188E-01  0.11653202234E+00 -0.32379341399E-01  0.88836779943E+00  0.88000000000E+00 0.  1.
        -11    1    4    4    0    0  0.15717580715E-01 -0.20641546381E-01  0.19561815030E-01  0.32496792285E-01  0.51100000000E-03 0. -1.
         11    1    4    4    0    0  0.17560680475E-02 -0.10851712417E+00  0.14762462225E-01  0.10953191967E+00  0.51100000000E-03 0.  1.
</event>
<event>
 8    1  0.2025822E+004  0.1043930E+01  0.7957747E-01            NaN
         13   -1    0    0    0    0  0.00000000000E+00  0.00000000000E+00  0.74505805969E-08  0.10566000000E+00  0.10566000000E+00 0.  1.
     999900   -1    0    0    0    0 -0.00000000000E+00 -0.00000000000E+00 -0.74505805969E-08  0.93827000000E+00  0.93827000000E+00 0.  1.
     999902    2    1    2    0    0  0.96023547100E-02 -0.46583435352E-02 -0.96545621682E-02  0.10295384764E+01  0.10294378847E+01 0.  0.
     999903    2    3    3    0    0  0.10284335238E+00 -0.54157467831E-01  0.67498403680E-01  0.13987751453E+00  0.38728518198E-01 0.  0.
         14    1    1    2    0    0 -0.96023547100E-02  0.46583435352E-02  0.96545621682E-02  0.14391523586E-01  0.00000000000E+00 0.  1.
     999901    1    3    3    0    0 -0.93240997672E-01  0.49499124296E-01 -0.77152965849E-01  0.88966096188E+00  0.88000000000E+00 0.  1.
        -11    1    4    4    0    0  0.29397182687E-01 -0.28471110465E-01  0.40334136183E-01  0.57462180116E-01  0.51100000000E-03 0.  1.
         11    1    4    4    0    0  0.73446169696E-01 -0.25686357366E-01  0.27164267497E-01  0.82415334419E-01  0.51100000000E-03 0. -1.
</event>
<event>
 8    1  0.2025822E+004  0.1043930E+01  0.7957747E-01            NaN
         13   -1    0    0    0    0  0.00000000000E+00  0.00000000000E+00  0.74505805969E-08  0.10566000000E+00  0.10566000000E+00 0.  1.
     999900   -1    0    0    0    0 -0.00000000000E+00 -0.00000000000E+00 -0.74505805969E-08  0.93827000000E+00  0.93827000000E+00 0.  1.
     999902    2    1    2    0    0  0.50433211740E-02 -0.99441235966E-02  0.85824774315E-02  0.10298594776E+01  0.10297633534E+01 0.  0.
     999903    2    3    3    0    0 -0.11141822595E+00  0.66194593903E-01  0.19564205190E-01  0.13885948060E+00  0.45863404702E-01 0.  0.
         14    1    1    2    0    0 -0.50433211740E-02  0.99441235966E-02 -0.85824774315E-02  0.14070522429E-01  0.00000000000E+00 0. -1.
     999901    1    3    3    0    0  0.11646154713E+00 -0.76138717500E-01 -0.10981727759E-01  0.89099999697E+00  0.88000000000E+00 0.  1.
        -11    1    4    4    0    0 -0.10059204375E+00  0.40144172950E-01  0.22069328562E-01  0.11053338985E+00  0.51100000000E-03 0. -1.
         11    1    4    4    0    0 -0.10826182201E-01  0.26050420953E-01 -0.25051233720E-02  0.28326090747E-01  0.51100000000E-03 0.  1.
</event>
<event>
 8    1  0.2025822E+004  0.1043930E+01  0.7957747E-01            NaN
         13   -1    0    0    0    0  0.00000000000E+00  0.00000000000E+00  0.74505805969E-08  0.10566000000E+00  0.10566000000E+00 0. -1.
     999900   -1    0    0    0    0 -0.00000000000E+00 -0.00000000000E+00 -0.74505805969E-08  0.93827000000E+00  0.93827000000E+00 0.  1.
     999902    2    1    2    0    0  0.50484171018E-02 -0.13258440332E-01 -0.19422434869E-02  0.10296106053E+01  0.10295110264E+01 0.  0.
     999903    2    3    3    0    0  0.60018919776E-01 -0.94612808611E-01  0.73991763286E-01  0.14090015593E+00  0.42710872426E-01 0.  0.
         14    1    1    2    0    0 -0.50484171018E-02  0.13258440332E-01  0.19422434869E-02  0.14319394716E-01  0.00000000000E+00 0.  1.
     999901    1    3    3    0    0 -0.54970502674E-01  0.81354368280E-01 -0.75934006773E-01  0.88871044935E+00  0.88000000000E+00 0.  1.
        -11    1    4    4    0    0  0.11982104120E-01 -0.51192634246E-01  0.47768554307E-01  0.71037683815E-01  0.51100000000E-03 0.  1.
         11    1    4    4    0    0  0.48036815656E-01 -0.43420174365E-01  0.26223208978E-01  0.69862472117E-01  0.51100000000E-03 0. -1.
</event>
<event>
 7    1  0.2025822E+004  0.1043930E+01  0.7957747E-01            NaN
         13   -1    0    0    0    0  0.00000000000E+00  0.00000000000E+00  0.74505805969E-08  0.10566000000E+00  0.10566000000E+00 0. -1.
     999900   -1    0    0    0    0 -0.00000000000E+00 -0.00000000000E+00 -0.74505805969E-08  0.93827000000E+00  0.93827000000E+00 0. -1.
     999902    2    1    2    0    0 -0.13553733354E-01 -0.49032983120E-03 -0.21843077822E-02  0.10301926308E+01  0.10301010345E+01 0.  0.
         14    1    1    2    0    0  0.13553733354E-01  0.49032983120E-03  0.21843077822E-02  0.13737369168E-01  0.00000000000E+00 0.  1.
     999901    1    3    3    0    0 -0.12527150690E+00  0.62682167912E-02 -0.51995523044E-01  0.89041326102E+00  0.88000000000E+00 0.  1.
        -11    1    3    3    0    0  0.41378173043E-01  0.46030337666E-02 -0.14204717280E-01  0.43992911227E-01  0.51100000000E-03 0. -1.
         11    1    3    3    0    0  0.70339600505E-01 -0.11361580389E-01  0.64015932542E-01  0.95786458585E-01  0.51100000000E-03 0.  1.
</event>
<event>
 8    1  0.2025822E+004  0.1043930E+01  0.7957747E-01            NaN
         13   -1    0    0    0    0  0.00000000000E+00  0.00000000000E+00  0.74505805969E-08  0.10566000000E+00  0.10566000000E+00 0. -1.
     999900   -1    0    0    0    0 -0.00000000000E+00 -0.00000000000E+00 -0.74505805969E-08  0.93827000000E+00  0.93827000000E+00 0.  1.
     999902    2    1    2    0    0  0.12000622121E-01 -0.32297443911E-02  0.52504545228E-02  0.10304387639E+01  0.10303504416E+01 0.  0.
     999903    2    3    3    0    0  0.15455301463E-01  0.74536643580E-01 -0.10747191804E+00  0.13984015663E+00  0.47015727803E-01 0.  0.
         14    1    1    2    0    0 -0.12000622121E-01  0.32297443911E-02 -0.52504545228E-02  0.13491236149E-01  0.00000000000E+00 0. -1.
     999901    1    3    3    0    0 -0.34546793418E-02 -0.77766387971E-01  0.11272237256E+00  0.89059860722E+00  0.88000000000E+00 0. -1.
        -11    1    4    4    0    0  0.74919154717E-02  0.74142794557E-01 -0.10866352319E+00  0.13176230560E+00  0.51100000000E-03 0.  1.
         11    1    4    4    0    0  0.79633859909E-02  0.39384902280E-03  0.11916051577E-02  0.80778510351E-02  0.51100000000E-03 0. -1.
</event>
<event>
 8    1  0.2025822E+004  0.1043930E+01  0.7957747E-01            NaN
         13   -1    0    0    0    0  0.00000000000E+00  0.00000000000E+00  0.74505805969E-08  0.10566000000E+00  0.10566000000E+00 0.  1.
     999900   -1    0    0    0    0 -0.00000000000E+00 -0.00000000000E+00 -0.74505805969E-08  0.93827000000E+00  0.93827000000E+00 0.  1.
     999902    2    1    2    0    0  0.37812884534E-02 -0.65096758787E-02 -0.11729968464E-01  0.10299920596E+01  0.10298977506E+01 0.  0.
     999903    2    3    3    0    0 -0.31968452500E-01  0.83401863542E-01 -0.98443216065E-01  0.14045211322E+00  0.45363823923E-01 0.  0.
         14    1    1    2    0    0 -0.37812884534E-02  0.65096758787E-02  0.11729968464E-01  0.13937940400E-01  0.00000000000E+00 0.  1.
     999901    1    3    3    0    0  0.35749740953E-01 -0.89911539421E-01  0.86713247601E-01  0.88953994638E+00  0.88000000000E+00 0. -1.
        -11    1    4    4    0    0 -0.21155949440E-01  0.62510291163E-02 -0.25577964298E-01  0.33780807278E-01  0.51100000000E-03 0. -1.
         11    1    4    4    0    0 -0.10812503059E-01  0.77150834426E-01 -0.72865251766E-01  0.10667130594E+00  0.51100000000E-03 0.  1.
</event>
<event>
 8    1  0.2025822E+004  0.1043930E+01  0.7957747E-01            NaN
         13   -1    0    0    0    0  0.00000000000E+00  0.00000000000E+00  0.74505805969E-08  0.10566000000E+00  0.10566000000E+00 0.  1.
     999900   -1    0    0    0    0 -0.00000000000E+00 -0.00000000000E+00 -0.74505805969E-08  0.93827000000E+00  0.93827000000E+00 0.  1.
     999902    2    1    2    0    0  0.42952239946E-02  0.12127359335E-01  0.57745875760E-02  0.10298279556E+01  0.10297313973E+01 0.  0.
     999903    2    3    3    0    0 -0.12551032022E+00  0.99161118832E-03  0.42164998736E-01  0.13949220648E+00  0.43890372263E-01 0.  0.
         14    1    1    2    0    0 -0.42952239946E-02 -0.12127359335E-01 -0.57745875760E-02  0.14102044365E-01  0.00000000000E+00 0. -1.
     999901    1    3    3    0    0  0.12980554421E+00  0.11135748147E-01 -0.36390411160E-01  0.89033574915E+00  0.88000000000E+00 0.  1.
        -11    1    4    4    0    0 -0.43675980205E-01 -0.19622970367E-01  0.22147822170E-01  0.52758310822E-01  0.51100000000E-03 0.  1.
         11    1    4    4    0    0 -0.81834340011E-01  0.20614581556E-01  0.20017176566E-01  0.86733895660E-01  0.51100000000E-03 0. -1.
</event>
<event>
 8    1  0.2025822E+004  0.1043930E+01  0.7957747E-01            NaN
         13   -1    0    0    0    0  0.00000000000E+00  0.00000000000E+00  0.74505805969E-08  0.10566000000E+00  0.10566000000E+00 0.  1.
     999900   -1    0    0    0    0 -0.00000000000E+00 -0.00000000000E+00 -0.74505805969E-08  0.93827000000E+00  0.93827000000E+00 0. -1.
     999902    2    1    2    0    0 -0.35331449722E-02  0.36089277196E-02  0.16305198506E-01  0.10268605252E+01  0.10267186427E+01 0.  0.
     999903    2    3    3    0    0  0.24402589142E-01 -0.11772568739E+00  0.49128458647E-01  0.13749003967E+00  0.45111880159E-01 0.  0.
         14    1    1    2    0    0  0.35331449722E-02 -0.36089277196E-02 -0.16305198506E-01  0.17069474831E-01  0.00000000000E+00 0. -1.
     999901    1    3    3    0    0 -0.27935734114E-01  0.12133461511E+00 -0.32823260141E-01  0.88937048550E+00  0.88000000000E+00 0.  1.
        -11    1    4    4    0    0  0.34021497744E-02 -0.29258115885E-01  0.34544685858E-01  0.45400533150E-01  0.51100000000E-03 0. -1.
         11    1    4    4    0    0  0.21000439367E-01 -0.88467571507E-01  0.14583772789E-01  0.92089506523E-01  0.51100000000E-03 0.  1.
</event>
<event>
 8    1  0.2025822E+004  0.1043930E+01  0.7957747E-01            NaN
         13   -1    0    0    0    0  0.00000000000E+00  0.00000000000E+00  0.74505805969E-08  0.10566000000E+00  0.10566000000E+00 0.  1.
     999900   -1    0    0    0    0 -0.00000000000E+00 -0.00000000000E+00 -0.74505805969E-08  0.93827000000E+00  0.93827000000E+00 0.  1.
     999902    2    1    2    0    0 -0.10644832771E-01 -0.83352099076E-02 -0.31638619029E-02  0.10300448205E+01  0.10299512289E+01 0.  0.
     999903    2    3    3    0    0  0.39634659266E-01  0.18348274712E-01 -0.12489492857E+00  0.13984344533E+00  0.45275607331E-01 0.  0.
         14    1    1    2    0    0  0.10644832771E-01  0.83352099076E-02  0.31638619029E-02  0.13885179547E-01  0.00000000000E+00 0. -1.
     999901    1    3    3    0    0 -0.50279492037E-01 -0.26683484620E-01  0.12173106667E+00  0.89020137512E+00  0.88000000000E+00 0. -1.
        -11    1    4    4    0    0  0.30136122149E-01 -0.10668472723E-01 -0.56001473006E-01  0.64485876502E-01  0.51100000000E-03 0. -1.
         11    1    4    4    0    0  0.94985371168E-02  0.29016747435E-01 -0.68893455568E-01  0.75357568831E-01  0.51100000000E-03 0.  1.
</event>
<event>
 8    1  0.2126918E+004  0.1043930E+01  0.7957747E-01            NaN
         13   -1    0    0    0    0  0.00000000000E+00  0.00000000000E+00  0.74505805969E-08  0.10566000000E+00  0.10566000000E+00 0. -1.
     999900   -1    0    0    0    0 -0.00000000000E+00 -0.00000000000E+00 -0.74505805969E-08  0.93827000000E+00  0.93827000000E+00 0.  1.
     999902    2    1    2    0    0 -0.11277594274E-01 -0.11465603388E-01  0.69808805769E-02  0.10263978328E+01  0.10262480861E+01 0.  0.
     999903    2    3    3    0    0 -0.77735285752E-01 -0.10345250385E+00  0.23074021458E-01  0.13896490360E+00  0.45095884106E-01 0.  0.
         14    1    1    2    0    0  0.11277594274E-01  0.11465603388E-01 -0.69808805769E-02  0.17532167216E-01  0.00000000000E+00 0.  1.
     999901    1    3    3    0    0  0.66457691477E-01  0.91986900462E-01 -0.16093140881E-01  0.88743292918E+00  0.88000000000E+00 0. -1.
        -11    1    4    4    0    0 -0.59055702060E-01 -0.45005954845E-01  0.22552841466E-01  0.77601570194E-01  0.51100000000E-03 0.  1.
         11    1    4    4    0    0 -0.18679583692E-01 -0.58446549004E-01  0.52117999151E-03  0.61363333408E-01  0.51100000000E-03 0. -1.
</event>
<event>
 8    1  0.2025822E+004  0.1043930E+01  0.7957747E-01            NaN
         13   -1    0    0    0    0  0.00000000000E+00  0.00000000000E+00  0.74505805969E-08  0.10566000000E+00  0.10566000000E+00 0.  1.
     999900   -1    0    0    0    0 -0.00000000000E+00 -0.00000000000E+00 -0.74505805969E-08  0.93827000000E+00  0.93827000000E+00 0.  1.
     999902    2    1    2    0    0  0.80465300240E-02 -0.64903087242E-02  0.54984610463E-02  0.10322208657E+01  0.10321544515E+01 0.  0.
     999903    2    3    3    0    0 -0.22234541068E-01 -0.11201901959E+00 -0.75152297561E-01  0.14173908768E+00  0.37409431701E-01 0.  0.
         14    1    1    2    0    0 -0.80465300240E-02  0.64903087242E-02 -0.54984610463E-02  0.11709134325E-01  0.00000000000E+00 0. -1.
     999901    1    3    3    0    0  0.30281071092E-01  0.10552871087E+00  0.80650758607E-01  0.89048177800E+00  0.88000000000E+00 0. -1.
        -11    1    4    4    0    0 -0.29011999596E-01 -0.52001076971E-01 -0.32976910117E-01  0.68070153875E-01  0.51100000000E-03 0.  1.
         11    1    4    4    0    0  0.67774585289E-02 -0.60017942619E-01 -0.42175387444E-01  0.73668933801E-01  0.51100000000E-03 0. -1.
</event>
<event>
 8    1  0.2025822E+004  0.1043930E+01  0.7957747E-01            NaN
         13   -1    0    0    0    0  0.00000000000E+00  0.00000000000E+00  0.74505805969E-08  0.10566000000E+00  0.10566000000E+00 0. -1.
     999900   -1    0    0    0    0 -0.00000000000E+00 -0.00000000000E+00 -0.74505805969E-08  0.93827000000E+00  0.93827000000E+00 0. -1.
     999902    2    1    2    0    0 -0.89001082324E-02  0.88503275793E-02 -0.55478395962E-02  0.10302070721E+01  0.10301156696E+01 0.  0.
     999903    2    3    3    0    0  0.10951122620E+00  0.15929975595E-01  0.70616749721E-01  0.13898745263E+00  0.45654286333E-01 0.  0.
         14    1    1    2    0    0  0.89001082324E-02 -0.88503275793E-02  0.55478395962E-02  0.13722927858E-01  0.00000000000E+00 0. -1.
     999901    1    3    3    0    0 -0.11841133443E+00 -0.70796480157E-02 -0.76164589317E-01  0.89121961951E+00  0.88000000000E+00 0. -1.
        -11    1    4    4    0    0  0.44424181091E-01 -0.15844163130E-01  0.24914957048E-01  0.53343805419E-01  0.51100000000E-03 0. -1.
         11    1    4    4    0    0  0.65087045111E-01  0.31774138725E-01  0.45701792673E-01  0.85643647210E-01  0.51100000000E-03 0.  1.
</event>
<event>
 8    1  0.2025822E+004  0.1043930E+01  0.7957747E-01            NaN
         13   -1    0    0    0    0  0.00000000000E+00  0.00000000000E+00  0.74505805969E-08  0.10566000000E+00  0.10566000000E+00 0. -1.
     999900   -1    0    0    0    0 -0.00000000000E+00 -0.00000000000E+00 -0.74505805969E-08  0.93827000000E+00  0.93827000000E+00 0.  1.
     999902    2    1    2    0    0  0.98744485065E-02 -0.28460270419E-04  0.10354528196E-01  0.10296218975E+01  0.10295224767E+01 0.  0.
     999903    2    3    3    0    0  0.77005518895E-02 -0.13190579239E+00 -0.13200870436E-01  0.13948077758E+00  0.42687091365E-01 0.  0.
         14    1    1    2    0    0 -0.98744485065E-02  0.28460270419E-04 -0.10354528196E-01  0.14308102511E-01  0.00000000000E+00 0.  1.
     999901    1    3    3    0    0  0.21738966169E-02  0.13187733211E+00  0.23555398632E-01  0.89014111991E+00  0.88000000000E+00 0.  1.
        -11    1    4    4    0    0  0.19025783753E-01 -0.10752649857E+00 -0.21598718770E-01  0.11131349476E+00  0.51100000000E-03 0.  1.
         11    1    4    4    0    0 -0.11325231863E-01 -0.24379293817E-01  0.83978483348E-02  0.28167282820E-01  0.51100000000E-03 0. -1.
</event>
<event>
 8    1  0.2025822E+004  0.1043930E+01  0.7957747E-01            NaN
         13   -1    0    0    0    0  0.00000000000E+00  0.00000000000E+00  0.74505805969E-08  0.10566000000E+00  0.10566000000E+00 0.  1.
     999900   -1    0    0    0    0 -0.00000000000E+00 -0.00000000000E+00 -0.74505805969E-08  0.93827000000E+00  0.93827000000E+00 0. -1.
     999902    2    1    2    0    0  0.99187230741E-02  0.39834940535E-02 -0.20611592289E-01  0.10207117522E+01  0.10204476440E+01 0.  0.
     999903    2    3    3    0    0 -0.79540354159E-01  0.69367983315E-01 -0.66180646775E-01  0.13259318096E+00  0.45414629576E-01 0.  0.
         14    1    1    2    0    0 -0.99187230741E-02 -0.39834940535E-02  0.20611592289E-01  0.23218247759E-01  0.00000000000E+00 0. -1.
     999901    1    3    3    0    0  0.89459077233E-01 -0.65384489261E-01  0.45569054486E-01  0.88811857129E+00  0.88000000000E+00 0. -1.
        -11    1    4    4    0    0 -0.31270633427E-01  0.34296358524E-01 -0.42722329237E-02  0.46611219873E-01  0.51100000000E-03 0.  1.
         11    1    4    4    0    0 -0.48269720732E-01  0.35071624791E-01 -0.61908413851E-01  0.85981961083E-01  0.51100000000E-03 0. -1.
</event>
<event>
 8    1  0.2025822E+004  0.1043930E+01  0.7957747E-01            NaN
         13   -1    0    0    0    0  0.00000000000E+00  0.00000000000E+00  0.74505805969E-08  0.10566000000E+00  0.10566000000E+00 0.  1.
     999900   -1    0    0    0    0 -0.00000000000E+00 -0.00000000000E+00 -0.74505805969E-08  0.93827000000E+00  0.93827000000E+00 0. -1.
     999902    2    1    2    0    0  0.78048275985E-02  0.91765585970E-02  0.43952236029E-02  0.10311064844E+01  0.10310267405E+01 0.  0.
     999903    2    3    3    0    0  0.26878480885E-01  0.40213627129E-01  0.12556881364E+00  0.14205634927E+00  0.45529011260E-01 0.  0.
         14    1    1    2    0    0 -0.78048275985E-02 -0.91765585970E-02 -0.43952236029E-02  0.12823515588E-01  0.00000000000E+00 0. -1.
     999901    1    3    3    0    0 -0.19073653286E-01 -0.31037068532E-01 -0.12117359004E+00  0.88905013514E+00  0.88000000000E+00 0. -1.
        -11    1    4    4    0    0 -0.11701444620E-01  0.18641216316E-01  0.47152148579E-01  0.52038495256E-01  0.51100000000E-03 0.  1.
         11    1    4    4    0    0  0.38579925505E-01  0.21572410813E-01  0.78416665065E-01  0.90017854014E-01  0.51100000000E-03 0. -1.
</event>
<event>
 8    1  0.2025822E+004  0.1043930E+01  0.7957747E-01            NaN
         13   -1    0    0    0    0  0.00000000000E+00  0.00000000000E+00  0.74505805969E-08  0.10566000000E+00  0.10566000000E+00 0.  1.
     999900   -1    0    0    0    0 -0.00000000000E+00 -0.00000000000E+00 -0.74505805969E-08  0.93827000000E+00  0.93827000000E+00 0. -1.
     999902    2    1    2    0    0  0.49348686213E-02  0.16610904106E-01  0.82299909714E-02  0.10247464702E+01  0.10245668941E+01 0.  0.
     999903    2    3    3    0    0 -0.17835235442E-01  0.74655051887E-01  0.10459239385E+00  0.13729319628E+00  0.44926389776E-01 0.  0.
         14    1    1    2    0    0 -0.49348686213E-02 -0.16610904106E-01 -0.82299909714E-02  0.19183529783E-01  0.00000000000E+00 0. -1.
     999901    1    3    3    0    0  0.22770104064E-01 -0.58044147781E-01 -0.96362402879E-01  0.88745327394E+00  0.88000000000E+00 0. -1.
        -11    1    4    4    0    0 -0.70756123600E-02  0.43500211779E-01  0.23923803056E-01  0.50149199283E-01  0.51100000000E-03 0. -1.
         11    1    4    4    0    0 -0.10759623082E-01  0.31154840108E-01  0.80668590795E-01  0.87143996998E-01  0.51100000000E-03 0.  1.
</event>
<event>
 8    1  0.2025822E+004  0.1043930E+01  0.7957747E-01            NaN
         13   -1    0    0    0    0  0.00000000000E+00  0.00000000000E+00  0.74505805969E-08  0.10566000000E+00  0.10566000000E+00 0.  1.
     999900   -1    0    0    0    0 -0.00000000000E+00 -0.00000000000E+00 -0.74505805969E-08  0.93827000000E+00  0.93827000000E+00 0.  1.
     999902    2    1    2    0    0 -0.16669551617E-02  0.97375994064E-02 -0.10321616226E-01  0.10296424060E+01  0.10295432720E+01 0.  0.
     999903    2    3    3    0    0  0.91063600780E-01 -0.73913282182E-01 -0.60433386038E-01  0.13941343797E+00  0.45035095953E-01 0.  0.
         14    1    1    2    0    0  0.16669551617E-02 -0.97375994064E-02  0.10321616226E-01  0.14287594032E-01  0.00000000000E+00 0.  1.
     999901    1    3    3    0    0 -0.92730555942E-01  0.83650881589E-01  0.50111769812E-01  0.89022896800E+00  0.88000000000E+00 0. -1.
        -11    1    4    4    0    0  0.48863228731E-01 -0.43785310803E-01 -0.87363674245E-02  0.66191795571E-01  0.51100000000E-03 0.  1.
         11    1    4    4    0    0  0.42200372049E-01 -0.30127971379E-01 -0.51697018614E-01  0.73221642395E-01  0.51100000000E-03 0. -1.
</event>
<event>
 8    1  0.2025822E+004  0.1043930E+01  0.7957747E-01            NaN
         13   -1    0    0    0    0  0.00000000000E+00  0.00000000000E+00  0.74505805969E-08  0.10566000000E+00  0.10566000000E+00 0.  1.
     999900   -1    0    0    0    0 -0.00000000000E+00 -0.00000000000E+00 -0.74505805969E-08  0.93827000000E+00  0.93827000000E+00 0. -1.
     999902    2    1    2    0    0  0.50857979256E-02 -0.10810213719E-01 -0.82739973941E-02  0.10293977911E+01  0.10292952090E+01 0.  0.
     999903    2    3    3    0    0 -0.34144997832E-02  0.12303064644E+00  0.42978332273E-01  0.13776309454E+00  0.44534642673E-01 0.  0.
         14    1    1    2    0    0 -0.50857979256E-02  0.10810213719E-01  0.82739973941E-02  0.14532208851E-01  0.00000000000E+00 0. -1.
     999901    1    3    3    0    0  0.85002977089E-02 -0.13384086016E+00 -0.51252329667E-01  0.89163469661E+00  0.88000000000E+00 0.  1.
        -11    1    4    4    0    0  0.17180235319E-01  0.38585052069E-01  0.37727182808E-02  0.42408268687E-01  0.51100000000E-03 0.  1.
         11    1    4    4    0    0 -0.20594735102E-01  0.84445594373E-01  0.39205613992E-01  0.95354825848E-01  0.51100000000E-03 0. -1.
</event>
<event>
 8    1  0.2025822E+004  0.1043930E+01  0.7957747E-01            NaN
         13   -1    0    0    0    0  0.00000000000E+00  0.00000000000E+00  0.74505805969E-08  0.10566000000E+00  0.10566000000E+00 0. -1.
     999900   -1    0    0    0    0 -0.00000000000E+00 -0.00000000000E+00 -0.74505805969E-08  0.93827000000E+00  0.93827000000E+00 0. -1.
     999902    2    1    2    0    0  0.13526324234E-01  0.16572575597E-02  0.12301319240E-01  0.10255716121E+01  0.10254072855E+01 0.  0.
     999903    2    3    3    0    0  0.44095577930E-01  0.11487168315E+00  0.41319318264E-01  0.13731825318E+00  0.44822907213E-01 0.  0.
         14    1    1    2    0    0 -0.13526324234E-01 -0.16572575597E-02 -0.12301319240E-01  0.18358387863E-01  0.00000000000E+00 0.  1.
     999901    1    3    3    0    0 -0.30569253696E-01 -0.11321442559E+00 -0.29017999024E-01  0.88825335896E+00  0.88000000000E+00 0.  1.
        -11    1    4    4    0    0 -0.21427507878E-02  0.52592338216E-01  0.95611199414E-02  0.53499734163E-01  0.51100000000E-03 0. -1.
         11    1    4    4    0    0  0.46238328718E-01  0.62279344935E-01  0.31758198323E-01  0.83818519015E-01  0.51100000000E-03 0.  1.
</event>
<event>
 8    1  0.2025822E+004  0.1043930E+01  0.7957747E-01            NaN
         13   -1    0    0    0    0  0.00000000000E+00  0.00000000000E+00  0.74505805969E-08  0.10566000000E+00  0.10566000000E+00 0.  1.
     999900   -1    0    0    0    0 -0.00000000000E+00 -0.00000000000E+00 -0.74505805969E-08  0.93827000000E+00  0.93827000000E+00 0.  1.
     999902    2    1    2    0    0  0.30871693538E-02 -0.33937973240E-02 -0.17323964115E-01  0.10260088335E+01  0.10258523082E+01 0.  0.
     999903    2    3    3    0    0 -0.74095183849E-01 -0.35485051079E-01  0.96816792589E-01  0.13470917766E+00  0.44986510198E-01 0.  0.
         14    1    1    2    0    0 -0.30871693538E-02  0.33937973240E-02  0.17323964115E-01  0.17921166467E-01  0.00000000000E+00 0.  1.
     999901    1    3    3    0    0  0.77182353202E-01  0.32091253755E-01 -0.11414075670E+00  0.89129965587E+00  0.88000000000E+00 0.  1.
        -11    1    4    4    0    0 -0.41454548757E-01 -0.53263848448E-02  0.20881835728E-01  0.46724320996E-01  0.51100000000E-03 0. -1.
         11    1    4    4    0    0 -0.32640635091E-01 -0.30158666234E-01  0.75934956861E-01  0.87984856666E-01  0.51100000000E-03 0.  1.
</event>
<event>
 8    1  0.2025822E+004  0.1043930E+01  0.7957747E-01            NaN
         13   -1    0    0    0    0  0.00000000000E+00  0.00000000000E+00  0.74505805969E-08  0.10566000000E+00  0.10566000000E+00 0.  1.
     999900   -1    0    0    0    0 -0.00000000000E+00 -0.00000000000E+00 -0.74505805969E-08  0.93827000000E+00  0.93827000000E+00 0.  1.
     999902    2    1    2    0    0  0.75713812708E-03 -0.11715762776E-01 -0.74172096636E-02  0.10300430509E+01  0.10299494354E+01 0.  0.
     999903    2    3    3    0    0  0.25925435210E-01 -0.12672414178E+00  0.34749919730E-01  0.14120198683E+00  0.44713620540E-01 0.  0.
         14    1    1    2    0    0 -0.75713812708E-03  0.11715762776E-01  0.74172096636E-02  0.13886949080E-01  0.00000000000E+00 0.  1.
     999901    1    3    3    0    0 -0.25168297083E-01  0.11500837900E+00 -0.42167129393E-01  0.88884106409E+00  0.88000000000E+00 0.  1.
        -11    1    4    4    0    0  0.16621160764E-01 -0.49636033810E-01 -0.73713601464E-02  0.52863947156E-01  0.51100000000E-03 0.  1.
         11    1    4    4    0    0  0.93042744468E-02 -0.77088107969E-01  0.42121279876E-01  0.88338039670E-01  0.51100000000E-03 0. -1.
</event>
<event>
 8    1  0.2025822E+004  0.1043930E+01  0.7957747E-01            NaN
         13   -1    0    0    0    0  0.00000000000E+00  0.00000000000E+00  0.74505805969E-08  0.10566000000E+00  0.10566000000E+00 0.  1.
     999900   -1    0    0    0    0 -0.00000000000E+00 -0.00000000000E+00 -0.74505805969E-08  0.93827000000E+00  0.93827000000E+00 0. -1.
     999902    2    1    2    0    0 -0.10996820483E-01  0.20136813367E-02 -0.32269669917E-02  0.10322939229E+01  0.10322283396E+01 0.  0.
     999903    2    3    3    0    0 -0.89836249692E-01 -0.68272200030E-01  0.74668515355E-01  0.14256167845E+00  0.44908795602E-01 0.  0.
         14    1    1    2    0    0  0.10996820483E-01 -0.20136813367E-02  0.32269669917E-02  0.11636077055E-01  0.00000000000E+00 0.  1.
     999901    1    3    3    0    0  0.78839429209E-01  0.70285881366E-01 -0.77895482347E-01  0.88973224449E+00  0.88000000000E+00 0. -1.
        -11    1    4    4    0    0 -0.84449374132E-01 -0.43742084314E-01  0.50409940519E-01  0.10764055906E+00  0.51100000000E-03 0. -1.
         11    1    4    4    0    0 -0.53868755598E-02 -0.24530115715E-01  0.24258574836E-01  0.34921119389E-01  0.51100000000E-03 0.  1.
</event>
<event>
 8    1  0.2025822E+004  0.1043930E+01  0.7957747E-01            NaN
         13   -1    0    0    0    0  0.00000000000E+00  0.00000000000E+00  0.74505805969E-08  0.10566000000E+00  0.10566000000E+00 0. -1.
     999900   -1    0    0    0    0 -0.00000000000E+00 -0.00000000000E+00 -0.74505805969E-08  0.93827000000E+00  0.93827000000E+00 0. -1.
     999902    2    1    2    0    0  0.26364708454E-02 -0.12749170018E-01 -0.51668449060E-02  0.10299232659E+01  0.10298280172E+01 0.  0.
     999903    2    3    3    0    0  0.69377936131E-01  0.88072095468E-01 -0.69368320218E-01  0.13933852527E+00  0.45091781429E-01 0.  0.
         14    1    1    2    0    0 -0.26364708454E-02  0.12749170018E-01  0.51668449060E-02  0.14006734128E-01  0.00000000000E+00 0.  1.
     999901    1    3    3    0    0 -0.66741465285E-01 -0.10082126549E+00  0.64201475312E-01  0.89058474060E+00  0.88000000000E+00 0.  1.
        -11    1    4    4    0    0  0.49024118016E-01  0.57830100246E-01 -0.69545391047E-01  0.10288103411E+00  0.51100000000E-03 0.  1.
         11    1    4    4    0    0  0.20353818115E-01  0.30241995221E-01  0.17707082969E-03  0.36457491163E-01  0.51100000000E-03 0. -1.
</event>
<event>
 8    1  0.2025822E+004  0.1043930E+01  0.7957747E-01            NaN
         13   -1    0    0    0    0  0.00000000000E+00  0.00000000000E+00  0.74505805969E-08  0.10566000000E+00  0.10566000000E+00 0.  1.
     999900   -1    0    0    0    0 -0.00000000000E+00 -0.00000000000E+00 -0.74505805969E-08  0.93827000000E+00  0.93827000000E+00 0.  1.
     999902    2    1    2    0    0 -0.77930713583E-02 -0.11615911598E-01 -0.17092372060E-02  0.10298380571E+01  0.10297416380E+01 0.  0.
     999903    2    3    3    0    0 -0.31571233890E-01  0.12625730786E+00 -0.16622886401E-01  0.13866083419E+00  0.44864863634E-01 0.  0.
         14    1    1    2    0    0  0.77930713583E-02  0.11615911598E-01  0.17092372060E-02  0.14091942920E-01  0.00000000000E+00 0.  1.
     999901    1    3    3    0    0  0.23778162531E-01 -0.13787321946E+00  0.14913649195E-01  0.89117722289E+00  0.88000000000E+00 0. -1.
        -11    1    4    4    0    0 -0.21143479585E-01  0.27757123572E-01 -0.18691925281E-01  0.39587293791E-01  0.51100000000E-03 0. -1.
         11    1    4    4    0    0 -0.10427754304E-01  0.98500184291E-01  0.20690388797E-02  0.99073540403E-01  0.51100000000E-03 0.  1.
</event>
<event>
 7    1  0.2503326E+004  0.1043930E+01  0.7957747E-01            NaN
         13   -1    0    0    0    0  0.00000000000E+00  0.00000000000E+00  0.74505805969E-08  0.10566000000E+00  0.10566000000E+00 0. -1.
     999900   -1    0    0    0    0 -0.00000000000E+00 -0.00000000000E+00 -0.74505805969E-08  0.93827000000E+00  0.93827000000E+00 0.  1.
     999903    2    1    2    0    0  0.43208385915E-01  0.94595154270E-01  0.24150685776E-01  0.11560604473E+00  0.44342915222E-01 0.  0.
         14    1    1    2    0    0 -0.19555911313E-01  0.10802517383E-01 -0.35152068331E-01  0.41650881828E-01  0.00000000000E+00 0.  1.
     999901    1    1    2    0    0 -0.23652474602E-01 -0.10539767165E+00  0.11001382554E-01  0.88667307344E+00  0.88000000000E+00 0. -1.
        -11    1    3    3    0    0  0.41288046054E-01  0.71224949667E-01  0.35371954003E-01  0.89605426471E-01  0.51100000000E-03 0.  1.
         11    1    3    3    0    0  0.19203398615E-02  0.23370204603E-01 -0.11221268227E-01  0.26000618262E-01  0.51100000000E-03 0. -1.
</event>
<event>
 8    1  0.2025822E+004  0.1043930E+01  0.7957747E-01            NaN
         13   -1    0    0    0    0  0.00000000000E+00  0.00000000000E+00  0.74505805969E-08  0.10566000000E+00  0.10566000000E+00 0.  1.
     999900   -1    0    0    0    0 -0.00000000000E+00 -0.00000000000E+00 -0.74505805969E-08  0.93827000000E+00  0.93827000000E+00 0. -1.
     999902    2    1    2    0    0  0.14085681652E-01  0.11320490462E-03  0.50097065184E-02  0.10289795350E+01  0.10288709186E+01 0.  0.
     999903    2    3    3    0    0  0.16152980262E-01  0.61612439288E-01  0.11600344276E+00  0.13987546969E+00  0.45291686234E-01 0.  0.
         14    1    1    2    0    0 -0.14085681652E-01 -0.11320490462E-03 -0.50097065184E-02  0.14950464954E-01  0.00000000000E+00 0. -1.
     999901    1    3    3    0    0 -0.20672986100E-02 -0.61499234383E-01 -0.11099373624E+00  0.88910406536E+00  0.88000000000E+00 0. -1.
        -11    1    4    4    0    0  0.19189551325E-01  0.57309384889E-02  0.46558320147E-01  0.50685509092E-01  0.51100000000E-03 0. -1.
         11    1    4    4    0    0 -0.30365710629E-02  0.55881500799E-01  0.69445122612E-01  0.89189960595E-01  0.51100000000E-03 0.  1.
</event>
<event>
 8    1  0.2025822E+004  0.1043930E+01  0.7957747E-01            NaN
         13   -1    0    0    0    0  0.00000000000E+00  0.00000000000E+00  0.74505805969E-08  0.10566000000E+00  0.10566000000E+00 0.  1.
     999900   -1    0    0    0    0 -0.00000000000E+00 -0.00000000000E+00 -0.74505805969E-08  0.93827000000E+00  0.93827000000E+00 0. -1.
     999902    2    1    2    0    0 -0.13440792167E-01  0.43625381413E-03 -0.39335264769E-02  0.10299186531E+01  0.10298233412E+01 0.  0.
     999903    2    3    3    0    0 -0.90622596516E-01  0.94330167289E-01 -0.29382171790E-01  0.14120006352E+00  0.44311516104E-01 0.  0.
         14    1    1    2    0    0  0.13440792167E-01 -0.43625381413E-03  0.39335264769E-02  0.14011346902E-01  0.00000000000E+00 0. -1.
     999901    1    3    3    0    0  0.77181804350E-01 -0.93893913475E-01  0.25448645313E-01  0.88871858958E+00  0.88000000000E+00 0. -1.
        -11    1    4    4    0    0 -0.56945218587E-01  0.70457670687E-01 -0.39285500443E-01  0.98745394549E-01  0.51100000000E-03 0.  1.
         11    1    4    4    0    0 -0.33677377929E-01  0.23872496602E-01  0.99033286529E-02  0.42454668973E-01  0.51100000000E-03 0. -1.
</event>
<event>
 8    1  0.2025822E+004  0.1043930E+01  0.7957747E-01            NaN
         13   -1    0    0    0    0  0.00000000000E+00  0.00000000000E+00  0.74505805969E-08  0.10566000000E+00  0.10566000000E+00 0. -1.
     999900   -1    0    0    0    0 -0.00000000000E+00 -0.00000000000E+00 -0.74505805969E-08  0.93827000000E+00  0.93827000000E+00 0.  1.
     999902    2    1    2    0    0  0.81920369553E-03 -0.12942227461E-01 -0.38870295394E-02  0.10303918559E+01  0.10303029144E+01 0.  0.
     999903    2    3    3    0    0 -0.12912128018E+00 -0.27679365102E-01 -0.17350847936E-01  0.14062616374E+00  0.45124425286E-01 0.  0.
         14    1    1    2    0    0 -0.81920369553E-03  0.12942227461E-01  0.38870295394E-02  0.13538144074E-01  0.00000000000E+00 0.  1.
     999901    1    3    3    0    0  0.12994048388E+00  0.14737137641E-01  0.13463818397E-01  0.88976569218E+00  0.88000000000E+00 0. -1.
        -11    1    4    4    0    0 -0.95517276817E-01 -0.27020926888E-01  0.63914076827E-02  0.99472568448E-01  0.51100000000E-03 0. -1.
         11    1    4    4    0    0 -0.33604003365E-01 -0.65843821325E-03 -0.23742255619E-01  0.41153595297E-01  0.51100000000E-03 0.  1.
</event>
<event>
 8    1  0.2025822E+004  0.1043930E+01  0.7957747E-01            NaN
         13   -1    0    0    0    0  0.00000000000E+00  0.00000000000E+00  0.74505805969E-08  0.10566000000E+00  0.10566000000E+00 0.  1.
     999900   -1    0    0    0    0 -0.00000000000E+00 -0.00000000000E+00 -0.74505805969E-08  0.93827000000E+00  0.93827000000E+00 0.  1.
     999902    2    1    2    0    0  0.95848206619E-02  0.69888839275E-02 -0.73270358082E-02  0.10299873052E+01  0.10298929314E+01 0.  0.
     999903    2    3    3    0    0  0.14600323977E-02  0.96756787863E-01 -0.92180551618E-01  0.14132290962E+00  0.45944564354E-01 0.  0.
         14    1    1    2    0    0 -0.95848206619E-02 -0.69888839275E-02  0.73270358082E-02  0.13942694840E-01  0.00000000000E+00 0.  1.
     999901    1    3    3    0    0  0.81247882641E-02 -0.89767903935E-01  0.84853515810E-01  0.88866439554E+00  0.88000000000E+00 0. -1.
        -11    1    4    4    0    0  0.10850415114E-01  0.19307832386E-01 -0.44975837622E-01  0.50135925148E-01  0.51100000000E-03 0. -1.
         11    1    4    4    0    0 -0.93903827165E-02  0.77448955477E-01 -0.47204713996E-01  0.91186984469E-01  0.51100000000E-03 0.  1.
</event>
<event>
 8    1  0.2025822E+004  0.1043930E+01  0.7957747E-01            NaN
         13   -1    0    0    0    0  0.00000000000E+00  0.00000000000E+00  0.74505805969E-08  0.10566000000E+00  0.10566000000E+00 0.  1.
     999900   -1    0    0    0    0 -0.00000000000E+00 -0.00000000000E+00 -0.74505805969E-08  0.93827000000E+00  0.93827000000E+00 0.  1.
     999902    2    1    2    0    0 -0.58691470461E-02  0.11826516334E-01 -0.80936584083E-02  0.10284438552E+01  0.10283272546E+01 0.  0.
     999903    2    3    3    0    0  0.85797287054E-01  0.45061921923E-01 -0.89215948836E-01  0.13934984813E+00  0.45465848440E-01 0.  0.
         14    1    1    2    0    0  0.58691470461E-02 -0.11826516334E-01  0.80936584083E-02  0.15486144843E-01  0.00000000000E+00 0.  1.
     999901    1    3    3    0    0 -0.91666434100E-01 -0.33235405589E-01  0.81122290428E-01  0.88909400703E+00  0.88000000000E+00 0. -1.
        -11    1    4    4    0    0  0.39656748746E-01  0.33254029051E-01 -0.20342092267E-01  0.55610700481E-01  0.51100000000E-03 0. -1.
         11    1    4    4    0    0  0.46140538308E-01  0.11807892872E-01 -0.68873856570E-01  0.83739147650E-01  0.51100000000E-03 0.  1.
</event>
<event>
 8    1  0.2025822E+004  0.1043930E+01  0.7957747E-01            NaN
         13   -1    0    0    0    0  0.00000000000E+00  0.00000000000E+00  0.74505805969E-08  0.10566000000E+00  0.10566000000E+00 0. -1.
     999900   -1    0    0    0    0 -0.00000000000E+00 -0.00000000000E+00 -0.74505805969E-08  0.93827000000E+00  0.93827000000E+00 0.  1.
     999902    2    1    2    0    0  0.78046512525E-02 -0.60650789040E-02 -0.63743012580E-02  0.10321686446E+01  0.10321016333E+01 0.  0.
     999903    2    3    3    0    0 -0.11679258176E+00  0.45548929748E-01 -0.46717644768E-01  0.14098063882E+00  0.44472351345E-01 0.  0.
         14    1    1    2    0    0 -0.78046512525E-02  0.60650789040E-02  0.63743012580E-02  0.11761355356E-01  0.00000000000E+00 0. -1.
     999901    1    3    3    0    0  0.12459723301E+00 -0.51614008652E-01  0.40343343510E-01  0.89118800583E+00  0.88000000000E+00 0. -1.
        -11    1    4    4    0    0 -0.11591886192E+00  0.50073979480E-01 -0.39325997990E-01  0.13225498557E+00  0.51100000000E-03 0. -1.
         11    1    4    4    0    0 -0.87371983453E-03 -0.45250497326E-02 -0.73916467778E-02  0.87256532431E-02  0.51100000000E-03 0.  1.
</event>
<event>
 7    1  0.2025822E+004  0.1043930E+01  0.7957747E-01            NaN
         13   -1    0    0    0    0  0.00000000000E+00  0.00000000000E+00  0.74505805969E-08  0.10566000000E+00  0.10566000000E+00 0. -1.
     999900   -1    0    0    0    0 -0.00000000000E+00 -0.00000000000E+00 -0.74505805969E-08  0.93827000000E+00  0.93827000000E+00 0.  1.
     999902    2    1    2    0    0  0.41870354469E-02  0.11588835540E-01  0.19323146510E-01  0.10210124005E+01  0.10207551644E+01 0.  0.
         14    1    1    2    0    0 -0.41870354469E-02 -0.11588835540E-01 -0.19323146510E-01  0.22917599483E-01  0.00000000000E+00 0.  1.
     999901    1    3    3    0    0 -0.83356869771E-02  0.13834745575E+00 -0.44274853810E-02  0.89085863346E+00  0.88000000000E+00 0. -1.
        -11    1    3    3    0    0  0.89028616076E-02 -0.44310887917E-01  0.46043971384E-02  0.45433218319E-01  0.51100000000E-03 0.  1.
         11    1    3    3    0    0  0.36198608164E-02 -0.82447732288E-01  0.19146234753E-01  0.84720548735E-01  0.51100000000E-03 0. -1.
</event>
<event>
 8    1  0.2025822E+004  0.1043930E+01  0.7957747E-01            NaN
         13   -1    0    0    0    0  0.00000000000E+00  0.00000000000E+00  0.74505805969E-08  0.10566000000E+00  0.10566000000E+00 0. -1.
     999900   -1    0    0    0    0 -0.00000000000E+00 -0.00000000000E+00 -0.74505805969E-08  0.93827000000E+00  0.93827000000E+00 0. -1.
     999902    2    1    2    0    0 -0.89077085287E-02 -0.35659923339E-02 -0.88777298973E-02  0.10308579818E+01  0.10307750972E+01 0.  0.
     999903    2    3    3    0    0  0.95483575099E-02 -0.55056389215E-01 -0.12111401719E+00  0.14204480031E+00  0.48844068337E-01 0.  0.
         14    1    1    2    0    0  0.89077085287E-02  0.35659923339E-02  0.88777298973E-02  0.13072018233E-01  0.00000000000E+00 0. -1.
     999901    1    3    3    0    0 -0.18456066039E-01  0.51490396881E-01  0.11223628729E+00  0.88881318146E+00  0.88000000000E+00 0.  1.
        -11    1    4    4    0    0 -0.14098197454E-01 -0.21924678999E-01 -0.80191825551E-01  0.84323429288E-01  0.51100000000E-03 0.  1.
         11    1    4    4    0    0  0.23646554964E-01 -0.33131710216E-01 -0.40922191636E-01  0.57721371024E-01  0.51100000000E-03 0. -1.
</event>
<event>
 8    1  0.2025822E+004  0.1043930E+01  0.7957747E-01            NaN
         13   -1    0    0    0    0  0.00000000000E+00  0.00000000000E+00  0.74505805969E-08  0.10566000000E+00  0.10566000000E+00 0.  1.
     999900   -1    0    0    0    0 -0.00000000000E+00 -0.00000000000E+00 -0.74505805969E-08  0.93827000000E+00  0.93827000000E+00 0.  1.
     999902    2    1    2    0    0 -0.36236809469E-02  0.10180582207E-01  0.48444071535E-02  0.10320875510E+01  0.10320196070E+01 0.  0.
     999903    2    3    3    0    0 -0.44636895992E-01 -0.58955527822E-01  0.11187595110E+00  0.14196529146E+00  0.46580133111E-01 0.  0.
         14    1    1    2    0    0  0.36236809469E-02 -0.10180582207E-01 -0.48444071535E-02  0.11842449001E-01  0.00000000000E+00 0. -1.
     999901    1    3    3    0    0  0.41013215045E-01  0.69136110029E-01 -0.10703154395E+00  0.89012225953E+00  0.88000000000E+00 0.  1.
        -11    1    4    4    0    0 -0.20449025246E-01 -0.35899406197E-01  0.23618626013E-01  0.47592337771E-01  0.51100000000E-03 0.  1.
         11    1    4    4    0    0 -0.24187870746E-01 -0.23056121625E-01  0.88257325090E-01  0.94372953693E-01  0.51100000000E-03 0. -1.
</event>
<event>
 8    1  0.2025822E+004  0.1043930E+01  0.7957747E-01            NaN
         13   -1    0    0    0    0  0.00000000000E+00  0.00000000000E+00  0.74505805969E-08  0.10566000000E+00  0.10566000000E+00 0. -1.
     999900   -1    0    0    0    0 -0.00000000000E+00 -0.00000000000E+00 -0.74505805969E-08  0.93827000000E+00  0.93827000000E+00 0.  1.
     999902    2    1    2    0    0 -0.99028242467E-02 -0.50482398626E-02  0.77978558739E-02  0.10303521795E+01  0.10302627124E+01 0.  0.
     999903    2    3    3    0    0 -0.80513785731E-01 -0.79768890479E-01 -0.71324959303E-01  0.14084135696E+00  0.43629031949E-01 0.  0.
         14    1    1    2    0    0  0.99028242467E-02  0.50482398626E-02 -0.77978558739E-02  0.13577820517E-01  0.00000000000E+00 0.  1.
     999901    1    3    3    0    0  0.70610961484E-01  0.74720650616E-01  0.79122815177E-01  0.88951082253E+00  0.88000000000E+00 0. -1.
        -11    1    4    4    0    0 -0.28432864261E-01 -0.57702770862E-01 -0.44619162707E-01  0.78289005211E-01  0.51100000000E-03 0. -1.
         11    1    4    4    0    0 -0.52080921469E-01 -0.22066119616E-01 -0.26705796596E-01  0.62552351745E-01  0.51100000000E-03 0.  1.
</event>
<event>
 8    1  0.2025822E+004  0.1043930E+01  0.7957747E-01            NaN
         13   -1    0    0    0    0  0.00000000000E+00  0.00000000000E+00  0.74505805969E-08  0.10566000000E+00  0.10566000000E+00 0.  1.
     999900   -1    0    0    0    0 -0.00000000000E+00 -0.00000000000E+00 -0.74505805969E-08  0.93827000000E+00  0.93827000000E+00 0. -1.
     999902    2    1    2    0    0  0.86221803173E-02 -0.10800242754E-02 -0.11213572046E-01  0.10297436459E+01  0.10296459214E+01 0.  0.
     999903    2    3    3    0    0  0.89274200791E-01  0.91074637599E-01  0.36244419664E-01  0.13999677675E+00  0.44955166580E-01 0.  0.
         14    1    1    2    0    0 -0.86221803173E-02  0.10800242754E-02  0.11213572046E-01  0.14186354143E-01  0.00000000000E+00 0.  1.
     999901    1    3    3    0    0 -0.80652020474E-01 -0.92154661875E-01 -0.47457991709E-01  0.88974686911E+00  0.88000000000E+00 0.  1.
        -11    1    4    4    0    0  0.80144358823E-01  0.95743460335E-01  0.34868072159E-01  0.12963784951E+00  0.51100000000E-03 0.  1.
         11    1    4    4    0    0  0.91298419681E-02 -0.46688227356E-02  0.13763475053E-02  0.10358927240E-01  0.51100000000E-03 0. -1.
</event>
<event>
 8    1  0.2025822E+004  0.1043930E+01  0.7957747E-01            NaN
         13   -1    0    0    0    0  0.00000000000E+00  0.00000000000E+00  0.74505805969E-08  0.10566000000E+00  0.10566000000E+00 0. -1.
     999900   -1    0    0    0    0 -0.00000000000E+00 -0.00000000000E+00 -0.74505805969E-08  0.93827000000E+00  0.93827000000E+00 0. -1.
     999902    2    1    2    0    0  0.68535126895E-02  0.11768514536E-01 -0.36383690307E-02  0.10298336778E+01  0.10297371983E+01 0.  0.
     999903    2    3    3    0    0  0.78203365490E-04 -0.23207162484E-01  0.12950243310E+00  0.13910606736E+00  0.45177862835E-01 0.  0.
         14    1    1    2    0    0 -0.68535126895E-02 -0.11768514536E-01  0.36383690307E-02  0.14096322207E-01  0.00000000000E+00 0. -1.
     999901    1    3    3    0    0  0.67753093240E-02  0.34975677020E-01 -0.13314080213E+00  0.89072761044E+00  0.88000000000E+00 0. -1.
        -11    1    4    4    0    0  0.10179689573E-01  0.86462867395E-02  0.66065666683E-01  0.67404137777E-01  0.51100000000E-03 0.  1.
         11    1    4    4    0    0 -0.10101486208E-01 -0.31853449223E-01  0.63436766418E-01  0.71701929581E-01  0.51100000000E-03 0. -1.
</event>
<event>
 8    1  0.2025822E+004  0.1043930E+01  0.7957747E-01            NaN
         13   -1    0    0    0    0  0.00000000000E+00  0.00000000000E+00  0.74505805969E-08  0.10566000000E+00  0.10566000000E+00 0. -1.
     999900   -1    0    0    0    0 -0.00000000000E+00 -0.00000000000E+00 -0.74505805969E-08  0.93827000000E+00  0.93827000000E+00 0.  1.
     999902    2    1    2    0    0 -0.70921592515E-02  0.11412768097E-01  0.35461528234E-02  0.10300330508E+01  0.10299392994E+01 0.  0.
     999903    2    3    3    0    0  0.47570656202E-01  0.61832264146E-01  0.10799811323E+00  0.14074099467E+00  0.45367817883E-01 0.  0.
         14    1    1    2    0    0  0.70921592515E-02 -0.11412768097E-01 -0.35461528234E-02  0.13896949245E-01  0.00000000000E+00 0.  1.
     999901    1    3    3    0    0 -0.54662815453E-01 -0.50419496049E-01 -0.10445196041E+00  0.88929205608E+00  0.88000000000E+00 0.  1.
        -11    1    4    4    0    0  0.32327853329E-01  0.59831851863E-01  0.61240762173E-01  0.91518482673E-01  0.51100000000E-03 0.  1.
         11    1    4    4    0    0  0.15242802873E-01  0.20004122827E-02  0.46757351058E-01  0.49222512001E-01  0.51100000000E-03 0. -1.
</event>
<event>
 8    1  0.2025822E+004  0.1043930E+01  0.7957747E-01            NaN
         13   -1    0    0    0    0  0.00000000000E+00  0.00000000000E+00  0.74505805969E-08  0.10566000000E+00  0.10566000000E+00 0.  1.
     999900   -1    0    0    0    0 -0.00000000000E+00 -0.00000000000E+00 -0.74505805969E-08  0.93827000000E+00  0.93827000000E+00 0. -1.
     999902    2    1    2    0    0 -0.21679437649E-02 -0.89543342438E-02  0.10125865452E-01  0.10302401047E+01  0.10301491446E+01 0.  0.
     999903    2    3    3    0    0  0.45525506846E-01 -0.11350634357E+00  0.55079239000E-01  0.14163074527E+00  0.45489379344E-01 0.  0.
         14    1    1    2    0    0  0.21679437649E-02  0.89543342438E-02 -0.10125865452E-01  0.13689895290E-01  0.00000000000E+00 0. -1.
     999901    1    3    3    0    0 -0.47693450611E-01  0.10455200933E+00 -0.44953373548E-01  0.88860935944E+00  0.88000000000E+00 0. -1.
        -11    1    4    4    0    0  0.43786225300E-01 -0.62867151581E-01  0.17614857469E-01  0.78613336009E-01  0.51100000000E-03 0.  1.
         11    1    4    4    0    0  0.17392815461E-02 -0.50639191991E-01  0.37464381530E-01  0.63017409263E-01  0.51100000000E-03 0. -1.
</event>
<event>
 8    1  0.2025822E+004  0.1043930E+01  0.7957747E-01            NaN
         13   -1    0    0    0    0  0.00000000000E+00  0.00000000000E+00  0.74505805969E-08  0.10566000000E+00  0.10566000000E+00 0. -1.
     999900   -1    0    0    0    0 -0.00000000000E+00 -0.00000000000E+00 -0.74505805969E-08  0.93827000000E+00  0.93827000000E+00 0.  1.
     999902    2    1    2    0    0 -0.64987975539E-03 -0.98423720548E-02  0.10088401096E-01  0.10298207666E+01  0.10297241091E+01 0.  0.
     999903    2    3    3    0    0  0.52591501799E-01  0.12018181288E+00  0.13832991403E-01  0.13866704507E+00  0.42751181616E-01 0.  0.
         14    1    1    2    0    0  0.64987975539E-03  0.98423720548E-02 -0.10088401096E-01  0.14109233432E-01  0.00000000000E+00 0.  1.
     999901    1    3    3    0    0 -0.53241381554E-01 -0.13002418493E+00 -0.37445903070E-02  0.89115372149E+00  0.88000000000E+00 0. -1.
        -11    1    4    4    0    0  0.55036645549E-01  0.77498112751E-01  0.12668766499E-01  0.95894465945E-01  0.51100000000E-03 0.  1.
         11    1    4    4    0    0 -0.24451437501E-02  0.42683700129E-01  0.11642249039E-02  0.42772579128E-01  0.51100000000E-03 0. -1.
</event>
<event>
 8    1  0.2025822E+004  0.1043930E+01  0.7957747E-01            NaN
         13   -1    0    0    0    0  0.00000000000E+00  0.00000000000E+00  0.74505805969E-08  0.10566000000E+00  0.10566000000E+00 0. -1.
     999900   -1    0    0    0    0 -0.00000000000E+00 -0.00000000000E+00 -0.74505805969E-08  0.93827000000E+00  0.93827000000E+00 0. -1.
     999902    2    1    2    0    0  0.14833665591E-01  0.22293601956E-01 -0.62552616286E-02  0.10164314433E+01  0.10160594019E+01 0.  0.
     999903    2    3    3    0    0  0.50538850679E-01  0.10492417434E+00 -0.40280614583E-01  0.13118549081E+00  0.44987190404E-01 0.  0.
         14    1    1    2    0    0 -0.14833665591E-01 -0.22293601956E-01  0.62552616286E-02  0.27498556709E-01  0.00000000000E+00 0.  1.
     999901    1    3    3    0    0 -0.35705185088E-01 -0.82630572382E-01  0.34025352955E-01  0.88524595248E+00  0.88000000000E+00 0.  1.
        -11    1    4    4    0    0 -0.16625148519E-02  0.45739436037E-01 -0.11622857792E-01  0.47225119469E-01  0.51100000000E-03 0.  1.
         11    1    4    4    0    0  0.52201365531E-01  0.59184738301E-01 -0.28657756791E-01  0.83960371345E-01  0.51100000000E-03 0. -1.
</event>
<event>
 8    1  0.2025822E+004  0.1043930E+01  0.7957747E-01            NaN
         13   -1    0    0    0    0  0.00000000000E+00  0.00000000000E+00  0.74505805969E-08  0.10566000000E+00  0.10566000000E+00 0. -1.
     999900   -1    0    0    0    0 -0.00000000000E+00 -0.00000000000E+00 -0.74505805969E-08  0.93827000000E+00  0.93827000000E+00 0. -1.
     999902    2    1    2    0    0  0.86013727956E-02 -0.64662505330E-02 -0.81587312494E-02  0.10304258930E+01  0.10303374011E+01 0.  0.
     999903    2    3    3    0    0 -0.34934188619E-01 -0.12679134337E+00 -0.24682135964E-01  0.14101794613E+00  0.44501809019E-01 0.  0.
         14    1    1    2    0    0 -0.86013727956E-02  0.64662505330E-02  0.81587312494E-02  0.13504106987E-01  0.00000000000E+00 0.  1.
     999901    1    3    3    0    0  0.43535561415E-01  0.12032509284E+00  0.16523404715E-01  0.88940794688E+00  0.88000000000E+00 0.  1.
        -11    1    4    4    0    0 -0.37370580266E-01 -0.58852181499E-01 -0.34783618990E-02  0.69803292609E-01  0.51100000000E-03 0.  1.
         11    1    4    4    0    0  0.24363916463E-02 -0.67939161875E-01 -0.21203774065E-01  0.71214653521E-01  0.51100000000E-03 0. -1.
</event>
<event>
 8    1  0.2025822E+004  0.1043930E+01  0.7957747E-01            NaN
         13   -1    0    0    0    0  0.00000000000E+00  0.00000000000E+00  0.74505805969E-08  0.10566000000E+00  0.10566000000E+00 0. -1.
     999900   -1    0    0    0    0 -0.00000000000E+00 -0.00000000000E+00 -0.74505805969E-08  0.93827000000E+00  0.93827000000E+00 0. -1.
     999902    2    1    2    0    0 -0.11725780464E-01  0.37198941697E-02 -0.73487738007E-02  0.10296004495E+01  0.10295007283E+01 0.  0.
     999903    2    3    3    0    0  0.81360232428E-01  0.92032051967E-01  0.46071359698E-01  0.13869206273E+00  0.44983686719E-01 0.  0.
         14    1    1    2    0    0  0.11725780464E-01 -0.37198941697E-02  0.73487738007E-02  0.14329550464E-01  0.00000000000E+00 0. -1.
     999901    1    3    3    0    0 -0.93086012893E-01 -0.88312157798E-01 -0.53420133499E-01  0.89090838680E+00  0.88000000000E+00 0.  1.
        -11    1    4    4    0    0  0.46677119199E-01  0.41759777546E-01  0.75236216255E-03  0.62637525871E-01  0.51100000000E-03 0. -1.
         11    1    4    4    0    0  0.34683113229E-01  0.50272274421E-01  0.45318997536E-01  0.76054536863E-01  0.51100000000E-03 0.  1.
</event>
<event>
 8    1  0.2025822E+004  0.1043930E+01  0.7957747E-01            NaN
         13   -1    0    0    0    0  0.00000000000E+00  0.00000000000E+00  0.74505805969E-08  0.10566000000E+00  0.10566000000E+00 0. -1.
     999900   -1    0    0    0    0 -0.00000000000E+00 -0.00000000000E+00 -0.74505805969E-08  0.93827000000E+00  0.93827000000E+00 0.  1.
     999902    2    1    2    0    0 -0.85377728360E-02 -0.79802665748E-03  0.10176455096E-01  0.10306224589E+01  0.10305365409E+01 0.  0.
     999903    2    3    3    0    0  0.42693814759E-01 -0.46623503983E-01 -0.11516254799E+00  0.13908753776E+00  0.45677322138E-01 0.  0.
         14    1    1    2    0    0  0.85377728360E-02  0.79802665748E-03 -0.10176455096E-01  0.13307541090E-01  0.00000000000E+00 0.  1.
     999901    1    3    3    0    0 -0.51231587595E-01  0.45825477326E-01  0.12533900309E+00  0.89153492115E+00  0.88000000000E+00 0. -1.
        -11    1    4    4    0    0  0.25571689173E-01 -0.44200920745E-01 -0.49266358697E-01  0.70958212366E-01  0.51100000000E-03 0.  1.
         11    1    4    4    0    0  0.17122125586E-01 -0.24225832384E-02 -0.65896189292E-01  0.68129325392E-01  0.51100000000E-03 0. -1.
</event>
<event>
 8    1  0.2025822E+004  0.1043930E+01  0.7957747E-01            NaN
         13   -1    0    0    0    0  0.00000000000E+00  0.00000000000E+00  0.74505805969E-08  0.10566000000E+00  0.10566000000E+00 0.  1.
     999900   -1    0    0    0    0 -0.00000000000E+00 -0.00000000000E+00 -0.74505805969E-08  0.93827000000E+00  0.93827000000E+00 0. -1.
     999902    2    1    2    0    0  0.74382723954E-02  0.13851618529E-01 -0.93049333790E-04  0.10282072811E+01  0.10280870629E+01 0.  0.
     999903    2    3    3    0    0 -0.77642054527E-01 -0.69163270872E-01 -0.76098420981E-01  0.13696828372E+00  0.46448836377E-01 0.  0.
         14    1    1    2    0    0 -0.74382723954E-02 -0.13851618529E-01  0.93049333790E-04  0.15722718921E-01  0.00000000000E+00 0.  1.
     999901    1    3    3    0    0  0.85080326923E-01  0.83014889401E-01  0.76005371647E-01  0.89123899736E+00  0.88000000000E+00 0.  1.
        -11    1    4    4    0    0 -0.66477396121E-02 -0.53035075849E-02  0.64957249614E-02  0.10713318740E-01  0.51100000000E-03 0.  1.
         11    1    4    4    0    0 -0.70994314915E-01 -0.63859763287E-01 -0.82594145943E-01  0.12625496498E+00  0.51100000000E-03 0. -1.
</event>
<event>
 8    1  0.2025822E+004  0.1043930E+01  0.7957747E-01            NaN
         13   -1    0    0    0    0  0.00000000000E+00  0.00000000000E+00  0.74505805969E-08  0.10566000000E+00  0.10566000000E+00 0. -1.
     999900   -1    0    0    0    0 -0.00000000000E+00 -0.00000000000E+00 -0.74505805969E-08  0.93827000000E+00  0.93827000000E+00 0.  1.
     999902    2    1    2    0    0  0.74968691164E-02 -0.11084776467E-01  0.43842338224E-02  0.10298482096E+01  0.10297519303E+01 0.  0.
     999903    2    3    3    0    0  0.12268215412E+00  0.49633090956E-01 -0.65375809392E-02  0.14020019189E+00  0.45814835836E-01 0.  0.
         14    1    1    2    0    0 -0.74968691164E-02  0.11084776467E-01 -0.43842338224E-02  0.14081790443E-01  0.00000000000E+00 0.  1.
     999901    1    3    3    0    0 -0.11518528501E+00 -0.60717867423E-01  0.10921814762E-01  0.88964801767E+00  0.88000000000E+00 0.  1.
        -11    1    4    4    0    0  0.10987935271E+00  0.46364229495E-01 -0.20454138451E-01  0.12100308603E+00  0.51100000000E-03 0. -1.
         11    1    4    4    0    0  0.12802801417E-01  0.32688614618E-02  0.13916557512E-01  0.19197105859E-01  0.51100000000E-03 0.  1.
</event>
<event>
 8    1  0.2522205E+004  0.1043930E+01  0.7957747E-01            NaN
         13   -1    0    0    0    0  0.00000000000E+00  0.00000000000E+00  0.74505805969E-08  0.10566000000E+00  0.10566000000E+00 0. -1.
     999900   -1    0    0    0    0 -0.00000000000E+00 -0.00000000000E+00 -0.74505805969E-08  0.93827000000E+00  0.93827000000E+00 0.  1.
     999902    2    1    2    0    0 -0.79284815462E-03 -0.11412775423E-01  0.73691028089E-02  0.10303217772E+01  0.10302319064E+01 0.  0.
     999903    2    3    3    0    0  0.95930970631E-01  0.42065710356E-01  0.82466095911E-01  0.14023470062E+00  0.43506771521E-01 0.  0.
         14    1    1    2    0    0  0.79284815462E-03  0.11412775423E-01 -0.73691028089E-02  0.13608222781E-01  0.00000000000E+00 0. -1.
     999901    1    3    3    0    0 -0.96723818785E-01 -0.53478485780E-01 -0.75096993102E-01  0.89008707660E+00  0.88000000000E+00 0.  1.
        -11    1    4    4    0    0  0.29770763435E-01  0.36302424127E-01  0.31906971302E-01  0.56766894328E-01  0.51100000000E-03 0. -1.
         11    1    4    4    0    0  0.66160207196E-01  0.57632862296E-02  0.50559124608E-01  0.83467806288E-01  0.51100000000E-03 0.  1.
</event>
<event>
 8    1  0.2025822E+004  0.1043930E+01  0.7957747E-01            NaN
         13   -1    0    0    0    0  0.00000000000E+00  0.00000000000E+00  0.74505805969E-08  0.10566000000E+00  0.10566000000E+00 0. -1.
     999900   -1    0    0    0    0 -0.00000000000E+00 -0.00000000000E+00 -0.74505805969E-08  0.93827000000E+00  0.93827000000E+00 0. -1.
     999902    2    1    2    0    0 -0.26990274437E-02 -0.20737425558E-01 -0.45901767582E-02  0.10225198321E+01  0.10222956577E+01 0.  0.
     999903    2    3    3    0    0 -0.64504506545E-01 -0.44666150206E-01 -0.10132125830E+00  0.13474204273E+00  0.41635614058E-01 0.  0.
         14    1    1    2    0    0  0.26990274437E-02  0.20737425558E-01  0.45901767582E-02  0.21410167926E-01  0.00000000000E+00 0.  1.
     999901    1    3    3    0    0  0.61805479102E-01  0.23928724647E-01  0.96731081540E-01  0.88777778934E+00  0.88000000000E+00 0.  1.
        -11    1    4    4    0    0 -0.16378333993E-01 -0.36423851096E-01 -0.43282345845E-01  0.58894561174E-01  0.51100000000E-03 0. -1.
         11    1    4    4    0    0 -0.48126172553E-01 -0.82422991100E-02 -0.58038912454E-01  0.75847481560E-01  0.51100000000E-03 0.  1.
</event>
<event>
 8    1  0.2025822E+004  0.1043930E+01  0.7957747E-01            NaN
         13   -1    0    0    0    0  0.00000000000E+00  0.00000000000E+00  0.74505805969E-08  0.10566000000E+00  0.10566000000E+00 0.  1.
     999900   -1    0    0    0    0 -0.00000000000E+00 -0.00000000000E+00 -0.74505805969E-08  0.93827000000E+00  0.93827000000E+00 0. -1.
     999902    2    1    2    0    0  0.61720667657E-02  0.88369414459E-02  0.77750671356E-02  0.10306394917E+01  0.10305537949E+01 0.  0.
     999903    2    3    3    0    0  0.13205989240E+00 -0.18435474276E-01 -0.80535830815E-03  0.14122105641E+00  0.46508668871E-01 0.  0.
         14    1    1    2    0    0 -0.61720667657E-02 -0.88369414459E-02 -0.77750671356E-02  0.13290508314E-01  0.00000000000E+00 0. -1.
     999901    1    3    3    0    0 -0.12588782563E+00  0.27272415722E-01  0.85804254438E-02  0.88941843527E+00  0.88000000000E+00 0. -1.
        -11    1    4    4    0    0  0.97702468150E-01  0.60492259417E-02  0.76516999317E-02  0.98189485435E-01  0.51100000000E-03 0. -1.
         11    1    4    4    0    0  0.34357424250E-01 -0.24484700218E-01 -0.84570582398E-02  0.43031570979E-01  0.51100000000E-03 0.  1.
</event>
<event>
 8    1  0.2025822E+004  0.1043930E+01  0.7957747E-01            NaN
         13   -1    0    0    0    0  0.00000000000E+00  0.00000000000E+00  0.74505805969E-08  0.10566000000E+00  0.10566000000E+00 0. -1.
     999900   -1    0    0    0    0 -0.00000000000E+00 -0.00000000000E+00 -0.74505805969E-08  0.93827000000E+00  0.93827000000E+00 0. -1.
     999902    2    1    2    0    0 -0.20307657221E-03 -0.13534517853E-01 -0.34261950171E-03  0.10303896233E+01  0.10303006522E+01 0.  0.
     999903    2    3    3    0    0  0.14952700978E-01 -0.11991907744E+00  0.58557697761E-01  0.14189841934E+00  0.45847454056E-01 0.  0.
         14    1    1    2    0    0  0.20307657221E-03  0.13534517853E-01  0.34261950171E-03  0.13540376721E-01  0.00000000000E+00 0.  1.
     999901    1    3    3    0    0 -0.15155777550E-01  0.10638455958E+00 -0.58900317263E-01  0.88849120394E+00  0.88000000000E+00 0.  1.
        -11    1    4    4    0    0  0.28806361804E-01 -0.82503800535E-01  0.51325877246E-01  0.10134737480E+00  0.51100000000E-03 0.  1.
         11    1    4    4    0    0 -0.13853660827E-01 -0.37415276901E-01  0.72318205150E-02  0.40551044535E-01  0.51100000000E-03 0. -1.
</event>
<event>
 8    1  0.2025822E+004  0.1043930E+01  0.7957747E-01            NaN
         13   -1    0    0    0    0  0.00000000000E+00  0.00000000000E+00  0.74505805969E-08  0.10566000000E+00  0.10566000000E+00 0.  1.
     999900   -1    0    0    0    0 -0.00000000000E+00 -0.00000000000E+00 -0.74505805969E-08  0.93827000000E+00  0.93827000000E+00 0. -1.
     999902    2    1    2    0    0 -0.48669845490E-02  0.11817567037E-01  0.67567773291E-02  0.10294732898E+01  0.10293717783E+01 0.  0.
     999903    2    3    3    0    0 -0.10746601277E+00 -0.39064661418E-01 -0.65441664022E-01  0.13912045151E+00  0.44686653094E-01 0.  0.
         14    1    1    2    0    0  0.48669845490E-02 -0.11817567037E-01 -0.67567773291E-02  0.14456710178E-01  0.00000000000E+00 0. -1.
     999901    1    3    3    0    0  0.10259902822E+00  0.50882228455E-01  0.72198441351E-01  0.89035283832E+00  0.88000000000E+00 0. -1.
        -11    1    4    4    0    0 -0.16439978620E-01 -0.26048283660E-01 -0.15752499948E-01  0.34600409741E-01  0.51100000000E-03 0. -1.
         11    1    4    4    0    0 -0.91026034151E-01 -0.13016377758E-01 -0.49689164074E-01  0.10452004176E+00  0.51100000000E-03 0.  1.
</event>
<event>
 8    1  0.2025822E+004  0.1043930E+01  0.7957747E-01            NaN
         13   -1    0    0    0    0  0.00000000000E+00  0.00000000000E+00  0.74505805969E-08  0.10566000000E+00  0.10566000000E+00 0. -1.
     999900   -1    0    0    0    0 -0.00000000000E+00 -0.00000000000E+00 -0.74505805969E-08  0.93827000000E+00  0.93827000000E+00 0. -1.
     999902    2    1    2    0    0  0.11397577998E-01  0.24314885144E-02  0.61028550651E-02  0.10307747060E+01  0.10306907551E+01 0.  0.
     999903    2    3    3    0    0  0.20779092191E-01  0.13215650280E+00  0.81900046444E-02  0.14121248313E+00  0.44460963894E-01 0.  0.
         14    1    1    2    0    0 -0.11397577998E-01 -0.24314885144E-02 -0.61028550651E-02  0.13155294013E-01  0.00000000000E+00 0. -1.
     999901    1    3    3    0    0 -0.93815141931E-02 -0.12972501429E+00 -0.20871495793E-02  0.88956222286E+00  0.88000000000E+00 0.  1.
        -11    1    4    4    0    0  0.11725844585E-01  0.72398842180E-02  0.80483570618E-02  0.15967107663E-01  0.51100000000E-03 0. -1.
         11    1    4    4    0    0  0.90532476054E-02  0.12491661859E+00  0.14164758260E-03  0.12524537547E+00  0.51100000000E-03 0.  1.
</event>
<event>
 8    1  0.2025822E+004  0.1043930E+01  0.7957747E-01            NaN
         13   -1    0    0    0    0  0.00000000000E+00  0.00000000000E+00  0.74505805969E-08  0.10566000000E+00  0.10566000000E+00 0.  1.
     999900   -1    0    0    0    0 -0.00000000000E+00 -0.00000000000E+00 -0.74505805969E-08  0.93827000000E+00  0.93827000000E+00 0. -1.
     999902    2    1    2    0    0 -0.99980393628E-03 -0.11877388816E-01 -0.73622038628E-02  0.10299202170E+01  0.10298249266E+01 0.  0.
     999903    2    3    3    0    0 -0.38233061907E-02  0.40565262454E-01  0.12411714716E+00  0.13860376168E+00  0.46322546819E-01 0.  0.
         14    1    1    2    0    0  0.99980393628E-03  0.11877388816E-01  0.73622038628E-02  0.14009782965E-01  0.00000000000E+00 0.  1.
     999901    1    3    3    0    0  0.28235022544E-02 -0.52442651270E-01 -0.13147935103E+00  0.89131645535E+00  0.88000000000E+00 0. -1.
        -11    1    4    4    0    0 -0.17941786572E-01  0.34545979041E-01  0.11334856904E+00  0.11984778511E+00  0.51100000000E-03 0.  1.
         11    1    4    4    0    0  0.14118480381E-01  0.60192834130E-02  0.10768578129E-01  0.18755976568E-01  0.51100000000E-03 0. -1.
</event>
<event>
 8    1  0.2025822E+004  0.1043930E+01  0.7957747E-01            NaN
         13   -1    0    0    0    0  0.00000000000E+00  0.00000000000E+00  0.74505805969E-08  0.10566000000E+00  0.10566000000E+00 0.  1.
     999900   -1    0    0    0    0 -0.00000000000E+00 -0.00000000000E+00 -0.74505805969E-08  0.93827000000E+00  0.93827000000E+00 0.  1.
     999902    2    1    2    0    0  0.75740211134E-02  0.39770017682E-02  0.10096748418E-01  0.10306964567E+01  0.10306114977E+01 0.  0.
     999903    2    3    3    0    0 -0.14836891852E-02  0.41652575954E-01 -0.12517075890E+00  0.13951814150E+00  0.45392229584E-01 0.  0.
         14    1    1    2    0    0 -0.75740211134E-02 -0.39770017682E-02 -0.10096748418E-01  0.13233543271E-01  0.00000000000E+00 0. -1.
     999901    1    3    3    0    0  0.90577102985E-02 -0.37675574186E-01  0.13526750731E+00  0.89117831523E+00  0.88000000000E+00 0. -1.
        -11    1    4    4    0    0 -0.11351926681E-01  0.14757365104E-01 -0.10624669865E-01  0.21442732916E-01  0.51100000000E-03 0. -1.
         11    1    4    4    0    0  0.98682374953E-02  0.26895210850E-01 -0.11454608903E+00  0.11807540858E+00  0.51100000000E-03 0.  1.
</event>
<event>
 8    1  0.2025822E+004  0.1043930E+01  0.7957747E-01            NaN
         13   -1    0    0    0    0  0.00000000000E+00  0.00000000000E+00  0.74505805969E-08  0.10566000000E+00  0.10566000000E+00 0.  1.
     999900   -1    0    0    0    0 -0.00000000000E+00 -0.00000000000E+00 -0.74505805969E-08  0.93827000000E+00  0.93827000000E+00 0. -1.
     999902    2    1    2    0    0  0.96153827424E-02 -0.84981528240E-02 -0.16413249631E-02  0.10309929163E+01  0.10309117447E+01 0.  0.
     999903    2    3    3    0    0  0.11605380855E+00  0.47653433386E-01 -0.48018688606E-01  0.14159255709E+00  0.44758480501E-01 0.  0.
         14    1    1    2    0    0 -0.96153827424E-02  0.84981528240E-02  0.16413249631E-02  0.12937083687E-01  0.00000000000E+00 0.  1.
     999901    1    3    3    0    0 -0.10643842580E+00 -0.56151586210E-01  0.46377363643E-01  0.88940035922E+00  0.88000000000E+00 0.  1.
        -11    1    4    4    0    0  0.10227336891E+00  0.41843513826E-01 -0.56795609469E-01  0.12424461362E+00  0.51100000000E-03 0.  1.
         11    1    4    4    0    0  0.13780439633E-01  0.58099195600E-02  0.87769208635E-02  0.17347943469E-01  0.51100000000E-03 0. -1.
</event>
<event>
 8    1  0.2025822E+004  0.1043930E+01  0.7957747E-01            NaN
         13   -1    0    0    0    0  0.00000000000E+00  0.00000000000E+00  0.74505805969E-08  0.10566000000E+00  0.10566000000E+00 0.  1.
     999900   -1    0    0    0    0 -0.00000000000E+00 -0.00000000000E+00 -0.74505805969E-08  0.93827000000E+00  0.93827000000E+00 0.  1.
     999902    2    1    2    0    0  0.75362241964E-02 -0.24541990992E-02  0.11585015040E-01  0.10298932503E+01  0.10297975902E+01 0.  0.
     999903    2    3    3    0    0 -0.43356330840E-01  0.10272618797E+00 -0.68588465631E-01  0.13855675213E+00  0.45399942998E-01 0.  0.
         14    1    1    2    0    0 -0.75362241964E-02  0.24541990992E-02 -0.11585015040E-01  0.14036749689E-01  0.00000000000E+00 0. -1.
     999901    1    3    3    0    0  0.50892555037E-01 -0.10518038707E+00  0.80173480671E-01  0.89133649818E+00  0.88000000000E+00 0. -1.
        -11    1    4    4    0    0 -0.25555120838E-01  0.12556699816E-01 -0.16297972473E-01  0.32811887161E-01  0.51100000000E-03 0.  1.
         11    1    4    4    0    0 -0.17801210002E-01  0.90169488157E-01 -0.52290493158E-01  0.10574486497E+00  0.51100000000E-03 0. -1.
</event>
<event>
 8    1  0.2025822E+004  0.1043930E+01  0.7957747E-01            NaN
         13   -1    0    0    0    0  0.00000000000E+00  0.00000000000E+00  0.74505805969E-08  0.10566000000E+00  0.10566000000E+00 0.  1.
     999900   -1    0    0    0    0 -0.00000000000E+00 -0.00000000000E+00 -0.74505805969E-08  0.93827000000E+00  0.93827000000E+00 0. -1.
     999902    2    1    2    0    0  0.95029116361E-02  0.68056517322E-02 -0.73171585450E-02  0.10301400386E+01  0.10300477349E+01 0.  0.
     999903    2    3    3    0    0  0.13367762288E+00  0.32106199634E-03  0.43789275012E-02  0.14132160542E+00  0.45637826544E-01 0.  0.
         14    1    1    2    0    0 -0.95029116361E-02 -0.68056517322E-02  0.73171585450E-02  0.13789961357E-01  0.00000000000E+00 0.  1.
     999901    1    3    3    0    0 -0.12417471124E+00  0.64845897359E-02 -0.11696086046E-01  0.88881843323E+00  0.88000000000E+00 0.  1.
        -11    1    4    4    0    0  0.58006345935E-01 -0.21558849499E-01  0.83657139297E-02  0.62448110067E-01  0.51100000000E-03 0. -1.
         11    1    4    4    0    0  0.75671276944E-01  0.21879911495E-01 -0.39867864285E-02  0.78873495348E-01  0.51100000000E-03 0.  1.
</event>
<event>
 8    1  0.2025822E+004  0.1043930E+01  0.7957747E-01            NaN
         13   -1    0    0    0    0  0.00000000000E+00  0.00000000000E+00  0.74505805969E-08  0.10566000000E+00  0.10566000000E+00 0.  1.
     999900   -1    0    0    0    0 -0.00000000000E+00 -0.00000000000E+00 -0.74505805969E-08  0.93827000000E+00  0.93827000000E+00 0. -1.
     999902    2    1    2    0    0 -0.86368264952E-02 -0.16367135083E-02  0.10737689860E-01  0.10300529835E+01  0.10299595027E+01 0.  0.
     999903    2    3    3    0    0  0.56718572358E-01 -0.35027782249E-01 -0.11210763951E+00  0.13849408665E+00  0.46567662818E-01 0.  0.
         14    1    1    2    0    0  0.86368264952E-02  0.16367135083E-02 -0.10737689860E-01  0.13877016485E-01  0.00000000000E+00 0. -1.
     999901    1    3    3    0    0 -0.65355398853E-01  0.33391068741E-01  0.12284532937E+00  0.89155889687E+00  0.88000000000E+00 0.  1.
        -11    1    4    4    0    0  0.80957274718E-02  0.10513559113E-01 -0.10211739781E-01  0.16751611232E-01  0.51100000000E-03 0.  1.
         11    1    4    4    0    0  0.48622844886E-01 -0.45541341362E-01 -0.10189589973E+00  0.12174247542E+00  0.51100000000E-03 0. -1.
</event>
<event>
 8    1  0.2025822E+004  0.1043930E+01  0.7957747E-01            NaN
         13   -1    0    0    0    0  0.00000000000E+00  0.00000000000E+00  0.74505805969E-08  0.10566000000E+00  0.10566000000E+00 0.  1.
     999900   -1    0    0    0    0 -0.00000000000E+00 -0.00000000000E+00 -0.74505805969E-08  0.93827000000E+00  0.93827000000E+00 0.  1.
     999902    2    1    2    0    0 -0.66123281727E-02 -0.86734630184E-02 -0.11457354606E-01  0.10281115671E+01  0.10279898694E+01 0.  0.
     999903    2    3    3    0    0  0.45390658439E-01 -0.72698806699E-01  0.98962355024E-01  0.13738373689E+00  0.41657113211E-01 0.  0.
         14    1    1    2    0    0  0.66123281727E-02  0.86734630184E-02  0.11457354606E-01  0.15818432892E-01  0.00000000000E+00 0.  1.
     999901    1    3    3    0    0 -0.52002986612E-01  0.64025343680E-01 -0.11041970963E+00  0.89072783022E+00  0.88000000000E+00 0.  1.
        -11    1    4    4    0    0  0.50034553542E-01 -0.47904651143E-01  0.64328917933E-01  0.94534559568E-01  0.51100000000E-03 0.  1.
         11    1    4    4    0    0 -0.46438951031E-02 -0.24794155556E-01  0.34633437091E-01  0.42849177323E-01  0.51100000000E-03 0. -1.
</event>
<event>
 8    1  0.2025822E+004  0.1043930E+01  0.7957747E-01            NaN
         13   -1    0    0    0    0  0.00000000000E+00  0.00000000000E+00  0.74505805969E-08  0.10566000000E+00  0.10566000000E+00 0.  1.
     999900   -1    0    0    0    0 -0.00000000000E+00 -0.00000000000E+00 -0.74505805969E-08  0.93827000000E+00  0.93827000000E+00 0. -1.
     999902    2    1    2    0    0 -0.12391944301E-01 -0.56910283209E-02 -0.37314465830E-02  0.10297923983E+01  0.10296953491E+01 0.  0.
     999903    2    3    3    0    0  0.41809616536E-01 -0.12046766065E+00 -0.36342389331E-01  0.14008741459E+00  0.45201915538E-01 0.  0.
         14    1    1    2    0    0  0.12391944301E-01  0.56910283209E-02  0.37314465830E-02  0.14137601654E-01  0.00000000000E+00 0. -1.
     999901    1    3    3    0    0 -0.54201560837E-01  0.11477663233E+00  0.32610942748E-01  0.88970498375E+00  0.88000000000E+00 0. -1.
        -11    1    4    4    0    0  0.24837004193E-01 -0.38371996641E-01  0.61099635285E-02  0.46118105759E-01  0.51100000000E-03 0. -1.
         11    1    4    4    0    0  0.16972612343E-01 -0.82095664008E-01 -0.42452352860E-01  0.93969308836E-01  0.51100000000E-03 0.  1.
</event>
<event>
 8    1  0.2025822E+004  0.1043930E+01  0.7957747E-01            NaN
         13   -1    0    0    0    0  0.00000000000E+00  0.00000000000E+00  0.74505805969E-08  0.10566000000E+00  0.10566000000E+00 0.  1.
     999900   -1    0    0    0    0 -0.00000000000E+00 -0.00000000000E+00 -0.74505805969E-08  0.93827000000E+00  0.93827000000E+00 0.  1.
     999902    2    1    2    0    0  0.65754698507E-02 -0.63757142496E-02 -0.10079601538E-01  0.10303107158E+01  0.10302206978E+01 0.  0.
     999903    2    3    3    0    0  0.48847642408E-01 -0.18125877154E-01  0.12159099155E+00  0.13943353681E+00  0.44076097495E-01 0.  0.
         14    1    1    2    0    0 -0.65754698507E-02  0.63757142496E-02  0.10079601538E-01  0.13619284236E-01  0.00000000000E+00 0. -1.
     999901    1    3    3    0    0 -0.42272172557E-01  0.11750162904E-01 -0.13167059308E+00  0.89087717896E+00  0.88000000000E+00 0.  1.
        -11    1    4    4    0    0  0.56296653995E-01 -0.10640782552E-01  0.96858049299E-01  0.11253569362E+00  0.51100000000E-03 0.  1.
         11    1    4    4    0    0 -0.74490115865E-02 -0.74850946018E-02  0.24732942247E-01  0.26897843185E-01  0.51100000000E-03 0. -1.
</event>
<event>
 8    1  0.2025822E+004  0.1043930E+01  0.7957747E-01            NaN
         13   -1    0    0    0    0  0.00000000000E+00  0.00000000000E+00  0.74505805969E-08  0.10566000000E+00  0.10566000000E+00 0.  1.
     999900   -1    0    0    0    0 -0.00000000000E+00 -0.00000000000E+00 -0.74505805969E-08  0.93827000000E+00  0.93827000000E+00 0. -1.
     999902    2    1    2    0    0  0.19610363296E-01  0.36675797792E-02 -0.33378775810E-02  0.10237023230E+01  0.10235024608E+01 0.  0.
     999903    2    3    3    0    0 -0.12139940414E+00 -0.17824980766E-01  0.15314853258E-01  0.13202210620E+00  0.46257394312E-01 0.  0.
         14    1    1    2    0    0 -0.19610363296E-01 -0.36675797792E-02  0.33378775810E-02  0.20227676999E-01  0.00000000000E+00 0. -1.
     999901    1    3    3    0    0  0.14100976744E+00  0.21492560546E-01 -0.18652730839E-01  0.89168021680E+00  0.88000000000E+00 0. -1.
        -11    1    4    4    0    0 -0.35767100722E-01  0.15550999993E-01  0.80529719033E-02  0.39827510245E-01  0.51100000000E-03 0. -1.
         11    1    4    4    0    0 -0.85632303422E-01 -0.33375980759E-01  0.72618813550E-02  0.92194595952E-01  0.51100000000E-03 0.  1.
</event>
<event>
 8    1  0.2025822E+004  0.1043930E+01  0.7957747E-01            NaN
         13   -1    0    0    0    0  0.00000000000E+00  0.00000000000E+00  0.74505805969E-08  0.10566000000E+00  0.10566000000E+00 0.  1.
     999900   -1    0    0    0    0 -0.00000000000E+00 -0.00000000000E+00 -0.74505805969E-08  0.93827000000E+00  0.93827000000E+00 0. -1.
     999902    2    1    2    0    0 -0.10521947666E-01  0.51652611612E-02  0.71135555428E-02  0.10302189104E+01  0.10301276665E+01 0.  0.
     999903    2    3    3    0    0 -0.83521016266E-01  0.10543183971E-01 -0.10292835632E+00  0.14034981416E+00  0.44909964539E-01 0.  0.
         14    1    1    2    0    0  0.10521947666E-01 -0.51652611612E-02 -0.71135555428E-02  0.13711089600E-01  0.00000000000E+00 0.  1.
     999901    1    3    3    0    0  0.72999068599E-01 -0.53779228099E-02  0.11004191186E+00  0.88986909624E+00  0.88000000000E+00 0.  1.
        -11    1    4    4    0    0 -0.27396444124E-01  0.23340563319E-01 -0.26651093312E-01  0.44787151532E-01  0.51100000000E-03 0.  1.
         11    1    4    4    0    0 -0.56124572142E-01 -0.12797379348E-01 -0.76277263007E-01  0.95562662631E-01  0.51100000000E-03 0. -1.
</event>
<event>
 8    1  0.2025822E+004  0.1043930E+01  0.7957747E-01            NaN
         13   -1    0    0    0    0  0.00000000000E+00  0.00000000000E+00  0.74505805969E-08  0.10566000000E+00  0.10566000000E+00 0.  1.
     999900   -1    0    0    0    0 -0.00000000000E+00 -0.00000000000E+00 -0.74505805969E-08  0.93827000000E+00  0.93827000000E+00 0. -1.
     999902    2    1    2    0    0  0.15951821105E-02 -0.38397249925E-02  0.12466213435E-01  0.10307886693E+01  0.10307048978E+01 0.  0.
     999903    2    3    3    0    0 -0.91510567293E-01 -0.17496739704E-01 -0.92050248114E-01  0.13962152152E+00  0.48379760931E-01 0.  0.
         14    1    1    2    0    0 -0.15951821105E-02  0.38397249925E-02 -0.12466213435E-01  0.13141330656E-01  0.00000000000E+00 0. -1.
     999901    1    3    3    0    0  0.93105749403E-01  0.13657014712E-01  0.10451646155E+00  0.89116714782E+00  0.88000000000E+00 0.  1.
        -11    1    4    4    0    0 -0.49855602210E-01  0.12906494510E-01 -0.32751749107E-01  0.61033571605E-01  0.51100000000E-03 0. -1.
         11    1    4    4    0    0 -0.41654965083E-01 -0.30403234214E-01 -0.59298499007E-01  0.78587949918E-01  0.51100000000E-03 0.  1.
</event>
<event>
 8    1  0.2025822E+004  0.1043930E+01  0.7957747E-01            NaN
         13   -1    0    0    0    0  0.00000000000E+00  0.00000000000E+00  0.74505805969E-08  0.10566000000E+00  0.10566000000E+00 0.  1.
     999900   -1    0    0    0    0 -0.00000000000E+00 -0.00000000000E+00 -0.74505805969E-08  0.93827000000E+00  0.93827000000E+00 0. -1.
     999902    2    1    2    0    0  0.59140034641E-02 -0.34907849803E-02  0.11981382512E-01  0.10301200563E+01  0.10300274831E+01 0.  0.
     999903    2    3    3    0    0  0.24957226129E-01  0.40496770763E-01  0.12534060859E+00  0.14155499766E+00  0.45438943894E-01 0.  0.
         14    1    1    2    0    0 -0.59140034641E-02  0.34907849803E-02 -0.11981382512E-01  0.13809943651E-01  0.00000000000E+00 0. -1.
     999901    1    3    3    0    0 -0.19043222665E-01 -0.43987555743E-01 -0.11335922608E+00  0.88856505869E+00  0.88000000000E+00 0. -1.
        -11    1    4    4    0    0 -0.12202709870E-01  0.19582490770E-01  0.46954863868E-01  0.52320172351E-01  0.51100000000E-03 0.  1.
         11    1    4    4    0    0  0.37159936000E-01  0.20914279992E-01  0.78385744721E-01  0.89234825307E-01  0.51100000000E-03 0. -1.
</event>
<event>
 8    1  0.2025822E+004  0.1043930E+01  0.7957747E-01            NaN
         13   -1    0    0    0    0  0.00000000000E+00  0.00000000000E+00  0.74505805969E-08  0.10566000000E+00  0.10566000000E+00 0. -1.
     999900   -1    0    0    0    0 -0.00000000000E+00 -0.00000000000E+00 -0.74505805969E-08  0.93827000000E+00  0.93827000000E+00 0.  1.
     999902    2    1    2    0    0  0.10959275226E-01 -0.51783408223E-02 -0.73796747775E-02  0.10297391393E+01  0.10296413524E+01 0.  0.
     999903    2    3    3    0    0 -0.10354767534E+00  0.69166548322E-01 -0.41106319254E-01  0.13857333498E+00  0.44796285660E-01 0.  0.
         14    1    1    2    0    0 -0.10959275226E-01  0.51783408223E-02  0.73796747775E-02  0.14190860684E-01  0.00000000000E+00 0. -1.
     999901    1    3    3    0    0  0.11450695057E+00 -0.74344889144E-01  0.33726644477E-01  0.89116580434E+00  0.88000000000E+00 0. -1.
        -11    1    4    4    0    0 -0.61020917542E-02  0.23921969886E-01 -0.10727397047E-01  0.26922747545E-01  0.51100000000E-03 0. -1.
         11    1    4    4    0    0 -0.97445583589E-01  0.45244578436E-01 -0.30378922207E-01  0.11165058743E+00  0.51100000000E-03 0.  1.
</event>
<event>
 8    1  0.2025822E+004  0.1043930E+01  0.7957747E-01            NaN
         13   -1    0    0    0    0  0.00000000000E+00  0.00000000000E+00  0.74505805969E-08  0.10566000000E+00  0.10566000000E+00 0. -1.
     999900   -1    0    0    0    0 -0.00000000000E+00 -0.00000000000E+00 -0.74505805969E-08  0.93827000000E+00  0.93827000000E+00 0. -1.
     999902    2    1    2    0    0  0.62350893192E-02 -0.11681161991E-01 -0.48623355673E-02  0.10298243915E+01  0.10297277840E+01 0.  0.
     999903    2    3    3    0    0  0.34031888008E-01 -0.91104971689E-01 -0.92456729580E-01  0.14148122501E+00  0.44837539167E-01 0.  0.
         14    1    1    2    0    0 -0.62350893192E-02  0.11681161991E-01  0.48623355673E-02  0.14105608510E-01  0.00000000000E+00 0. -1.
     999901    1    3    3    0    0 -0.27796798689E-01  0.79423809699E-01  0.87594394012E-01  0.88834316648E+00  0.88000000000E+00 0.  1.
        -11    1    4    4    0    0 -0.86533036440E-02 -0.26609417180E-01 -0.13928311963E-01  0.31260194205E-01  0.51100000000E-03 0. -1.
         11    1    4    4    0    0  0.42685191652E-01 -0.64495554510E-01 -0.78528417616E-01  0.11022103081E+00  0.51100000000E-03 0.  1.
</event>
<event>
 8    1  0.2025822E+004  0.1043930E+01  0.7957747E-01            NaN
         13   -1    0    0    0    0  0.00000000000E+00  0.00000000000E+00  0.74505805969E-08  0.10566000000E+00  0.10566000000E+00 0.  1.
     999900   -1    0    0    0    0 -0.00000000000E+00 -0.00000000000E+00 -0.74505805969E-08  0.93827000000E+00  0.93827000000E+00 0. -1.
     999902    2    1    2    0    0  0.11172170721E-01  0.93984042570E-02 -0.14204546796E-02  0.10292614932E+01  0.10291569638E+01 0.  0.
     999903    2    3    3    0    0  0.11465150744E+00 -0.44432295355E-01  0.46471998068E-01  0.14027363927E+00  0.48967849054E-01 0.  0.
         14    1    1    2    0    0 -0.11172170721E-01 -0.93984042570E-02  0.14204546796E-02  0.14668506832E-01  0.00000000000E+00 0. -1.
     999901    1    3    3    0    0 -0.10347933672E+00  0.53830699612E-01 -0.47892452747E-01  0.88898785390E+00  0.88000000000E+00 0. -1.
        -11    1    4    4    0    0  0.15219260383E-01 -0.63290882048E-02  0.27568931981E-01  0.32124607012E-01  0.51100000000E-03 0.  1.
         11    1    4    4    0    0  0.99432247056E-01 -0.38103207150E-01  0.18903066086E-01  0.10814903226E+00  0.51100000000E-03 0. -1.
</event>
<event>
 8    1  0.2025822E+004  0.1043930E+01  0.7957747E-01            NaN
         13   -1    0    0    0    0  0.00000000000E+00  0.00000000000E+00  0.74505805969E-08  0.10566000000E+00  0.10566000000E+00 0. -1.
     999900   -1    0    0    0    0 -0.00000000000E+00 -0.00000000000E+00 -0.74505805969E-08  0.93827000000E+00  0.93827000000E+00 0.  1.
     999902    2    1    2    0    0  0.20859093784E-02 -0.85875365776E-02  0.10300359020E-01  0.10303581837E+01  0.10302687962E+01 0.  0.
     999903    2    3    3    0    0 -0.10929425806E+00  0.35826199836E-01 -0.63933629169E-01  0.13912936531E+00  0.45174328041E-01 0.  0.
         14    1    1    2    0    0 -0.20859093784E-02  0.85875365776E-02 -0.10300359020E-01  0.13571816325E-01  0.00000000000E+00 0.  1.
     999901    1    3    3    0    0  0.11138016744E+00 -0.44413736414E-01  0.74233988189E-01  0.89122881836E+00  0.88000000000E+00 0. -1.
        -11    1    4    4    0    0 -0.98133387014E-01  0.14153256516E-01 -0.52646809958E-01  0.11226051860E+00  0.51100000000E-03 0.  1.
         11    1    4    4    0    0 -0.11160871044E-01  0.21672943320E-01 -0.11286819211E-01  0.26868846710E-01  0.51100000000E-03 0. -1.
</event>
<event>
 8    1  0.2025822E+004  0.1043930E+01  0.7957747E-01            NaN
         13   -1    0    0    0    0  0.00000000000E+00  0.00000000000E+00  0.74505805969E-08  0.10566000000E+00  0.10566000000E+00 0.  1.
     999900   -1    0    0    0    0 -0.00000000000E+00 -0.00000000000E+00 -0.74505805969E-08  0.93827000000E+00  0.93827000000E+00 0.  1.
     999902    2    1    2    0    0  0.78220072109E-02  0.25224282484E-02 -0.10955322192E-01  0.10302345436E+01  0.10301435091E+01 0.  0.
     999903    2    3    3    0    0 -0.13137168484E+00  0.11441858310E-01  0.34206811038E-02  0.13913347774E+00  0.44237855610E-01 0.  0.
         14    1    1    2    0    0 -0.78220072109E-02 -0.25224282484E-02  0.10955322192E-01  0.13695456378E-01  0.00000000000E+00 0.  1.
     999901    1    3    3    0    0  0.13919369206E+00 -0.89194300616E-02 -0.14376003296E-01  0.89110106588E+00  0.88000000000E+00 0.  1.
        -11    1    4    4    0    0 -0.22076110601E-01 -0.29572614832E-02 -0.15688082736E-01  0.27248433270E-01  0.51100000000E-03 0.  1.
         11    1    4    4    0    0 -0.10929557424E+00  0.14399119793E-01  0.19108763840E-01  0.11188504447E+00  0.51100000000E-03 0. -1.
</event>
<event>
 8    1  0.2025822E+004  0.1043930E+01  0.7957747E-01            NaN
         13   -1    0    0    0    0  0.00000000000E+00  0.00000000000E+00  0.74505805969E-08  0.10566000000E+00  0.10566000000E+00 0.  1.
     999900   -1    0    0    0    0 -0.00000000000E+00 -0.00000000000E+00 -0.74505805969E-08  0.93827000000E+00  0.93827000000E+00 0. -1.
     999902    2    1    2    0    0 -0.13711580600E-01  0.36466802359E-04 -0.35707620317E-02  0.10297610511E+01  0.10296635680E+01 0.  0.
     999903    2    3    3    0    0  0.87119397589E-01 -0.95606440070E-01  0.21813466261E-01  0.13849295961E+00  0.44430752109E-01 0.  0.
         14    1    1    2    0    0  0.13711580600E-01 -0.36466802359E-04  0.35707620317E-02  0.14168948933E-01  0.00000000000E+00 0.  1.
     999901    1    3    3    0    0 -0.10083097819E+00  0.95642906872E-01 -0.25384228293E-01  0.89126809145E+00  0.88000000000E+00 0. -1.
        -11    1    4    4    0    0  0.30328082766E-02 -0.26672707338E-01  0.11711673574E-01  0.29292587146E-01  0.51100000000E-03 0. -1.
         11    1    4    4    0    0  0.84086589312E-01 -0.68933732732E-01  0.10101792687E-01  0.10920037247E+00  0.51100000000E-03 0.  1.
</event>
<event>
 8    1  0.2025822E+004  0.1043930E+01  0.7957747E-01            NaN
         13   -1    0    0    0    0  0.00000000000E+00  0.00000000000E+00  0.74505805969E-08  0.10566000000E+00  0.10566000000E+00 0.  1.
     999900   -1    0    0    0    0 -0.00000000000E+00 -0.00000000000E+00 -0.74505805969E-08  0.93827000000E+00  0.93827000000E+00 0. -1.
     999902    2    1    2    0    0  0.53718178944E-02  0.11652310021E-01 -0.69108806492E-02  0.10293562898E+01  0.10292531168E+01 0.  0.
     999903    2    3    3    0    0  0.29242408736E-01  0.31395880038E-02 -0.12978977068E+00  0.14045725556E+00  0.44920825731E-01 0.  0.
         14    1    1    2    0    0 -0.53718178944E-02 -0.11652310021E-01  0.69108806492E-02  0.14573710154E-01  0.00000000000E+00 0. -1.
     999901    1    3    3    0    0 -0.23870590842E-01  0.85127220171E-02  0.12287889003E+00  0.88889903429E+00  0.88000000000E+00 0.  1.
        -11    1    4    4    0    0  0.38521193881E-01  0.62442064318E-02 -0.72512337839E-01  0.82347876426E-01  0.51100000000E-03 0.  1.
         11    1    4    4    0    0 -0.92787851445E-02 -0.31046184279E-02 -0.57277432840E-01  0.58109379132E-01  0.51100000000E-03 0. -1.
</event>
<event>
 8    1  0.2025822E+004  0.1043930E+01  0.7957747E-01            NaN
         13   -1    0    0    0    0  0.00000000000E+00  0.00000000000E+00  0.74505805969E-08  0.10566000000E+00  0.10566000000E+00 0.  1.
     999900   -1    0    0    0    0 -0.00000000000E+00 -0.00000000000E+00 -0.74505805969E-08  0.93827000000E+00  0.93827000000E+00 0. -1.
     999902    2    1    2    0    0  0.45434567645E-02  0.13739446125E-01  0.24323050605E-02  0.10292558224E+01  0.10291512117E+01 0.  0.
     999903    2    3    3    0    0 -0.32515496759E-01  0.35091409460E-02  0.12810721246E+00  0.13949618775E+00  0.44476475945E-01 0.  0.
         14    1    1    2    0    0 -0.45434567645E-02 -0.13739446125E-01 -0.24323050605E-02  0.14674177561E-01  0.00000000000E+00 0.  1.
     999901    1    3    3    0    0  0.37058953524E-01  0.10230305179E-01 -0.12567490740E+00  0.88975963469E+00  0.88000000000E+00 0. -1.
        -11    1    4    4    0    0 -0.42544805344E-01 -0.10264795329E-02  0.85776641781E-01  0.95754934694E-01  0.51100000000E-03 0. -1.
         11    1    4    4    0    0  0.10029308585E-01  0.45356204788E-02  0.42330570676E-01  0.43741253052E-01  0.51100000000E-03 0.  1.
</event>
<event>
 8    1  0.2025822E+004  0.1043930E+01  0.7957747E-01            NaN
         13   -1    0    0    0    0  0.00000000000E+00  0.00000000000E+00  0.74505805969E-08  0.10566000000E+00  0.10566000000E+00 0.  1.
     999900   -1    0    0    0    0 -0.00000000000E+00 -0.00000000000E+00 -0.74505805969E-08  0.93827000000E+00  0.93827000000E+00 0.  1.
     999902    2    1    2    0    0 -0.13976520808E-01  0.58828041270E-03  0.28901289506E-02  0.10296456711E+01  0.10295465827E+01 0.  0.
     999903    2    3    3    0    0 -0.89806867089E-01  0.23982042206E-01 -0.95457491836E-01  0.14061824515E+00  0.44954937415E-01 0.  0.
         14    1    1    2    0    0  0.13976520808E-01 -0.58828041270E-03 -0.28901289506E-02  0.14284328934E-01  0.00000000000E+00 0. -1.
     999901    1    3    3    0    0  0.75830346281E-01 -0.23393761794E-01  0.98347620787E-01  0.88902742591E+00  0.88000000000E+00 0. -1.
        -11    1    4    4    0    0 -0.41033774364E-01  0.22348261966E-01 -0.73516071301E-01  0.87109639604E-01  0.51100000000E-03 0. -1.
         11    1    4    4    0    0 -0.48773092725E-01  0.16337802402E-02 -0.21941420535E-01  0.53508605550E-01  0.51100000000E-03 0.  1.
</event>
<event>
 8    1  0.2025822E+004  0.1043930E+01  0.7957747E-01            NaN
         13   -1    0    0    0    0  0.00000000000E+00  0.00000000000E+00  0.74505805969E-08  0.10566000000E+00  0.10566000000E+00 0. -1.
     999900   -1    0    0    0    0 -0.00000000000E+00 -0.00000000000E+00 -0.74505805969E-08  0.93827000000E+00  0.93827000000E+00 0.  1.
     999902    2    1    2    0    0  0.10280117500E-01  0.15804104871E-01  0.45556827646E-02  0.10245340006E+01  0.10243503862E+01 0.  0.
     999903    2    3    3    0    0 -0.42045219108E-01 -0.80046483614E-01 -0.87435060359E-01  0.13302540673E+00  0.43308533405E-01 0.  0.
         14    1    1    2    0    0 -0.10280117500E-01 -0.15804104871E-01 -0.45556827646E-02  0.19395999382E-01  0.00000000000E+00 0.  1.
     999901    1    3    3    0    0  0.52325336608E-01  0.95850588484E-01  0.91990743124E-01  0.89150859389E+00  0.88000000000E+00 0. -1.
        -11    1    4    4    0    0  0.11068115586E-02 -0.43901562882E-01 -0.40264121786E-01  0.59582152357E-01  0.51100000000E-03 0. -1.
         11    1    4    4    0    0 -0.43152030667E-01 -0.36144920732E-01 -0.47170938573E-01  0.73443254368E-01  0.51100000000E-03 0.  1.
</event>
<event>
 8    1  0.2025822E+004  0.1043930E+01  0.7957747E-01            NaN
         13   -1    0    0    0    0  0.00000000000E+00  0.00000000000E+00  0.74505805969E-08  0.10566000000E+00  0.10566000000E+00 0. -1.
     999900   -1    0    0    0    0 -0.00000000000E+00 -0.00000000000E+00 -0.74505805969E-08  0.93827000000E+00  0.93827000000E+00 0. -1.
     999902    2    1    2    0    0 -0.77738709931E-02 -0.57580983447E-02 -0.10798918179E-01  0.10294315380E+01  0.10293294351E+01 0.  0.
     999903    2    3    3    0    0 -0.11320262373E-01 -0.11292675177E+00 -0.71207996574E-01  0.14086699114E+00  0.43500928867E-01 0.  0.
         14    1    1    2    0    0  0.77738709931E-02  0.57580983447E-02  0.10798918179E-01  0.14498462008E-01  0.00000000000E+00 0. -1.
     999901    1    3    3    0    0  0.35463913799E-02  0.10716865342E+00  0.60409078395E-01  0.88856454685E+00  0.88000000000E+00 0.  1.
        -11    1    4    4    0    0  0.12029294767E-01 -0.15098316256E-01 -0.20736425147E-01  0.28335905407E-01  0.51100000000E-03 0.  1.
         11    1    4    4    0    0 -0.23349557140E-01 -0.97828435511E-01 -0.50471571427E-01  0.11253108573E+00  0.51100000000E-03 0. -1.
</event>
<event>
 8    1  0.2025822E+004  0.1043930E+01  0.7957747E-01            NaN
         13   -1    0    0    0    0  0.00000000000E+00  0.00000000000E+00  0.74505805969E-08  0.10566000000E+00  0.10566000000E+00 0. -1.
     999900   -1    0    0    0    0 -0.00000000000E+00 -0.00000000000E+00 -0.74505805969E-08  0.93827000000E+00  0.93827000000E+00 0.  1.
     999902    2    1    2    0    0  0.66140038284E-02  0.27741025759E-02 -0.11676064238E-01  0.10302270380E+01  0.10301359030E+01 0.  0.
     999903    2    3    3    0    0  0.17782177479E-01  0.10432887217E+00 -0.82527810782E-01  0.14148744209E+00  0.44801086061E-01 0.  0.
         14    1    1    2    0    0 -0.66140038284E-02 -0.27741025759E-02  0.11676064238E-01  0.13702962009E-01  0.00000000000E+00 0. -1.
     999901    1    3    3    0    0 -0.11168173651E-01 -0.10155476960E+00  0.70851746544E-01  0.88873959590E+00  0.88000000000E+00 0. -1.
        -11    1    4    4    0    0  0.19451845310E-02  0.95669422165E-01 -0.61403607343E-01  0.11369734472E+00  0.51100000000E-03 0.  1.
         11    1    4    4    0    0  0.15836992948E-01  0.86594500086E-02 -0.21124203439E-01  0.27790097373E-01  0.51100000000E-03 0. -1.
</event>
<event>
 8    1  0.2025822E+004  0.1043930E+01  0.7957747E-01            NaN
         13   -1    0    0    0    0  0.00000000000E+00  0.00000000000E+00  0.74505805969E-08  0.10566000000E+00  0.10566000000E+00 0. -1.
     999900   -1    0    0    0    0 -0.00000000000E+00 -0.00000000000E+00 -0.74505805969E-08  0.93827000000E+00  0.93827000000E+00 0. -1.
     999902    2    1    2    0    0 -0.14146735958E-01  0.95264895427E-02  0.15793340248E-02  0.10268017065E+01  0.10266588363E+01 0.  0.
     999903    2    3    3    0    0 -0.10693458579E+00 -0.29225904068E-01 -0.69562009383E-01  0.13822282774E+00  0.44469291115E-01 0.  0.
         14    1    1    2    0    0  0.14146735958E-01 -0.95264895427E-02 -0.15793340248E-02  0.17128293471E-01  0.00000000000E+00 0. -1.
     999901    1    3    3    0    0  0.92787849833E-01  0.38752393611E-01  0.71141343408E-01  0.88857887879E+00  0.88000000000E+00 0.  1.
        -11    1    4    4    0    0 -0.62390431502E-01 -0.38797649771E-01 -0.37332228594E-01  0.82412256271E-01  0.51100000000E-03 0.  1.
         11    1    4    4    0    0 -0.44544154289E-01  0.95717457029E-02 -0.32229780789E-01  0.55810571470E-01  0.51100000000E-03 0. -1.
</event>
<event>
 8    1  0.2025822E+004  0.1043930E+01  0.7957747E-01            NaN
         13   -1    0    0    0    0  0.00000000000E+00  0.00000000000E+00  0.74505805969E-08  0.10566000000E+00  0.10566000000E+00 0. -1.
     999900   -1    0    0    0    0 -0.00000000000E+00 -0.00000000000E+00 -0.74505805969E-08  0.93827000000E+00  0.93827000000E+00 0.  1.
     999902    2    1    2    0    0 -0.23964194464E-03 -0.21156968979E-02  0.14078567253E-01  0.10296913323E+01  0.10295928808E+01 0.  0.
     999903    2    3    3    0    0 -0.96747065881E-01 -0.26901940894E-01  0.88190893379E-01  0.14097277301E+00  0.44855098645E-01 0.  0.
         14    1    1    2    0    0  0.23964194464E-03  0.21156968979E-02 -0.14078567253E-01  0.14238667688E-01  0.00000000000E+00 0.  1.
     999901    1    3    3    0    0  0.96507423936E-01  0.24786243996E-01 -0.74112326125E-01  0.88871855930E+00  0.88000000000E+00 0.  1.
        -11    1    4    4    0    0 -0.66393890278E-01 -0.14725020957E-01  0.30241646721E-01  0.74429787222E-01  0.51100000000E-03 0.  1.
         11    1    4    4    0    0 -0.30353175603E-01 -0.12176919937E-01  0.57949246657E-01  0.66542985787E-01  0.51100000000E-03 0. -1.
</event>
<event>
 8    1  0.2025822E+004  0.1043930E+01  0.7957747E-01            NaN
         13   -1    0    0    0    0  0.00000000000E+00  0.00000000000E+00  0.74505805969E-08  0.10566000000E+00  0.10566000000E+00 0.  1.
     999900   -1    0    0    0    0 -0.00000000000E+00 -0.00000000000E+00 -0.74505805969E-08  0.93827000000E+00  0.93827000000E+00 0. -1.
     999902    2    1    2    0    0 -0.13324659909E-01  0.14828102435E-02 -0.27090618790E-02  0.10302521236E+01  0.10301613242E+01 0.  0.
     999903    2    3    3    0    0  0.52047839394E-02 -0.11069024397E+00 -0.72976062043E-01  0.14016022622E+00  0.45165955062E-01 0.  0.
         14    1    1    2    0    0  0.13324659909E-01 -0.14828102435E-02  0.27090618790E-02  0.13677876449E-01  0.00000000000E+00 0.  1.
     999901    1    3    3    0    0 -0.18529443848E-01  0.11217305421E+00  0.70267000164E-01  0.89009189733E+00  0.88000000000E+00 0.  1.
        -11    1    4    4    0    0  0.24293081497E-01 -0.51503649113E-01 -0.28343570445E-01  0.63611310214E-01  0.51100000000E-03 0.  1.
         11    1    4    4    0    0 -0.19088297558E-01 -0.59186594858E-01 -0.44632491597E-01  0.76548916006E-01  0.51100000000E-03 0. -1.
</event>
<event>
 8    1  0.2025822E+004  0.1043930E+01  0.7957747E-01            NaN
         13   -1    0    0    0    0  0.00000000000E+00  0.00000000000E+00  0.74505805969E-08  0.10566000000E+00  0.10566000000E+00 0.  1.
     999900   -1    0    0    0    0 -0.00000000000E+00 -0.00000000000E+00 -0.74505805969E-08  0.93827000000E+00  0.93827000000E+00 0.  1.
     999902    2    1    2    0    0  0.79987938222E-02  0.85747826365E-02  0.75651328144E-02  0.10299751143E+01  0.10298805743E+01 0.  0.
     999903    2    3    3    0    0 -0.31429542849E-01  0.12922119949E+00 -0.81771094571E-02  0.14072938348E+00  0.45298561712E-01 0.  0.
         14    1    1    2    0    0 -0.79987938222E-02 -0.85747826365E-02 -0.75651328144E-02  0.13954885681E-01  0.00000000000E+00 0. -1.
     999901    1    3    3    0    0  0.39428336672E-01 -0.12064641685E+00  0.15742242272E-01  0.88924573084E+00  0.88000000000E+00 0. -1.
        -11    1    4    4    0    0 -0.27537506798E-02  0.25623772167E-02 -0.10163004001E-01  0.10848810586E-01  0.51100000000E-03 0. -1.
         11    1    4    4    0    0 -0.28675792170E-01  0.12665882227E+00  0.19858945438E-02  0.12988057289E+00  0.51100000000E-03 0.  1.
</event>
<event>
 8    1  0.2025822E+004  0.1043930E+01  0.7957747E-01            NaN
         13   -1    0    0    0    0  0.00000000000E+00  0.00000000000E+00  0.74505805969E-08  0.10566000000E+00  0.10566000000E+00 0. -1.
     999900   -1    0    0    0    0 -0.00000000000E+00 -0.00000000000E+00 -0.74505805969E-08  0.93827000000E+00  0.93827000000E+00 0.  1.
     999902    2    1    2    0    0 -0.20336893222E-02  0.81403695562E-02  0.11915252438E-01  0.10293569170E+01  0.10292537528E+01 0.  0.
     999903    2    3    3    0    0 -0.54123328114E-01 -0.59168999396E-01  0.10607214773E+00  0.14025096008E+00  0.44595135886E-01 0.  0.
         14    1    1    2    0    0  0.20336893222E-02 -0.81403695562E-02 -0.11915252438E-01  0.14573083044E-01  0.00000000000E+00 0.  1.
     999901    1    3    3    0    0  0.52089638792E-01  0.67309368953E-01 -0.94156895290E-01  0.88910595687E+00  0.88000000000E+00 0.  1.
        -11    1    4    4    0    0 -0.52828646543E-01 -0.66076863902E-01  0.99627612719E-01  0.13070172216E+00  0.51100000000E-03 0. -1.
         11    1    4    4    0    0 -0.12946815702E-02  0.69078645056E-02  0.64445350085E-02  0.95492379210E-02  0.51100000000E-03 0.  1.
</event>
<event>
 8    1  0.2025822E+004  0.1043930E+01  0.7957747E-01            NaN
         13   -1    0    0    0    0  0.00000000000E+00  0.00000000000E+00  0.74505805969E-08  0.10566000000E+00  0.10566000000E+00 0.  1.
     999900   -1    0    0    0    0 -0.00000000000E+00 -0.00000000000E+00 -0.74505805969E-08  0.93827000000E+00  0.93827000000E+00 0. -1.
     999902    2    1    2    0    0 -0.31249537993E-02  0.79135084253E-02 -0.11548345689E-01  0.10295858988E+01  0.10294859735E+01 0.  0.
     999903    2    3    3    0    0 -0.64053435377E-01 -0.93394172330E-01  0.65560683423E-01  0.13833883515E+00  0.44878904743E-01 0.  0.
         14    1    1    2    0    0  0.31249537993E-02 -0.79135084253E-02  0.11548345689E-01  0.14344101227E-01  0.00000000000E+00 0. -1.
     999901    1    3    3    0    0  0.60928481578E-01  0.10130768076E+00 -0.77109029112E-01  0.89124706362E+00  0.88000000000E+00 0. -1.
        -11    1    4    4    0    0 -0.39914001940E-01 -0.36016375493E-01  0.95636067888E-02  0.54607971491E-01  0.51100000000E-03 0. -1.
         11    1    4    4    0    0 -0.24139433437E-01 -0.57377796837E-01  0.55997076634E-01  0.83730863659E-01  0.51100000000E-03 0.  1.
</event>
<event>
 8    1  0.2025822E+004  0.1043930E+01  0.7957747E-01            NaN
         13   -1    0    0    0    0  0.00000000000E+00  0.00000000000E+00  0.74505805969E-08  0.10566000000E+00  0.10566000000E+00 0. -1.
     999900   -1    0    0    0    0 -0.00000000000E+00 -0.00000000000E+00 -0.74505805969E-08  0.93827000000E+00  0.93827000000E+00 0. -1.
     999902    2    1    2    0    0  0.11648549509E-01 -0.60276718055E-02 -0.34241111909E-02  0.10303747032E+01  0.10302855347E+01 0.  0.
     999903    2    3    3    0    0  0.12289548299E+00 -0.18432525656E-01 -0.49782432406E-01  0.14207359744E+00  0.47576872218E-01 0.  0.
         14    1    1    2    0    0 -0.11648549509E-01  0.60276718055E-02  0.34241111909E-02  0.13555296769E-01  0.00000000000E+00 0. -1.
     999901    1    3    3    0    0 -0.11124693349E+00  0.12404853851E-01  0.46358321215E-01  0.88830110579E+00  0.88000000000E+00 0. -1.
        -11    1    4    4    0    0  0.47312587422E-01 -0.27909020827E-01 -0.89943785471E-02  0.55664659692E-01  0.51100000000E-03 0. -1.
         11    1    4    4    0    0  0.75582895572E-01  0.94764951709E-02 -0.40788053859E-01  0.86408937745E-01  0.51100000000E-03 0.  1.
</event>
<event>
 8    1  0.2025822E+004  0.1043930E+01  0.7957747E-01            NaN
         13   -1    0    0    0    0  0.00000000000E+00  0.00000000000E+00  0.74505805969E-08  0.10566000000E+00  0.10566000000E+00 0.  1.
     999900   -1    0    0    0    0 -0.00000000000E+00 -0.00000000000E+00 -0.74505805969E-08  0.93827000000E+00  0.93827000000E+00 0. -1.
     999902    2    1    2    0    0  0.12708257849E-01  0.37703828400E-02 -0.25470145983E-02  0.10304317450E+01  0.10303433303E+01 0.  0.
     999903    2    3    3    0    0  0.10986429177E+00  0.24010439687E-01 -0.73838586357E-01  0.14198847556E+00  0.45408441268E-01 0.  0.
         14    1    1    2    0    0 -0.12708257849E-01 -0.37703828400E-02  0.25470145983E-02  0.13498254986E-01  0.00000000000E+00 0. -1.
     999901    1    3    3    0    0 -0.97156033917E-01 -0.20240056847E-01  0.71291571759E-01  0.88844326945E+00  0.88000000000E+00 0.  1.
        -11    1    4    4    0    0  0.42513216926E-01 -0.12240719358E-01 -0.33637916076E-01  0.55578587088E-01  0.51100000000E-03 0. -1.
         11    1    4    4    0    0  0.67351074840E-01  0.36251159046E-01 -0.40200670282E-01  0.86409888476E-01  0.51100000000E-03 0.  1.
</event>
<event>
 8    1  0.2025822E+004  0.1043930E+01  0.7957747E-01            NaN
         13   -1    0    0    0    0  0.00000000000E+00  0.00000000000E+00  0.74505805969E-08  0.10566000000E+00  0.10566000000E+00 0. -1.
     999900   -1    0    0    0    0 -0.00000000000E+00 -0.00000000000E+00 -0.74505805969E-08  0.93827000000E+00  0.93827000000E+00 0.  1.
     999902    2    1    2    0    0 -0.13970499065E-01  0.14340746565E-02 -0.51881762049E-02  0.10289584073E+01  0.10288494814E+01 0.  0.
     999903    2    3    3    0    0 -0.44969502182E-01 -0.98999247333E-01 -0.75686581250E-01  0.13990395712E+00  0.44961667413E-01 0.  0.
         14    1    1    2    0    0  0.13970499065E-01 -0.14340746565E-02  0.51881762049E-02  0.14971592654E-01  0.00000000000E+00 0. -1.
     999901    1    3    3    0    0  0.30999003116E-01  0.10043332199E+00  0.70498405046E-01  0.88905445023E+00  0.88000000000E+00 0. -1.
        -11    1    4    4    0    0 -0.25478779241E-01 -0.53637648506E-01 -0.67417833333E-01  0.89842033042E-01  0.51100000000E-03 0. -1.
         11    1    4    4    0    0 -0.19490722940E-01 -0.45361598827E-01 -0.82687479173E-02  0.50061924074E-01  0.51100000000E-03 0.  1.
</event>
<event>
 8    1  0.2025822E+004  0.1043930E+01  0.7957747E-01            NaN
         13   -1    0    0    0    0  0.00000000000E+00  0.00000000000E+00  0.74505805969E-08  0.10566000000E+00  0.10566000000E+00 0.  1.
     999900   -1    0    0    0    0 -0.00000000000E+00 -0.00000000000E+00 -0.74505805969E-08  0.93827000000E+00  0.93827000000E+00 0.  1.
     999902    2    1    2    0    0 -0.21879919019E-02 -0.45161701786E-02  0.14150398920E-01  0.10289161101E+01  0.10288065633E+01 0.  0.
     999903    2    3    3    0    0  0.49839468170E-02 -0.59160445319E-01 -0.11615587943E+00  0.13761528559E+00  0.43828991409E-01 0.  0.
         14    1    1    2    0    0  0.21879919019E-02  0.45161701786E-02 -0.14150398920E-01  0.15013889943E-01  0.00000000000E+00 0. -1.
     999901    1    3    3    0    0 -0.71719387189E-02  0.54644275140E-01  0.13030627835E+00  0.89130082446E+00  0.88000000000E+00 0.  1.
        -11    1    4    4    0    0 -0.13571199362E-01 -0.24583917091E-02 -0.17046634566E-01  0.21933308299E-01  0.51100000000E-03 0. -1.
         11    1    4    4    0    0  0.18555146179E-01 -0.56702053610E-01 -0.99109244860E-01  0.11568197730E+00  0.51100000000E-03 0.  1.
</event>
<event>
 8    1  0.2025822E+004  0.1043930E+01  0.7957747E-01            NaN
         13   -1    0    0    0    0  0.00000000000E+00  0.00000000000E+00  0.74505805969E-08  0.10566000000E+00  0.10566000000E+00 0.  1.
     999900   -1    0    0    0    0 -0.00000000000E+00 -0.00000000000E+00 -0.74505805969E-08  0.93827000000E+00  0.93827000000E+00 0.  1.
     999902    2    1    2    0    0 -0.10518968094E-01  0.21335754755E-02  0.62703355612E-02  0.10314994754E+01  0.10314245730E+01 0.  0.
     999903    2    3    3    0    0 -0.28042265205E-01  0.90217561023E-01  0.96186775102E-01  0.14237022688E+00  0.45736296777E-01 0.  0.
         14    1    1    2    0    0  0.10518968094E-01 -0.21335754755E-02 -0.62703355612E-02  0.12430524611E-01  0.00000000000E+00 0. -1.
     999901    1    3    3    0    0  0.17523297111E-01 -0.88083985548E-01 -0.89916439541E-01  0.88912924851E+00  0.88000000000E+00 0.  1.
        -11    1    4    4    0    0 -0.20134570539E-01  0.95100429473E-02  0.31789259476E-01  0.38815718294E-01  0.51100000000E-03 0.  1.
         11    1    4    4    0    0 -0.79076946656E-02  0.80707518076E-01  0.64397515626E-01  0.10355450859E+00  0.51100000000E-03 0. -1.
</event>
<event>
 8    1  0.2025822E+004  0.1043930E+01  0.7957747E-01            NaN
         13   -1    0    0    0    0  0.00000000000E+00  0.00000000000E+00  0.74505805969E-08  0.10566000000E+00  0.10566000000E+00 0.  1.
     999900   -1    0    0    0    0 -0.00000000000E+00 -0.00000000000E+00 -0.74505805969E-08  0.93827000000E+00  0.93827000000E+00 0.  1.
     999902    2    1    2    0    0  0.27425129357E-02  0.83370333264E-02  0.10171917995E-01  0.10304951417E+01  0.10304075609E+01 0.  0.
     999903    2    3    3    0    0 -0.78742570966E-01  0.57872139406E-01 -0.88829833883E-01  0.13982410674E+00  0.45939791436E-01 0.  0.
         14    1    1    2    0    0 -0.27425129357E-02 -0.83370333264E-02 -0.10171917995E-01  0.13434858302E-01  0.00000000000E+00 0. -1.
     999901    1    3    3    0    0  0.81485083902E-01 -0.49535106080E-01  0.99001751878E-01  0.89067103495E+00  0.88000000000E+00 0. -1.
        -11    1    4    4    0    0 -0.47151256375E-01  0.74022014105E-02 -0.47522654044E-01  0.67355009702E-01  0.51100000000E-03 0. -1.
         11    1    4    4    0    0 -0.31591314591E-01  0.50469937996E-01 -0.41307179839E-01  0.72469097042E-01  0.51100000000E-03 0.  1.
</event>
<event>
 8    1  0.2025822E+004  0.1043930E+01  0.7957747E-01            NaN
         13   -1    0    0    0    0  0.00000000000E+00  0.00000000000E+00  0.74505805969E-08  0.10566000000E+00  0.10566000000E+00 0. -1.
     999900   -1    0    0    0    0 -0.00000000000E+00 -0.00000000000E+00 -0.74505805969E-08  0.93827000000E+00  0.93827000000E+00 0. -1.
     999902    2    1    2    0    0  0.64683470655E-02 -0.58924268984E-02  0.11100311876E-01  0.10297957461E+01  0.10296987431E+01 0.  0.
     999903    2    3    3    0    0  0.70517150417E-01  0.89327125352E-01  0.69006512467E-01  0.14045771119E+00  0.44882803418E-01 0.  0.
         14    1    1    2    0    0 -0.64683470655E-02  0.58924268984E-02 -0.11100311876E-01  0.14134253863E-01  0.00000000000E+00 0.  1.
     999901    1    3    3    0    0 -0.64048803351E-01 -0.95219552250E-01 -0.57906200591E-01  0.88933803495E+00  0.88000000000E+00 0. -1.
        -11    1    4    4    0    0  0.44289574436E-01  0.72386487989E-01  0.68771366520E-01  0.10922972133E+00  0.51100000000E-03 0. -1.
         11    1    4    4    0    0  0.26227575981E-01  0.16940637362E-01  0.23514594668E-03  0.31227989860E-01  0.51100000000E-03 0.  1.
</event>
<event>
 8    1  0.2025822E+004  0.1043930E+01  0.7957747E-01            NaN
         13   -1    0    0    0    0  0.00000000000E+00  0.00000000000E+00  0.74505805969E-08  0.10566000000E+00  0.10566000000E+00 0.  1.
     999900   -1    0    0    0    0 -0.00000000000E+00 -0.00000000000E+00 -0.74505805969E-08  0.93827000000E+00  0.93827000000E+00 0. -1.
     999902    2    1    2    0    0 -0.11169267298E-01 -0.17187200707E-02  0.74150757500E-02  0.10304137180E+01  0.10303250654E+01 0.  0.
     999903    2    3    3    0    0 -0.49135169919E-02  0.65865796338E-01 -0.11369188352E+00  0.13953005733E+00  0.46694183193E-01 0.  0.
         14    1    1    2    0    0  0.11169267298E-01  0.17187200707E-02 -0.74150757500E-02  0.13516281997E-01  0.00000000000E+00 0.  1.
     999901    1    3    3    0    0 -0.62557503060E-02 -0.67584516409E-01  0.12110695927E+00  0.89088366067E+00  0.88000000000E+00 0.  1.
        -11    1    4    4    0    0 -0.25698404383E-01  0.38974270682E-01 -0.60793847223E-01  0.76652167251E-01  0.51100000000E-03 0.  1.
         11    1    4    4    0    0  0.20784887391E-01  0.26891525656E-01 -0.52898036295E-01  0.62877890080E-01  0.51100000000E-03 0. -1.
</event>
<event>
 8    1  0.2025822E+004  0.1043930E+01  0.7957747E-01            NaN
         13   -1    0    0    0    0  0.00000000000E+00  0.00000000000E+00  0.74505805969E-08  0.10566000000E+00  0.10566000000E+00 0. -1.
     999900   -1    0    0    0    0 -0.00000000000E+00 -0.00000000000E+00 -0.74505805969E-08  0.93827000000E+00  0.93827000000E+00 0. -1.
     999902    2    1    2    0    0 -0.32592412008E-02 -0.10720983649E-01 -0.79309905410E-02  0.10302018262E+01  0.10301103533E+01 0.  0.
     999903    2    3    3    0    0  0.43870062001E-01 -0.12081341775E+00  0.37324483216E-01  0.14093832583E+00  0.44159148461E-01 0.  0.
         14    1    1    2    0    0  0.32592412008E-02  0.10720983649E-01  0.79309905410E-02  0.13728173752E-01  0.00000000000E+00 0. -1.
     999901    1    3    3    0    0 -0.47129303201E-01  0.11009243410E+00 -0.45255473757E-01  0.88926350042E+00  0.88000000000E+00 0. -1.
        -11    1    4    4    0    0  0.10376183847E-01 -0.21091163514E-01  0.26123850895E-01  0.35145683607E-01  0.51100000000E-03 0.  1.
         11    1    4    4    0    0  0.33493878153E-01 -0.99722254236E-01  0.11200632320E-01  0.10579264223E+00  0.51100000000E-03 0. -1.
</event>
<event>
 8    1  0.2025822E+004  0.1043930E+01  0.7957747E-01            NaN
         13   -1    0    0    0    0  0.00000000000E+00  0.00000000000E+00  0.74505805969E-08  0.10566000000E+00  0.10566000000E+00 0.  1.
     999900   -1    0    0    0    0 -0.00000000000E+00 -0.00000000000E+00 -0.74505805969E-08  0.93827000000E+00  0.93827000000E+00 0. -1.
     999902    2    1    2    0    0 -0.10893476117E-01  0.84864229106E-02 -0.75857821512E-03  0.10301002264E+01  0.10300073854E+01 0.  0.
     999903    2    3    3    0    0 -0.10779170858E+00  0.66438574269E-01  0.44340393214E-01  0.14174126942E+00  0.45731612648E-01 0.  0.
         14    1    1    2    0    0  0.10893476117E-01 -0.84864229106E-02  0.75857821512E-03  0.13829773557E-01  0.00000000000E+00 0. -1.
     999901    1    3    3    0    0  0.96898232467E-01 -0.57952151359E-01 -0.45098971429E-01  0.88835895702E+00  0.88000000000E+00 0.  1.
        -11    1    4    4    0    0 -0.44664782202E-01  0.39115292206E-01  0.42340080852E-01  0.72923881007E-01  0.51100000000E-03 0. -1.
         11    1    4    4    0    0 -0.63126926382E-01  0.27323282063E-01  0.20003123618E-02  0.68817388411E-01  0.51100000000E-03 0.  1.
</event>
<event>
 8    1  0.2025822E+004  0.1043930E+01  0.7957747E-01            NaN
         13   -1    0    0    0    0  0.00000000000E+00  0.00000000000E+00  0.74505805969E-08  0.10566000000E+00  0.10566000000E+00 0. -1.
     999900   -1    0    0    0    0 -0.00000000000E+00 -0.00000000000E+00 -0.74505805969E-08  0.93827000000E+00  0.93827000000E+00 0. -1.
     999902    2    1    2    0    0  0.14618892630E-01  0.99212038499E-04  0.12129994676E-02  0.10292605340E+01  0.10291559909E+01 0.  0.
     999903    2    3    3    0    0 -0.12732708642E+00 -0.25018635376E-01  0.28856693727E-02  0.13753054962E+00  0.45477532251E-01 0.  0.
         14    1    1    2    0    0 -0.14618892630E-01 -0.99212038499E-04 -0.12129994676E-02  0.14669465991E-01  0.00000000000E+00 0.  1.
     999901    1    3    3    0    0  0.14194597905E+00  0.25117847414E-01 -0.16726699051E-02  0.89172998439E+00  0.88000000000E+00 0.  1.
        -11    1    4    4    0    0 -0.79047903324E-01 -0.61930969216E-02 -0.18578276291E-01  0.81439173254E-01  0.51100000000E-03 0. -1.
         11    1    4    4    0    0 -0.48279183097E-01 -0.18825538454E-01  0.21463945664E-01  0.56091376370E-01  0.51100000000E-03 0.  1.
</event>
<event>
 8    1  0.2025822E+004  0.1043930E+01  0.7957747E-01            NaN
         13   -1    0    0    0    0  0.00000000000E+00  0.00000000000E+00  0.74505805969E-08  0.10566000000E+00  0.10566000000E+00 0. -1.
     999900   -1    0    0    0    0 -0.00000000000E+00 -0.00000000000E+00 -0.74505805969E-08  0.93827000000E+00  0.93827000000E+00 0. -1.
     999902    2    1    2    0    0  0.61006233942E-02 -0.91144753558E-02 -0.83326194841E-02  0.10301559732E+01  0.10300638841E+01 0.  0.
     999903    2    3    3    0    0  0.52454013165E-01 -0.11913391920E+00 -0.31843126021E-01  0.14178349575E+00  0.46306163645E-01 0.  0.
         14    1    1    2    0    0 -0.61006233942E-02  0.91144753558E-02  0.83326194841E-02  0.13774026800E-01  0.00000000000E+00 0. -1.
     999901    1    3    3    0    0 -0.46353389770E-01  0.11001944385E+00  0.23510506537E-01  0.88837247745E+00  0.88000000000E+00 0.  1.
        -11    1    4    4    0    0 -0.18685596452E-02 -0.43994928828E-01 -0.19800846683E-01  0.48284365255E-01  0.51100000000E-03 0. -1.
         11    1    4    4    0    0  0.54322572810E-01 -0.75138990375E-01 -0.12042279338E-01  0.93499130498E-01  0.51100000000E-03 0.  1.
</event>
<event>
 8    1  0.2025822E+004  0.1043930E+01  0.7957747E-01            NaN
         13   -1    0    0    0    0  0.00000000000E+00  0.00000000000E+00  0.74505805969E-08  0.10566000000E+00  0.10566000000E+00 0.  1.
     999900   -1    0    0    0    0 -0.00000000000E+00 -0.00000000000E+00 -0.74505805969E-08  0.93827000000E+00  0.93827000000E+00 0.  1.
     999902    2    1    2    0    0  0.40540587032E-02 -0.13913825199E-01 -0.52013441033E-02  0.10285324708E+01  0.10284172109E+01 0.  0.
     999903    2    3    3    0    0  0.31775097713E-01  0.50997924921E-01 -0.11670991016E+00  0.13869195052E+00  0.44763923296E-01 0.  0.
         14    1    1    2    0    0 -0.40540587032E-02  0.13913825199E-01  0.52013441033E-02  0.15397529156E-01  0.00000000000E+00 0. -1.
     999901    1    3    3    0    0 -0.27721039010E-01 -0.64911750119E-01  0.11150856606E+00  0.88984052032E+00  0.88000000000E+00 0. -1.
        -11    1    4    4    0    0 -0.60737551005E-02 -0.30173231109E-02 -0.23783743572E-01  0.24737063671E-01  0.51100000000E-03 0.  1.
         11    1    4    4    0    0  0.37848852814E-01  0.54015248031E-01 -0.92926166587E-01  0.11395488685E+00  0.51100000000E-03 0. -1.
</event>
<event>
 8    1  0.2025822E+004  0.1043930E+01  0.7957747E-01            NaN
         13   -1    0    0    0    0  0.00000000000E+00  0.00000000000E+00  0.74505805969E-08  0.10566000000E+00  0.10566000000E+00 0. -1.
     999900   -1    0    0    0    0 -0.00000000000E+00 -0.00000000000E+00 -0.74505805969E-08  0.93827000000E+00  0.93827000000E+00 0. -1.
     999902    2    1    2    0    0  0.89462830788E-02 -0.12440794907E-02  0.97745910957E-02  0.10306211178E+01  0.10305351824E+01 0.  0.
     999903    2    3    3    0    0 -0.13136486595E+00 -0.11004414481E-01 -0.11246020427E-04  0.13939822463E+00  0.45321515417E-01 0.  0.
         14    1    1    2    0    0 -0.89462830788E-02  0.12440794907E-02 -0.97745910957E-02  0.13308882214E-01  0.00000000000E+00 0.  1.
     999901    1    3    3    0    0  0.14031114903E+00  0.97603349899E-02  0.97858371162E-02  0.89122289316E+00  0.88000000000E+00 0. -1.
        -11    1    4    4    0    0 -0.10815014874E+00 -0.10424595910E-01  0.17834717074E-01  0.11010660801E+00  0.51100000000E-03 0.  1.
         11    1    4    4    0    0 -0.23214717202E-01 -0.57981857017E-03 -0.17845963094E-01  0.29291616618E-01  0.51100000000E-03 0. -1.
</event>
<event>
 8    1  0.2025822E+004  0.1043930E+01  0.7957747E-01            NaN
         13   -1    0    0    0    0  0.00000000000E+00  0.00000000000E+00  0.74505805969E-08  0.10566000000E+00  0.10566000000E+00 0.  1.
     999900   -1    0    0    0    0 -0.00000000000E+00 -0.00000000000E+00 -0.74505805969E-08  0.93827000000E+00  0.93827000000E+00 0.  1.
     999902    2    1    2    0    0  0.10115874257E-01 -0.10215832418E-01  0.59547250131E-02  0.10283687374E+01  0.10282509942E+01 0.  0.
     999903    2    3    3    0    0  0.12798709201E+00 -0.19902207162E-01  0.21077170731E-01  0.14032811997E+00  0.49708556159E-01 0.  0.
         14    1    1    2    0    0 -0.10115874257E-01  0.10215832418E-01 -0.59547250131E-02  0.15561262608E-01  0.00000000000E+00 0. -1.
     999901    1    3    3    0    0 -0.11787121776E+00  0.96863747446E-02 -0.15122445718E-01  0.88804061742E+00  0.88000000000E+00 0.  1.
        -11    1    4    4    0    0  0.39367553338E-01  0.16558031567E-01  0.30563901549E-02  0.42820267479E-01  0.51100000000E-03 0.  1.
         11    1    4    4    0    0  0.88619538676E-01 -0.36460238729E-01  0.18020780576E-01  0.97507852488E-01  0.51100000000E-03 0. -1.
</event>
<event>
 8    1  0.2025822E+004  0.1043930E+01  0.7957747E-01            NaN
         13   -1    0    0    0    0  0.00000000000E+00  0.00000000000E+00  0.74505805969E-08  0.10566000000E+00  0.10566000000E+00 0.  1.
     999900   -1    0    0    0    0 -0.00000000000E+00 -0.00000000000E+00 -0.74505805969E-08  0.93827000000E+00  0.93827000000E+00 0. -1.
     999902    2    1    2    0    0  0.52616436816E-02 -0.10542418138E-01  0.11211416575E-01  0.10276658266E+01  0.10275371175E+01 0.  0.
     999903    2    3    3    0    0  0.71210543131E-01 -0.10265928898E+00  0.44194036738E-01  0.13979048149E+00  0.44479149781E-01 0.  0.
         14    1    1    2    0    0 -0.52616436816E-02  0.10542418138E-01 -0.11211416575E-01  0.16264173390E-01  0.00000000000E+00 0. -1.
     999901    1    3    3    0    0 -0.65948899450E-01  0.92116870846E-01 -0.32982620162E-01  0.88787534512E+00  0.88000000000E+00 0. -1.
        -11    1    4    4    0    0  0.76229807554E-01 -0.10227472589E+00  0.42373495661E-01  0.13441308482E+00  0.51100000000E-03 0.  1.
         11    1    4    4    0    0 -0.50192644232E-02 -0.38456308936E-03  0.18205410769E-02  0.53773966687E-02  0.51100000000E-03 0. -1.
</event>
<event>
 8    1  0.2025822E+004  0.1043930E+01  0.7957747E-01            NaN
         13   -1    0    0    0    0  0.00000000000E+00  0.00000000000E+00  0.74505805969E-08  0.10566000000E+00  0.10566000000E+00 0. -1.
     999900   -1    0    0    0    0 -0.00000000000E+00 -0.00000000000E+00 -0.74505805969E-08  0.93827000000E+00  0.93827000000E+00 0.  1.
     999902    2    1    2    0    0  0.81528503652E-02  0.97175645726E-02  0.53457070489E-02  0.10301649495E+01  0.10300729812E+01 0.  0.
     999903    2    3    3    0    0  0.97507848778E-01  0.45316646535E-01  0.86160238066E-01  0.14124279389E+00  0.31057385219E-01 0.  0.
         14    1    1    2    0    0 -0.81528503652E-02 -0.97175645726E-02 -0.53457070489E-02  0.13765050459E-01  0.00000000000E+00 0. -1.
     999901    1    3    3    0    0 -0.89354998413E-01 -0.35599081962E-01 -0.80814531017E-01  0.88892215565E+00  0.88000000000E+00 0. -1.
        -11    1    4    4    0    0  0.40948266280E-01  0.32258083956E-01  0.28453764421E-01  0.59390422819E-01  0.51100000000E-03 0. -1.
         11    1    4    4    0    0  0.56559582497E-01  0.13058562579E-01  0.57706473644E-01  0.81852371074E-01  0.51100000000E-03 0.  1.
</event>
<event>
 8    1  0.2025822E+004  0.1043930E+01  0.7957747E-01            NaN
         13   -1    0    0    0    0  0.00000000000E+00  0.00000000000E+00  0.74505805969E-08  0.10566000000E+00  0.10566000000E+00 0.  1.
     999900   -1    0    0    0    0 -0.00000000000E+00 -0.00000000000E+00 -0.74505805969E-08  0.93827000000E+00  0.93827000000E+00 0. -1.
     999902    2    1    2    0    0 -0.17625496241E-02  0.10908233538E-01  0.26725748269E-02  0.10325616757E+01  0.10324990922E+01 0.  0.
     999903    2    3    3    0    0  0.54352665402E-01 -0.25312339471E-01  0.12053840809E+00  0.14219478400E+00  0.45770317975E-01 0.  0.
         14    1    1    2    0    0  0.17625496241E-02 -0.10908233538E-01 -0.26725748269E-02  0.11368324252E-01  0.00000000000E+00 0. -1.
     999901    1    3    3    0    0 -0.56115215026E-01  0.36220573009E-01 -0.11786583326E+00  0.89036689175E+00  0.88000000000E+00 0. -1.
        -11    1    4    4    0    0  0.46907881269E-01  0.18774506180E-02  0.81203966989E-01  0.93798824735E-01  0.51100000000E-03 0. -1.
         11    1    4    4    0    0  0.74447841325E-02 -0.27189790089E-01  0.39334441098E-01  0.48395959267E-01  0.51100000000E-03 0.  1.
</event>
<event>
 8    1  0.2025822E+004  0.1043930E+01  0.7957747E-01            NaN
         13   -1    0    0    0    0  0.00000000000E+00  0.00000000000E+00  0.74505805969E-08  0.10566000000E+00  0.10566000000E+00 0. -1.
     999900   -1    0    0    0    0 -0.00000000000E+00 -0.00000000000E+00 -0.74505805969E-08  0.93827000000E+00  0.93827000000E+00 0.  1.
     999902    2    1    2    0    0  0.21146557612E-02  0.55774589411E-02 -0.12087722079E-01  0.10304506513E+01  0.10303624857E+01 0.  0.
     999903    2    3    3    0    0 -0.80034176837E-01 -0.89983511152E-01  0.53150123477E-01  0.13908299076E+00  0.44907025643E-01 0.  0.
         14    1    1    2    0    0 -0.21146557612E-02 -0.55774589411E-02  0.12087722079E-01  0.13479348734E-01  0.00000000000E+00 0. -1.
     999901    1    3    3    0    0  0.82148832598E-01  0.95560970093E-01 -0.65237845556E-01  0.89136766051E+00  0.88000000000E+00 0.  1.
        -11    1    4    4    0    0 -0.56227404948E-01 -0.56961859459E-01  0.56892144013E-01  0.98199550262E-01  0.51100000000E-03 0. -1.
         11    1    4    4    0    0 -0.23806771889E-01 -0.33021651693E-01 -0.37420205366E-02  0.40883440499E-01  0.51100000000E-03 0.  1.
</event>
<event>
 8    1  0.2025822E+004  0.1043930E+01  0.7957747E-01            NaN
         13   -1    0    0    0    0  0.00000000000E+00  0.00000000000E+00  0.74505805969E-08  0.10566000000E+00  0.10566000000E+00 0.  1.
     999900   -1    0    0    0    0 -0.00000000000E+00 -0.00000000000E+00 -0.74505805969E-08  0.93827000000E+00  0.93827000000E+00 0. -1.
     999902    2    1    2    0    0 -0.66367249363E-02  0.85089590452E-03  0.11874380354E-01  0.10303002146E+01  0.10302100568E+01 0.  0.
     999903    2    3    3    0    0 -0.12959502326E+00 -0.13061047108E-01 -0.27812515419E-01  0.14075688513E+00  0.45535740798E-01 0.  0.
         14    1    1    2    0    0  0.66367249363E-02 -0.85089590452E-03 -0.11874380354E-01  0.13629785417E-01  0.00000000000E+00 0. -1.
     999901    1    3    3    0    0  0.12295829833E+00  0.13911943013E-01  0.39686895773E-01  0.88954332946E+00  0.88000000000E+00 0.  1.
        -11    1    4    4    0    0 -0.67007667345E-01  0.15302230070E-01 -0.20076284791E-01  0.71606592295E-01  0.51100000000E-03 0.  1.
         11    1    4    4    0    0 -0.62587355919E-01 -0.28363277178E-01 -0.77362306277E-02  0.69150292830E-01  0.51100000000E-03 0. -1.
</event>
<event>
 7    1  0.2025822E+004  0.1043930E+01  0.7957747E-01            NaN
         13   -1    0    0    0    0  0.00000000000E+00  0.00000000000E+00  0.74505805969E-08  0.10566000000E+00  0.10566000000E+00 0. -1.
     999900   -1    0    0    0    0 -0.00000000000E+00 -0.00000000000E+00 -0.74505805969E-08  0.93827000000E+00  0.93827000000E+00 0.  1.
     999902    2    1    2    0    0  0.11613576592E-01 -0.81563909611E-02 -0.46818183732E-02  0.10289860615E+01  0.10288775406E+01 0.  0.
         14    1    1    2    0    0 -0.11613576592E-01  0.81563909611E-02  0.46818183732E-02  0.14943938505E-01  0.00000000000E+00 0.  1.
     999901    1    3    3    0    0 -0.20022768597E-01 -0.77948323980E-01 -0.11743032289E+00  0.89144081868E+00  0.88000000000E+00 0. -1.
        -11    1    3    3    0    0  0.11486494705E-01  0.11724472678E-01  0.32979525752E-01  0.36841729873E-01  0.51100000000E-03 0. -1.
         11    1    3    3    0    0  0.20149850484E-01  0.58067460340E-01  0.79768978764E-01  0.10070351294E+00  0.51100000000E-03 0.  1.
</event>
<event>
 8    1  0.2025822E+004  0.1043930E+01  0.7957747E-01            NaN
         13   -1    0    0    0    0  0.00000000000E+00  0.00000000000E+00  0.74505805969E-08  0.10566000000E+00  0.10566000000E+00 0.  1.
     999900   -1    0    0    0    0 -0.00000000000E+00 -0.00000000000E+00 -0.74505805969E-08  0.93827000000E+00  0.93827000000E+00 0. -1.
     999902    2    1    2    0    0 -0.12966443339E-01  0.65493147174E-02  0.20579356894E-02  0.10292583513E+01  0.10291537769E+01 0.  0.
     999903    2    3    3    0    0 -0.83787183217E-01 -0.99389979714E-01  0.24730733208E-01  0.13979066384E+00  0.45068396825E-01 0.  0.
         14    1    1    2    0    0  0.12966443339E-01 -0.65493147174E-02 -0.20579356894E-02  0.14671648695E-01  0.00000000000E+00 0.  1.
     999901    1    3    3    0    0  0.70820739878E-01  0.10593929443E+00 -0.22672797518E-01  0.88946768747E+00  0.88000000000E+00 0.  1.
        -11    1    4    4    0    0 -0.72898236435E-01 -0.97317358506E-01  0.32953012806E-01  0.12598009095E+00  0.51100000000E-03 0.  1.
         11    1    4    4    0    0 -0.10888946781E-01 -0.20726212075E-02 -0.82222795980E-02  0.13810572887E-01  0.51100000000E-03 0. -1.
</event>
<event>
 7    1  0.2025822E+004  0.1043930E+01  0.7957747E-01            NaN
         13   -1    0    0    0    0  0.00000000000E+00  0.00000000000E+00  0.74505805969E-08  0.10566000000E+00  0.10566000000E+00 0. -1.
     999900   -1    0    0    0    0 -0.00000000000E+00 -0.00000000000E+00 -0.74505805969E-08  0.93827000000E+00  0.93827000000E+00 0. -1.
     999903    2    1    2    0    0  0.16163190149E-01 -0.71650834634E-01 -0.90445710086E-01  0.12470516184E+00  0.44450647888E-01 0.  0.
         14    1    1    2    0    0  0.13824608204E-01 -0.19803159542E-01  0.19678451649E-01  0.31153272366E-01  0.00000000000E+00 0. -1.
     999901    1    1    2    0    0 -0.29987798353E-01  0.91453994176E-01  0.70767258437E-01  0.88807156579E+00  0.88000000000E+00 0.  1.
        -11    1    3    3    0    0  0.18490052665E-01 -0.28775957468E-01 -0.13873682746E-01  0.36914468297E-01  0.51100000000E-03 0. -1.
         11    1    3    3    0    0 -0.23268625158E-02 -0.42874877166E-01 -0.76572027340E-01  0.87790693545E-01  0.51100000000E-03 0.  1.
</event>
<event>
 8    1  0.2025822E+004  0.1043930E+01  0.7957747E-01            NaN
         13   -1    0    0    0    0  0.00000000000E+00  0.00000000000E+00  0.74505805969E-08  0.10566000000E+00  0.10566000000E+00 0.  1.
     999900   -1    0    0    0    0 -0.00000000000E+00 -0.00000000000E+00 -0.74505805969E-08  0.93827000000E+00  0.93827000000E+00 0. -1.
     999902    2    1    2    0    0 -0.14362355756E-01  0.53280376006E-02  0.73702469015E-03  0.10285934928E+01  0.10284791515E+01 0.  0.
     999903    2    3    3    0    0  0.17182273276E-01 -0.20594491342E-01  0.12785429630E+00  0.13852279793E+00  0.46070390440E-01 0.  0.
         14    1    1    2    0    0  0.14362355756E-01 -0.53280376006E-02 -0.73702469015E-03  0.15336507195E-01  0.00000000000E+00 0.  1.
     999901    1    3    3    0    0 -0.31544629032E-01  0.25922528942E-01 -0.12711727161E+00  0.89007069487E+00  0.88000000000E+00 0. -1.
        -11    1    4    4    0    0  0.15130727716E-01 -0.74512888641E-02  0.93852205728E-02  0.19308135931E-01  0.51100000000E-03 0.  1.
         11    1    4    4    0    0  0.20515455602E-02 -0.13143202477E-01  0.11846907573E+00  0.11921466200E+00  0.51100000000E-03 0. -1.
</event>
<event>
 8    1  0.2025822E+004  0.1043930E+01  0.7957747E-01            NaN
         13   -1    0    0    0    0  0.00000000000E+00  0.00000000000E+00  0.74505805969E-08  0.10566000000E+00  0.10566000000E+00 0.  1.
     999900   -1    0    0    0    0 -0.00000000000E+00 -0.00000000000E+00 -0.74505805969E-08  0.93827000000E+00  0.93827000000E+00 0. -1.
     999902    2    1    2    0    0  0.14317299623E-02 -0.70091817164E-03  0.13359768335E-01  0.10304754637E+01  0.10303876245E+01 0.  0.
     999903    2    3    3    0    0  0.96652611316E-01  0.57794217476E-01  0.72811488127E-01  0.14141798293E+00  0.44895815440E-01 0.  0.
         14    1    1    2    0    0 -0.14317299623E-02  0.70091817164E-03 -0.13359768335E-01  0.13454536295E-01  0.00000000000E+00 0. -1.
     999901    1    3    3    0    0 -0.95220881354E-01 -0.58495135648E-01 -0.59451719792E-01  0.88905748078E+00  0.88000000000E+00 0. -1.
        -11    1    4    4    0    0  0.26319766616E-01  0.20478929037E-01  0.47170917522E-01  0.57770868351E-01  0.51100000000E-03 0. -1.
         11    1    4    4    0    0  0.70332844700E-01  0.37315288440E-01  0.25640570605E-01  0.83647114576E-01  0.51100000000E-03 0.  1.
</event>
<event>
 8    1  0.2025822E+004  0.1043930E+01  0.7957747E-01            NaN
         13   -1    0    0    0    0  0.00000000000E+00  0.00000000000E+00  0.74505805969E-08  0.10566000000E+00  0.10566000000E+00 0. -1.
     999900   -1    0    0    0    0 -0.00000000000E+00 -0.00000000000E+00 -0.74505805969E-08  0.93827000000E+00  0.93827000000E+00 0.  1.
     999902    2    1    2    0    0  0.63744252085E-02 -0.77228963789E-02  0.10841674160E-01  0.10291713306E+01  0.10290655029E+01 0.  0.
     999903    2    3    3    0    0 -0.12209671276E+00 -0.47645681235E-01 -0.54514303826E-02  0.13879830351E+00  0.45360034788E-01 0.  0.
         14    1    1    2    0    0 -0.63744252085E-02  0.77228963789E-02 -0.10841674160E-01  0.14758669445E-01  0.00000000000E+00 0.  1.
     999901    1    3    3    0    0  0.12847113797E+00  0.39922784857E-01  0.16293104542E-01  0.89037302705E+00  0.88000000000E+00 0. -1.
        -11    1    4    4    0    0 -0.93494155653E-01 -0.41833161837E-01  0.14487261161E-01  0.10344714799E+00  0.51100000000E-03 0.  1.
         11    1    4    4    0    0 -0.28602557106E-01 -0.58125193982E-02 -0.19938691544E-01  0.35351155514E-01  0.51100000000E-03 0. -1.
</event>
<event>
 8    1  0.2025822E+004  0.1043930E+01  0.7957747E-01            NaN
         13   -1    0    0    0    0  0.00000000000E+00  0.00000000000E+00  0.74505805969E-08  0.10566000000E+00  0.10566000000E+00 0.  1.
     999900   -1    0    0    0    0 -0.00000000000E+00 -0.00000000000E+00 -0.74505805969E-08  0.93827000000E+00  0.93827000000E+00 0. -1.
     999902    2    1    2    0    0  0.10091853110E-03 -0.24584640564E-02  0.10586604094E-01  0.10330612183E+01  0.10330040418E+01 0.  0.
     999903    2    3    3    0    0 -0.41066972626E-01 -0.55397262153E-02 -0.12710459103E+00  0.14139807860E+00  0.46050567441E-01 0.  0.
         14    1    1    2    0    0 -0.10091853110E-03  0.24584640564E-02 -0.10586604094E-01  0.10868781730E-01  0.00000000000E+00 0. -1.
     999901    1    3    3    0    0  0.41167891158E-01  0.30812621589E-02  0.13769119513E+00  0.89166313967E+00  0.88000000000E+00 0.  1.
        -11    1    4    4    0    0 -0.73159428223E-02  0.13631431079E-01 -0.74095304951E-01  0.75694876110E-01  0.51100000000E-03 0.  1.
         11    1    4    4    0    0 -0.33751029804E-01 -0.19171157294E-01 -0.53009286082E-01  0.65703202485E-01  0.51100000000E-03 0. -1.
</event>
<event>
 8    1  0.2025822E+004  0.1043930E+01  0.7957747E-01            NaN
         13   -1    0    0    0    0  0.00000000000E+00  0.00000000000E+00  0.74505805969E-08  0.10566000000E+00  0.10566000000E+00 0. -1.
     999900   -1    0    0    0    0 -0.00000000000E+00 -0.00000000000E+00 -0.74505805969E-08  0.93827000000E+00  0.93827000000E+00 0. -1.
     999902    2    1    2    0    0 -0.11101998859E-01  0.86005842021E-02 -0.96234645941E-02  0.10269054443E+01  0.10267643137E+01 0.  0.
     999903    2    3    3    0    0  0.70388992875E-02  0.11598362021E+00 -0.61483441477E-01  0.13867705820E+00  0.44151632309E-01 0.  0.
         14    1    1    2    0    0  0.11101998859E-01 -0.86005842021E-02  0.96234645941E-02  0.17024555738E-01  0.00000000000E+00 0.  1.
     999901    1    3    3    0    0 -0.18140898147E-01 -0.10738303600E+00  0.51859976883E-01  0.88822838606E+00  0.88000000000E+00 0.  1.
        -11    1    4    4    0    0 -0.15456455164E-01  0.18454789316E-01 -0.94177312828E-02  0.25854130007E-01  0.51100000000E-03 0.  1.
         11    1    4    4    0    0  0.22495354451E-01  0.97528830889E-01 -0.52065710194E-01  0.11282292819E+00  0.51100000000E-03 0. -1.
</event>
<event>
 8    1  0.2025822E+004  0.1043930E+01  0.7957747E-01            NaN
         13   -1    0    0    0    0  0.00000000000E+00  0.00000000000E+00  0.74505805969E-08  0.10566000000E+00  0.10566000000E+00 0.  1.
     999900   -1    0    0    0    0 -0.00000000000E+00 -0.00000000000E+00 -0.74505805969E-08  0.93827000000E+00  0.93827000000E+00 0. -1.
     999902    2    1    2    0    0 -0.12420459693E-01  0.13703165959E-02 -0.42005089514E-02  0.10307470617E+01  0.10306627554E+01 0.  0.
     999903    2    3    3    0    0 -0.10934641082E+00  0.68818126849E-01  0.37132695061E-01  0.14189821018E+00  0.45427886440E-01 0.  0.
         14    1    1    2    0    0  0.12420459693E-01 -0.13703165959E-02  0.42005089514E-02  0.13182938292E-01  0.00000000000E+00 0.  1.
     999901    1    3    3    0    0  0.96925951132E-01 -0.67447810253E-01 -0.41333204013E-01  0.88884885153E+00  0.88000000000E+00 0.  1.
        -11    1    4    4    0    0 -0.82213628620E-01  0.38739786748E-01  0.43721437819E-01  0.10085473243E+00  0.51100000000E-03 0. -1.
         11    1    4    4    0    0 -0.27132782205E-01  0.30078340101E-01 -0.65887427582E-02  0.41043477746E-01  0.51100000000E-03 0.  1.
</event>
<event>
 8    1  0.2025822E+004  0.1043930E+01  0.7957747E-01            NaN
         13   -1    0    0    0    0  0.00000000000E+00  0.00000000000E+00  0.74505805969E-08  0.10566000000E+00  0.10566000000E+00 0.  1.
     999900   -1    0    0    0    0 -0.00000000000E+00 -0.00000000000E+00 -0.74505805969E-08  0.93827000000E+00  0.93827000000E+00 0. -1.
     999902    2    1    2    0    0  0.13345136060E-01 -0.44067276098E-02  0.32873732883E-02  0.10294967492E+01  0.10293955692E+01 0.  0.
     999903    2    3    3    0    0 -0.11202111554E+00 -0.44819859851E-01  0.51099545647E-01  0.13840981625E+00  0.44593312336E-01 0.  0.
         14    1    1    2    0    0 -0.13345136060E-01  0.44067276098E-02 -0.32873732883E-02  0.14433250772E-01  0.00000000000E+00 0.  1.
     999901    1    3    3    0    0  0.12536625160E+00  0.40413132241E-01 -0.47812172359E-01  0.89108693298E+00  0.88000000000E+00 0. -1.
        -11    1    4    4    0    0 -0.45493445282E-01 -0.24401465743E-01  0.45112985325E-01  0.68560394252E-01  0.51100000000E-03 0.  1.
         11    1    4    4    0    0 -0.66527670259E-01 -0.20418394108E-01  0.59865603221E-02  0.69849421999E-01  0.51100000000E-03 0. -1.
</event>
<event>
 8    1  0.2025822E+004  0.1043930E+01  0.7957747E-01            NaN
         13   -1    0    0    0    0  0.00000000000E+00  0.00000000000E+00  0.74505805969E-08  0.10566000000E+00  0.10566000000E+00 0.  1.
     999900   -1    0    0    0    0 -0.00000000000E+00 -0.00000000000E+00 -0.74505805969E-08  0.93827000000E+00  0.93827000000E+00 0. -1.
     999902    2    1    2    0    0 -0.13446701886E-01  0.22508498249E-02 -0.18659806125E-02  0.10301691134E+01  0.10300772011E+01 0.  0.
     999903    2    3    3    0    0  0.18705330477E-01 -0.42238078744E-01  0.12363094193E+00  0.13957240583E+00  0.45408170880E-01 0.  0.
         14    1    1    2    0    0  0.13446701886E-01 -0.22508498249E-02  0.18659806125E-02  0.13760886607E-01  0.00000000000E+00 0.  1.
     999901    1    3    3    0    0 -0.32152032363E-01  0.44488928569E-01 -0.12549692254E+00  0.89059670756E+00  0.88000000000E+00 0. -1.
        -11    1    4    4    0    0 -0.31953933102E-02 -0.39456133548E-01  0.98271046429E-01  0.10594553648E+00  0.51100000000E-03 0.  1.
         11    1    4    4    0    0  0.21900723787E-01 -0.27819451956E-02  0.25359895503E-01  0.33626869352E-01  0.51100000000E-03 0. -1.
</event>
<event>
 8    1  0.2025822E+004  0.1043930E+01  0.7957747E-01            NaN
         13   -1    0    0    0    0  0.00000000000E+00  0.00000000000E+00  0.74505805969E-08  0.10566000000E+00  0.10566000000E+00 0.  1.
     999900   -1    0    0    0    0 -0.00000000000E+00 -0.00000000000E+00 -0.74505805969E-08  0.93827000000E+00  0.93827000000E+00 0. -1.
     999902    2    1    2    0    0  0.81715621178E-02 -0.10154830333E-02  0.11476153310E-01  0.10298052795E+01  0.10297084083E+01 0.  0.
     999903    2    3    3    0    0 -0.42793217880E-01  0.10820391908E+00  0.63196134220E-01  0.14008552421E+00  0.45725869180E-01 0.  0.
         14    1    1    2    0    0 -0.81715621178E-02  0.10154830333E-02 -0.11476153310E-01  0.14124720458E-01  0.00000000000E+00 0. -1.
     999901    1    3    3    0    0  0.50964779998E-01 -0.10921940211E+00 -0.51719980911E-01  0.88971975533E+00  0.88000000000E+00 0.  1.
        -11    1    4    4    0    0 -0.72370914515E-02  0.69975611686E-01  0.22412934590E-01  0.73834697002E-01  0.51100000000E-03 0.  1.
         11    1    4    4    0    0 -0.35556126429E-01  0.38228307396E-01  0.40783199630E-01  0.66250827210E-01  0.51100000000E-03 0. -1.
</event>
<event>
 8    1  0.2025822E+004  0.1043930E+01  0.7957747E-01            NaN
         13   -1    0    0    0    0  0.00000000000E+00  0.00000000000E+00  0.74505805969E-08  0.10566000000E+00  0.10566000000E+00 0. -1.
     999900   -1    0    0    0    0 -0.00000000000E+00 -0.00000000000E+00 -0.74505805969E-08  0.93827000000E+00  0.93827000000E+00 0. -1.
     999902    2    1    2    0    0  0.38607012604E-02  0.79126049761E-02  0.10441933068E-01  0.10302717315E+01  0.10301811940E+01 0.  0.
     999903    2    3    3    0    0 -0.96755167691E-01  0.90080237298E-01 -0.15853885071E-01  0.14034671055E+00  0.44382900591E-01 0.  0.
         14    1    1    2    0    0 -0.38607012604E-02 -0.79126049761E-02 -0.10441933068E-01  0.13658268482E-01  0.00000000000E+00 0.  1.
     999901    1    3    3    0    0  0.10061586895E+00 -0.82167632322E-01  0.26295818139E-01  0.88992502096E+00  0.88000000000E+00 0. -1.
        -11    1    4    4    0    0 -0.53044643038E-01  0.75454586855E-01 -0.18895587583E-01  0.94151118865E-01  0.51100000000E-03 0. -1.
         11    1    4    4    0    0 -0.43710524653E-01  0.14625650444E-01  0.30417025114E-02  0.46195591690E-01  0.51100000000E-03 0.  1.
</event>
<event>
 8    1  0.2025822E+004  0.1043930E+01  0.7957747E-01            NaN
         13   -1    0    0    0    0  0.00000000000E+00  0.00000000000E+00  0.74505805969E-08  0.10566000000E+00  0.10566000000E+00 0. -1.
     999900   -1    0    0    0    0 -0.00000000000E+00 -0.00000000000E+00 -0.74505805969E-08  0.93827000000E+00  0.93827000000E+00 0.  1.
     999902    2    1    2    0    0 -0.52427781476E-02 -0.26055784692E-02 -0.12742359905E-01  0.10299070368E+01  0.10298115657E+01 0.  0.
     999903    2    3    3    0    0  0.49984995867E-01  0.93978710359E-01 -0.79425687107E-01  0.14039857812E+00  0.45528267641E-01 0.  0.
         14    1    1    2    0    0  0.52427781476E-02  0.26055784692E-02  0.12742359905E-01  0.14022963232E-01  0.00000000000E+00 0. -1.
     999901    1    3    3    0    0 -0.55227774015E-01 -0.96584288828E-01  0.66683327201E-01  0.88950845864E+00  0.88000000000E+00 0.  1.
        -11    1    4    4    0    0  0.44099201266E-01  0.60744733573E-01 -0.75414355433E-01  0.10640605404E+00  0.51100000000E-03 0. -1.
         11    1    4    4    0    0  0.58857946009E-02  0.33233976786E-01 -0.40113316740E-02  0.33992524089E-01  0.51100000000E-03 0.  1.
</event>
<event>
 8    1  0.2025822E+004  0.1043930E+01  0.7957747E-01            NaN
         13   -1    0    0    0    0  0.00000000000E+00  0.00000000000E+00  0.74505805969E-08  0.10566000000E+00  0.10566000000E+00 0. -1.
     999900   -1    0    0    0    0 -0.00000000000E+00 -0.00000000000E+00 -0.74505805969E-08  0.93827000000E+00  0.93827000000E+00 0.  1.
     999902    2    1    2    0    0 -0.51735090952E-02 -0.13216018874E-01  0.13321259167E-01  0.10244650495E+01  0.10242801147E+01 0.  0.
     999903    2    3    3    0    0  0.91409128767E-01 -0.26926405869E-01 -0.83054758441E-01  0.13384475028E+00  0.43996183065E-01 0.  0.
         14    1    1    2    0    0  0.51735090952E-02  0.13216018874E-01 -0.13321259167E-01  0.19464950476E-01  0.00000000000E+00 0.  1.
     999901    1    3    3    0    0 -0.96582637862E-01  0.13710386995E-01  0.96376017607E-01  0.89062029924E+00  0.88000000000E+00 0. -1.
        -11    1    4    4    0    0  0.12896638433E-02 -0.26747249782E-03 -0.21395654434E-01  0.21442246245E-01  0.51100000000E-03 0.  1.
         11    1    4    4    0    0  0.90119464923E-01 -0.26658933371E-01 -0.61659104006E-01  0.11240250404E+00  0.51100000000E-03 0. -1.
</event>
<event>
 8    1  0.2025822E+004  0.1043930E+01  0.7957747E-01            NaN
         13   -1    0    0    0    0  0.00000000000E+00  0.00000000000E+00  0.74505805969E-08  0.10566000000E+00  0.10566000000E+00 0.  1.
     999900   -1    0    0    0    0 -0.00000000000E+00 -0.00000000000E+00 -0.74505805969E-08  0.93827000000E+00  0.93827000000E+00 0. -1.
     999902    2    1    2    0    0 -0.93067675442E-02 -0.59119998848E-02  0.93192650691E-02  0.10294933672E+01  0.10293921395E+01 0.  0.
     999903    2    3    3    0    0  0.44541587133E-01 -0.83694374637E-01  0.93228368410E-01  0.14045429004E+00  0.45245746579E-01 0.  0.
         14    1    1    2    0    0  0.93067675442E-02  0.59119998848E-02 -0.93192650691E-02  0.14436632786E-01  0.00000000000E+00 0. -1.
     999901    1    3    3    0    0 -0.53848354677E-01  0.77782374752E-01 -0.83909103341E-01  0.88903907718E+00  0.88000000000E+00 0.  1.
        -11    1    4    4    0    0  0.42279442674E-01 -0.46413765700E-01  0.77966291980E-01  0.10010390964E+00  0.51100000000E-03 0. -1.
         11    1    4    4    0    0  0.22621444592E-02 -0.37280608936E-01  0.15262076429E-01  0.40350380396E-01  0.51100000000E-03 0.  1.
</event>
<event>
 8    1  0.2025822E+004  0.1043930E+01  0.7957747E-01            NaN
         13   -1    0    0    0    0  0.00000000000E+00  0.00000000000E+00  0.74505805969E-08  0.10566000000E+00  0.10566000000E+00 0. -1.
     999900   -1    0    0    0    0 -0.00000000000E+00 -0.00000000000E+00 -0.74505805969E-08  0.93827000000E+00  0.93827000000E+00 0. -1.
     999902    2    1    2    0    0  0.32018843111E-02 -0.46253434470E-02  0.11877419520E-01  0.10307877415E+01  0.10307039580E+01 0.  0.
     999903    2    3    3    0    0  0.13369579584E+00  0.17722719268E-01 -0.82284111262E-02  0.14065722222E+00  0.39090750926E-01 0.  0.
         14    1    1    2    0    0 -0.32018843111E-02  0.46253434470E-02 -0.11877419520E-01  0.13142258543E-01  0.00000000000E+00 0.  1.
     999901    1    3    3    0    0 -0.13049391153E+00 -0.22348062715E-01  0.20105830647E-01  0.89013051924E+00  0.88000000000E+00 0. -1.
        -11    1    4    4    0    0  0.11134350269E+00  0.19156931710E-01 -0.20930249961E-01  0.11490300304E+00  0.51100000000E-03 0.  1.
         11    1    4    4    0    0  0.22352293152E-01 -0.14342124419E-02  0.12701838835E-01  0.25754219174E-01  0.51100000000E-03 0. -1.
</event>
<event>
 8    1  0.2025822E+004  0.1043930E+01  0.7957747E-01            NaN
         13   -1    0    0    0    0  0.00000000000E+00  0.00000000000E+00  0.74505805969E-08  0.10566000000E+00  0.10566000000E+00 0.  1.
     999900   -1    0    0    0    0 -0.00000000000E+00 -0.00000000000E+00 -0.74505805969E-08  0.93827000000E+00  0.93827000000E+00 0.  1.
     999902    2    1    2    0    0 -0.10591654487E-01 -0.44488283603E-02 -0.56193615049E-02  0.10311412377E+01  0.10310619281E+01 0.  0.
     999903    2    3    3    0    0 -0.93903654321E-01 -0.96852627656E-01 -0.37008812116E-03  0.14237416676E+00  0.45518552444E-01 0.  0.
         14    1    1    2    0    0  0.10591654487E-01  0.44488283603E-02  0.56193615049E-02  0.12788762343E-01  0.00000000000E+00 0.  1.
     999901    1    3    3    0    0  0.83311999834E-01  0.92403799295E-01 -0.52492733837E-02  0.88876707090E+00  0.88000000000E+00 0. -1.
        -11    1    4    4    0    0 -0.80170522463E-01 -0.99332766838E-01 -0.47506894958E-02  0.12773856666E+00  0.51100000000E-03 0.  1.
         11    1    4    4    0    0 -0.13733131858E-01  0.24801391818E-02  0.43806013746E-02  0.14635600104E-01  0.51100000000E-03 0. -1.
</event>
<event>
 8    1  0.2025822E+004  0.1043930E+01  0.7957747E-01            NaN
         13   -1    0    0    0    0  0.00000000000E+00  0.00000000000E+00  0.74505805969E-08  0.10566000000E+00  0.10566000000E+00 0.  1.
     999900   -1    0    0    0    0 -0.00000000000E+00 -0.00000000000E+00 -0.74505805969E-08  0.93827000000E+00  0.93827000000E+00 0. -1.
     999902    2    1    2    0    0  0.83213918463E-02  0.11816381566E-02 -0.11714545300E-01  0.10295122192E+01  0.10294112575E+01 0.  0.
     999903    2    3    3    0    0  0.12480775554E+00 -0.18481629748E-01 -0.43998803059E-01  0.14103149893E+00  0.45115879017E-01 0.  0.
         14    1    1    2    0    0 -0.83213918463E-02 -0.11816381566E-02  0.11714545300E-01  0.14417780778E-01  0.00000000000E+00 0.  1.
     999901    1    3    3    0    0 -0.11648636369E+00  0.19663267905E-01  0.32284257760E-01  0.88848072029E+00  0.88000000000E+00 0.  1.
        -11    1    4    4    0    0  0.20914491853E-01  0.10950274115E-01  0.19191495589E-02  0.23691110753E-01  0.51100000000E-03 0. -1.
         11    1    4    4    0    0  0.10389326368E+00 -0.29431903864E-01 -0.45917952618E-01  0.11734038818E+00  0.51100000000E-03 0.  1.
</event>
<event>
 8    1  0.2025822E+004  0.1043930E+01  0.7957747E-01            NaN
         13   -1    0    0    0    0  0.00000000000E+00  0.00000000000E+00  0.74505805969E-08  0.10566000000E+00  0.10566000000E+00 0.  1.
     999900   -1    0    0    0    0 -0.00000000000E+00 -0.00000000000E+00 -0.74505805969E-08  0.93827000000E+00  0.93827000000E+00 0. -1.
     999902    2    1    2    0    0 -0.10492056151E-02  0.98683249419E-02 -0.99957787675E-02  0.10298445372E+01  0.10297482073E+01 0.  0.
     999903    2    3    3    0    0 -0.82208487170E-01 -0.14755661939E-01  0.10133648589E+00  0.13878447026E+00  0.44900789424E-01 0.  0.
         14    1    1    2    0    0  0.10492056151E-02 -0.98683249419E-02  0.99957787675E-02  0.14085462816E-01  0.00000000000E+00 0.  1.
     999901    1    3    3    0    0  0.81159281555E-01  0.24623986881E-01 -0.11133226466E+00  0.89106006692E+00  0.88000000000E+00 0. -1.
        -11    1    4    4    0    0 -0.44534922901E-01  0.40409164454E-02  0.24061795766E-01  0.50783063122E-01  0.51100000000E-03 0.  1.
         11    1    4    4    0    0 -0.37673564269E-01 -0.18796578385E-01  0.77274690123E-01  0.88001407138E-01  0.51100000000E-03 0. -1.
</event>
<event>
 8    1  0.2025822E+004  0.1043930E+01  0.7957747E-01            NaN
         13   -1    0    0    0    0  0.00000000000E+00  0.00000000000E+00  0.74505805969E-08  0.10566000000E+00  0.10566000000E+00 0.  1.
     999900   -1    0    0    0    0 -0.00000000000E+00 -0.00000000000E+00 -0.74505805969E-08  0.93827000000E+00  0.93827000000E+00 0.  1.
     999902    2    1    2    0    0  0.12577703698E-01  0.35093831103E-02  0.40356634263E-02  0.10302624845E+01  0.10301718235E+01 0.  0.
     999903    2    3    3    0    0 -0.31370982605E-01 -0.36177905545E-01  0.12380636910E+00  0.14017732576E+00  0.45040939479E-01 0.  0.
         14    1    1    2    0    0 -0.12577703698E-01 -0.35093831103E-02 -0.40356634263E-02  0.13667515481E-01  0.00000000000E+00 0. -1.
     999901    1    3    3    0    0  0.43948686303E-01  0.39687288656E-01 -0.11977070567E+00  0.89008515876E+00  0.88000000000E+00 0.  1.
        -11    1    4    4    0    0 -0.22029641445E-01  0.22210933535E-02  0.23140168547E-01  0.32030717745E-01  0.51100000000E-03 0. -1.
         11    1    4    4    0    0 -0.93413411602E-02 -0.38398998899E-01  0.10066620055E+00  0.10814660801E+00  0.51100000000E-03 0.  1.
</event>
<event>
 8    1  0.2025822E+004  0.1043930E+01  0.7957747E-01            NaN
         13   -1    0    0    0    0  0.00000000000E+00  0.00000000000E+00  0.74505805969E-08  0.10566000000E+00  0.10566000000E+00 0.  1.
     999900   -1    0    0    0    0 -0.00000000000E+00 -0.00000000000E+00 -0.74505805969E-08  0.93827000000E+00  0.93827000000E+00 0. -1.
     999902    2    1    2    0    0  0.81375024436E-02 -0.10511779049E-01 -0.47949799266E-02  0.10297981821E+01  0.10297012128E+01 0.  0.
     999903    2    3    3    0    0 -0.70299085328E-01  0.26725106519E-01 -0.10833752153E+00  0.13948366359E+00  0.45414547440E-01 0.  0.
         14    1    1    2    0    0 -0.81375024436E-02  0.10511779049E-01  0.47949799266E-02  0.14131817904E-01  0.00000000000E+00 0.  1.
     999901    1    3    3    0    0  0.78436587771E-01 -0.37236885568E-01  0.10354254161E+00  0.89031451851E+00  0.88000000000E+00 0.  1.
        -11    1    4    4    0    0 -0.12983316450E-01 -0.11852981628E-01 -0.32056371770E-01  0.36564077611E-01  0.51100000000E-03 0.  1.
         11    1    4    4    0    0 -0.57315768878E-01  0.38578088147E-01 -0.76281149762E-01  0.10291958597E+00  0.51100000000E-03 0. -1.
</event>
<event>
 8    1  0.2025822E+004  0.1043930E+01  0.7957747E-01            NaN
         13   -1    0    0    0    0  0.00000000000E+00  0.00000000000E+00  0.74505805969E-08  0.10566000000E+00  0.10566000000E+00 0. -1.
     999900   -1    0    0    0    0 -0.00000000000E+00 -0.00000000000E+00 -0.74505805969E-08  0.93827000000E+00  0.93827000000E+00 0. -1.
     999902    2    1    2    0    0 -0.11248269728E-01  0.14984996020E-02 -0.80914411029E-02  0.10299929812E+01  0.10298986848E+01 0.  0.
     999903    2    3    3    0    0 -0.28282800227E-01 -0.84636295583E-01 -0.99219969465E-01  0.14094079669E+00  0.45348500647E-01 0.  0.
         14    1    1    2    0    0  0.11248269728E-01 -0.14984996020E-02  0.80914411029E-02  0.13937018765E-01  0.00000000000E+00 0. -1.
     999901    1    3    3    0    0  0.17034530499E-01  0.86134795185E-01  0.91128528362E-01  0.88905218455E+00  0.88000000000E+00 0.  1.
        -11    1    4    4    0    0 -0.21943137636E-01 -0.23483359040E-01 -0.59842429083E-01  0.67928984099E-01  0.51100000000E-03 0. -1.
         11    1    4    4    0    0 -0.63396625909E-02 -0.61152936543E-01 -0.39377540382E-01  0.73011812587E-01  0.51100000000E-03 0.  1.
</event>
<event>
 8    1  0.2025822E+004  0.1043930E+01  0.7957747E-01            NaN
         13   -1    0    0    0    0  0.00000000000E+00  0.00000000000E+00  0.74505805969E-08  0.10566000000E+00  0.10566000000E+00 0. -1.
     999900   -1    0    0    0    0 -0.00000000000E+00 -0.00000000000E+00 -0.74505805969E-08  0.93827000000E+00  0.93827000000E+00 0. -1.
     999902    2    1    2    0    0  0.11501866489E-01 -0.61440911542E-02 -0.44639922552E-02  0.10301470389E+01  0.10300548295E+01 0.  0.
     999903    2    3    3    0    0  0.49708296702E-01 -0.10478214423E+00 -0.67831802151E-01  0.14155001207E+00  0.44553787981E-01 0.  0.
         14    1    1    2    0    0 -0.11501866489E-01  0.61440911542E-02  0.44639922552E-02  0.13782961064E-01  0.00000000000E+00 0. -1.
     999901    1    3    3    0    0 -0.38206430212E-01  0.98638053076E-01  0.63367809896E-01  0.88859702687E+00  0.88000000000E+00 0. -1.
        -11    1    4    4    0    0  0.46090055752E-01 -0.57943883079E-01 -0.56729771342E-01  0.93275478574E-01  0.51100000000E-03 0. -1.
         11    1    4    4    0    0  0.36182409493E-02 -0.46838261151E-01 -0.11102030809E-01  0.48274533496E-01  0.51100000000E-03 0.  1.
</event>
<event>
 7    1  0.2025822E+004  0.1043930E+01  0.7957747E-01            NaN
         13   -1    0    0    0    0  0.00000000000E+00  0.00000000000E+00  0.74505805969E-08  0.10566000000E+00  0.10566000000E+00 0.  1.
     999900   -1    0    0    0    0 -0.00000000000E+00 -0.00000000000E+00 -0.74505805969E-08  0.93827000000E+00  0.93827000000E+00 0.  1.
     999903    2    1    2    0    0  0.21577757096E-01 -0.10543232105E+00  0.41807684609E-01  0.12392775101E+00  0.45040326972E-01 0.  0.
         14    1    1    2    0    0  0.22386058141E-02 -0.10494874764E-01 -0.30150526067E-01  0.32003249436E-01  0.00000000000E+00 0. -1.
     999901    1    1    2    0    0 -0.23816362910E-01  0.11592719581E+00 -0.11657158542E-01  0.88799899956E+00  0.88000000000E+00 0. -1.
        -11    1    3    3    0    0  0.16613925851E-01 -0.10701651397E+00  0.45553576063E-01  0.11749019622E+00  0.51100000000E-03 0. -1.
         11    1    3    3    0    0  0.49638312451E-02  0.15841929208E-02 -0.37458914539E-02  0.64375547861E-02  0.51100000000E-03 0.  1.
</event>
<event>
 8    1  0.2025822E+004  0.1043930E+01  0.7957747E-01            NaN
         13   -1    0    0    0    0  0.00000000000E+00  0.00000000000E+00  0.74505805969E-08  0.10566000000E+00  0.10566000000E+00 0.  1.
     999900   -1    0    0    0    0 -0.00000000000E+00 -0.00000000000E+00 -0.74505805969E-08  0.93827000000E+00  0.93827000000E+00 0.  1.
     999902    2    1    2    0    0  0.78445131891E-02 -0.10394988089E-01  0.62529549184E-02  0.10294838375E+01  0.10293824752E+01 0.  0.
     999903    2    3    3    0    0 -0.10173336574E+00  0.58610994451E-02  0.84305888294E-01  0.13911097613E+00  0.43131782805E-01 0.  0.
         14    1    1    2    0    0 -0.78445131891E-02  0.10394988089E-01 -0.62529549184E-02  0.14446162457E-01  0.00000000000E+00 0. -1.
     999901    1    3    3    0    0  0.10957787893E+00 -0.16256087534E-01 -0.78052933376E-01  0.89037286141E+00  0.88000000000E+00 0.  1.
        -11    1    4    4    0    0 -0.65477084226E-01 -0.57199870900E-02  0.28691651241E-01  0.71717771738E-01  0.51100000000E-03 0.  1.
         11    1    4    4    0    0 -0.36256281511E-01  0.11581086535E-01  0.55614237053E-01  0.67393204392E-01  0.51100000000E-03 0. -1.
</event>
<event>
 8    1  0.2025822E+004  0.1043930E+01  0.7957747E-01            NaN
         13   -1    0    0    0    0  0.00000000000E+00  0.00000000000E+00  0.74505805969E-08  0.10566000000E+00  0.10566000000E+00 0. -1.
     999900   -1    0    0    0    0 -0.00000000000E+00 -0.00000000000E+00 -0.74505805969E-08  0.93827000000E+00  0.93827000000E+00 0. -1.
     999902    2    1    2    0    0  0.71577929029E-02 -0.66303868284E-02  0.10066623371E-01  0.10299109795E+01  0.10298155625E+01 0.  0.
     999903    2    3    3    0    0  0.84926254509E-01 -0.53889080031E-01 -0.86242088665E-01  0.13999149682E+00  0.45204199720E-01 0.  0.
         14    1    1    2    0    0 -0.71577929029E-02  0.66303868284E-02 -0.10066623371E-01  0.14019020466E-01  0.00000000000E+00 0.  1.
     999901    1    3    3    0    0 -0.77768461606E-01  0.47258693203E-01  0.96308712037E-01  0.88991948272E+00  0.88000000000E+00 0.  1.
        -11    1    4    4    0    0  0.37791544547E-01 -0.32621819173E-01 -0.15331621576E-01  0.52227422553E-01  0.51100000000E-03 0. -1.
         11    1    4    4    0    0  0.47134709962E-01 -0.21267260858E-01 -0.70910467089E-01  0.87764074264E-01  0.51100000000E-03 0.  1.
</event>
<event>
 8    1  0.2025822E+004  0.1043930E+01  0.7957747E-01            NaN
         13   -1    0    0    0    0  0.00000000000E+00  0.00000000000E+00  0.74505805969E-08  0.10566000000E+00  0.10566000000E+00 0.  1.
     999900   -1    0    0    0    0 -0.00000000000E+00 -0.00000000000E+00 -0.74505805969E-08  0.93827000000E+00  0.93827000000E+00 0.  1.
     999902    2    1    2    0    0 -0.45250709198E-02  0.56818961365E-02 -0.11149423472E-01  0.10306232403E+01  0.10305373324E+01 0.  0.
     999903    2    3    3    0    0 -0.10114108561E-01  0.12151692700E+00  0.53282919882E-01  0.14067913047E+00  0.45638683801E-01 0.  0.
         14    1    1    2    0    0  0.45250709198E-02 -0.56818961365E-02  0.11149423472E-01  0.13306759721E-01  0.00000000000E+00 0.  1.
     999901    1    3    3    0    0  0.55890376414E-02 -0.11583503086E+00 -0.64432343354E-01  0.88994410981E+00  0.88000000000E+00 0.  1.
        -11    1    4    4    0    0 -0.62343387987E-03  0.76009036146E-01  0.91228098398E-02  0.76558794570E-01  0.51100000000E-03 0. -1.
         11    1    4    4    0    0 -0.94906746814E-02  0.45507890852E-01  0.44160110042E-01  0.64120335898E-01  0.51100000000E-03 0.  1.
</event>
<event>
 8    1  0.2025822E+004  0.1043930E+01  0.7957747E-01            NaN
         13   -1    0    0    0    0  0.00000000000E+00  0.00000000000E+00  0.74505805969E-08  0.10566000000E+00  0.10566000000E+00 0. -1.
     999900   -1    0    0    0    0 -0.00000000000E+00 -0.00000000000E+00 -0.74505805969E-08  0.93827000000E+00  0.93827000000E+00 0. -1.
     999902    2    1    2    0    0 -0.95170595445E-02 -0.84516086098E-02  0.18650737616E-02  0.10310659955E+01  0.10309857441E+01 0.  0.
     999903    2    3    3    0    0 -0.88765291265E-01 -0.10194624188E+00 -0.50416952363E-02  0.14254518423E+00  0.44959956524E-01 0.  0.
         14    1    1    2    0    0  0.95170595445E-02  0.84516086098E-02 -0.18650737616E-02  0.12864004454E-01  0.00000000000E+00 0.  1.
     999901    1    3    3    0    0  0.79248231721E-01  0.93494633266E-01  0.69067689979E-02  0.88852081131E+00  0.88000000000E+00 0. -1.
        -11    1    4    4    0    0 -0.89011264822E-01 -0.77915688470E-01 -0.19761959212E-02  0.11831325474E+00  0.51100000000E-03 0. -1.
         11    1    4    4    0    0  0.24597355671E-03 -0.24030553407E-01 -0.30654993151E-02  0.24231929495E-01  0.51100000000E-03 0.  1.
</event>
<event>
 8    1  0.2025822E+004  0.1043930E+01  0.7957747E-01            NaN
         13   -1    0    0    0    0  0.00000000000E+00  0.00000000000E+00  0.74505805969E-08  0.10566000000E+00  0.10566000000E+00 0.  1.
     999900   -1    0    0    0    0 -0.00000000000E+00 -0.00000000000E+00 -0.74505805969E-08  0.93827000000E+00  0.93827000000E+00 0.  1.
     999902    2    1    2    0    0  0.66485272972E-02 -0.78829369604E-02  0.76693678814E-02  0.10310784315E+01  0.10309983361E+01 0.  0.
     999903    2    3    3    0    0  0.10770275487E+00  0.75769885407E-01  0.22932299277E-01  0.14122298888E+00  0.45575029326E-01 0.  0.
         14    1    1    2    0    0 -0.66485272972E-02  0.78829369604E-02 -0.76693678814E-02  0.12851568544E-01  0.00000000000E+00 0. -1.
     999901    1    3    3    0    0 -0.10105422757E+00 -0.83652822367E-01 -0.15262931396E-01  0.88985544257E+00  0.88000000000E+00 0. -1.
        -11    1    4    4    0    0  0.47975581850E-01  0.10796535707E-01 -0.29017091015E-02  0.49263603947E-01  0.51100000000E-03 0. -1.
         11    1    4    4    0    0  0.59727173020E-01  0.64973349699E-01  0.25834008379E-01  0.91959384937E-01  0.51100000000E-03 0.  1.
</event>
<event>
 8    1  0.2025822E+004  0.1043930E+01  0.7957747E-01            NaN
         13   -1    0    0    0    0  0.00000000000E+00  0.00000000000E+00  0.74505805969E-08  0.10566000000E+00  0.10566000000E+00 0. -1.
     999900   -1    0    0    0    0 -0.00000000000E+00 -0.00000000000E+00 -0.74505805969E-08  0.93827000000E+00  0.93827000000E+00 0. -1.
     999902    2    1    2    0    0 -0.92697432107E-02  0.97142409038E-02 -0.19466705540E-02  0.10303622389E+01  0.10302729052E+01 0.  0.
     999903    2    3    3    0    0 -0.92406382266E-01 -0.47958613983E-01  0.83324305220E-01  0.14046954970E+00  0.44156385888E-01 0.  0.
         14    1    1    2    0    0  0.92697432107E-02 -0.97142409038E-02  0.19466705540E-02  0.13567761119E-01  0.00000000000E+00 0.  1.
     999901    1    3    3    0    0  0.83136639055E-01  0.57672854886E-01 -0.85270975774E-01  0.88989268918E+00  0.88000000000E+00 0. -1.
        -11    1    4    4    0    0 -0.12739787639E-01 -0.21356880348E-01  0.44883504938E-02  0.25274986418E-01  0.51100000000E-03 0.  1.
         11    1    4    4    0    0 -0.79666594626E-01 -0.26601733635E-01  0.78835954726E-01  0.11519456328E+00  0.51100000000E-03 0. -1.
</event>
<event>
 8    1  0.2025822E+004  0.1043930E+01  0.7957747E-01            NaN
         13   -1    0    0    0    0  0.00000000000E+00  0.00000000000E+00  0.74505805969E-08  0.10566000000E+00  0.10566000000E+00 0. -1.
     999900   -1    0    0    0    0 -0.00000000000E+00 -0.00000000000E+00 -0.74505805969E-08  0.93827000000E+00  0.93827000000E+00 0. -1.
     999902    2    1    2    0    0 -0.12562676397E-01 -0.41558918911E-02 -0.38442822406E-02  0.10301506393E+01  0.10300584784E+01 0.  0.
     999903    2    3    3    0    0  0.11555099589E-01  0.12576831604E+00  0.37973890425E-01  0.13930232084E+00  0.44854549275E-01 0.  0.
         14    1    1    2    0    0  0.12562676397E-01  0.41558918911E-02  0.38442822406E-02  0.13779360712E-01  0.00000000000E+00 0. -1.
     999901    1    3    3    0    0 -0.24117775987E-01 -0.12992420793E+00 -0.41818172666E-01  0.89084831845E+00  0.88000000000E+00 0. -1.
        -11    1    4    4    0    0  0.27952861728E-01  0.68455038459E-01  0.26788708389E-01  0.78647001134E-01  0.51100000000E-03 0. -1.
         11    1    4    4    0    0 -0.16397762138E-01  0.57313277579E-01  0.11185182036E-01  0.60655319702E-01  0.51100000000E-03 0.  1.
</event>
<event>
 8    1  0.2025822E+004  0.1043930E+01  0.7957747E-01            NaN
         13   -1    0    0    0    0  0.00000000000E+00  0.00000000000E+00  0.74505805969E-08  0.10566000000E+00  0.10566000000E+00 0.  1.
     999900   -1    0    0    0    0 -0.00000000000E+00 -0.00000000000E+00 -0.74505805969E-08  0.93827000000E+00  0.93827000000E+00 0.  1.
     999902    2    1    2    0    0  0.43741181565E-02 -0.27384552220E-02 -0.13078624925E-01  0.10298700400E+01  0.10297740610E+01 0.  0.
     999903    2    3    3    0    0  0.94959249817E-01 -0.18571264380E-03  0.90787083798E-01  0.13913985184E+00  0.45829141049E-01 0.  0.
         14    1    1    2    0    0 -0.43741181565E-02  0.27384552220E-02  0.13078624925E-01  0.14059960049E-01  0.00000000000E+00 0.  1.
     999901    1    3    3    0    0 -0.90585131660E-01 -0.25527425782E-02 -0.10386570872E+00  0.89073018812E+00  0.88000000000E+00 0.  1.
        -11    1    4    4    0    0  0.78063910384E-01 -0.18540743199E-01  0.65056307973E-01  0.10329722935E+00  0.51100000000E-03 0. -1.
         11    1    4    4    0    0  0.16895339432E-01  0.18355030555E-01  0.25730775825E-01  0.35842622487E-01  0.51100000000E-03 0.  1.
</event>
<event>
 8    1  0.2025822E+004  0.1043930E+01  0.7957747E-01            NaN
         13   -1    0    0    0    0  0.00000000000E+00  0.00000000000E+00  0.74505805969E-08  0.10566000000E+00  0.10566000000E+00 0. -1.
     999900   -1    0    0    0    0 -0.00000000000E+00 -0.00000000000E+00 -0.74505805969E-08  0.93827000000E+00  0.93827000000E+00 0. -1.
     999902    2    1    2    0    0 -0.97934883274E-02  0.79481508905E-02 -0.15386951469E-02  0.10312235804E+01  0.10311452951E+01 0.  0.
     999903    2    3    3    0    0  0.12662149284E+00  0.27933256900E-01  0.29567575785E-01  0.13994581694E+00  0.43558246662E-01 0.  0.
         14    1    1    2    0    0  0.97934883274E-02 -0.79481508905E-02  0.15386951469E-02  0.12706419596E-01  0.00000000000E+00 0.  1.
     999901    1    3    3    0    0 -0.13641498117E+00 -0.19985106009E-01 -0.31106270932E-01  0.89127776346E+00  0.88000000000E+00 0. -1.
        -11    1    4    4    0    0  0.89785442110E-02  0.15737452351E-01  0.75702227639E-02  0.19643091823E-01  0.51100000000E-03 0. -1.
         11    1    4    4    0    0  0.11764294863E+00  0.12195804548E-01  0.21997353021E-01  0.12030272512E+00  0.51100000000E-03 0.  1.
</event>
<event>
 8    1  0.2025822E+004  0.1043930E+01  0.7957747E-01            NaN
         13   -1    0    0    0    0  0.00000000000E+00  0.00000000000E+00  0.74505805969E-08  0.10566000000E+00  0.10566000000E+00 0. -1.
     999900   -1    0    0    0    0 -0.00000000000E+00 -0.00000000000E+00 -0.74505805969E-08  0.93827000000E+00  0.93827000000E+00 0. -1.
     999902    2    1    2    0    0  0.13297527395E-01  0.22938778816E-02  0.64059857487E-03  0.10304208743E+01  0.10303323162E+01 0.  0.
     999903    2    3    3    0    0  0.21833052539E-01  0.60697726499E-01  0.11694864821E+00  0.14080779710E+00  0.44597681769E-01 0.  0.
         14    1    1    2    0    0 -0.13297527395E-01 -0.22938778816E-02 -0.64059857487E-03  0.13509125697E-01  0.00000000000E+00 0.  1.
     999901    1    3    3    0    0 -0.85355251442E-02 -0.58403848617E-01 -0.11630804964E+00  0.88961307720E+00  0.88000000000E+00 0. -1.
        -11    1    4    4    0    0  0.14840122827E-01  0.34827977280E-01  0.25840764022E-01  0.45839103975E-01  0.51100000000E-03 0. -1.
         11    1    4    4    0    0  0.69929297117E-02  0.25869749219E-01  0.91107884192E-01  0.94968693124E-01  0.51100000000E-03 0.  1.
</event>
<event>
 8    1  0.2025822E+004  0.1043930E+01  0.7957747E-01            NaN
         13   -1    0    0    0    0  0.00000000000E+00  0.00000000000E+00  0.74505805969E-08  0.10566000000E+00  0.10566000000E+00 0.  1.
     999900   -1    0    0    0    0 -0.00000000000E+00 -0.00000000000E+00 -0.74505805969E-08  0.93827000000E+00  0.93827000000E+00 0. -1.
     999902    2    1    2    0    0 -0.18684533806E-01  0.82562687348E-02  0.23871264767E-02  0.10233636160E+01  0.10231569354E+01 0.  0.
     999903    2    3    3    0    0 -0.95156483034E-01  0.76014353505E-01  0.42442115699E-01  0.13654710782E+00  0.44842404773E-01 0.  0.
         14    1    1    2    0    0  0.18684533806E-01 -0.82562687348E-02 -0.23871264767E-02  0.20566383975E-01  0.00000000000E+00 0.  1.
     999901    1    3    3    0    0  0.76471949227E-01 -0.67758084770E-01 -0.40054989223E-01  0.88681650821E+00  0.88000000000E+00 0.  1.
        -11    1    4    4    0    0 -0.60970677928E-01  0.31859914847E-01  0.43173820228E-02  0.68930244810E-01  0.51100000000E-03 0.  1.
         11    1    4    4    0    0 -0.34185805106E-01  0.44154438657E-01  0.38124733677E-01  0.67616863006E-01  0.51100000000E-03 0. -1.
</event>
<event>
 8    1  0.2025822E+004  0.1043930E+01  0.7957747E-01            NaN
         13   -1    0    0    0    0  0.00000000000E+00  0.00000000000E+00  0.74505805969E-08  0.10566000000E+00  0.10566000000E+00 0. -1.
     999900   -1    0    0    0    0 -0.00000000000E+00 -0.00000000000E+00 -0.74505805969E-08  0.93827000000E+00  0.93827000000E+00 0. -1.
     999902    2    1    2    0    0  0.52630351077E-02  0.11729517324E-01 -0.57490473610E-02  0.10298469371E+01  0.10297506403E+01 0.  0.
     999903    2    3    3    0    0  0.10157297868E+00 -0.27588004592E-01  0.79518028149E-01  0.13962676943E+00  0.45764068254E-01 0.  0.
         14    1    1    2    0    0 -0.52630351077E-02 -0.11729517324E-01  0.57490473610E-02  0.14083062904E-01  0.00000000000E+00 0.  1.
     999901    1    3    3    0    0 -0.96309943577E-01  0.39317521916E-01 -0.85267075510E-01  0.89022016767E+00  0.88000000000E+00 0. -1.
        -11    1    4    4    0    0  0.33446000270E-01 -0.31372382842E-01  0.39485034536E-01  0.60516034343E-01  0.51100000000E-03 0.  1.
         11    1    4    4    0    0  0.68126978415E-01  0.37843782505E-02  0.40032993613E-01  0.79110735083E-01  0.51100000000E-03 0. -1.
</event>
<event>
 8    1  0.2025822E+004  0.1043930E+01  0.7957747E-01            NaN
         13   -1    0    0    0    0  0.00000000000E+00  0.00000000000E+00  0.74505805969E-08  0.10566000000E+00  0.10566000000E+00 0. -1.
     999900   -1    0    0    0    0 -0.00000000000E+00 -0.00000000000E+00 -0.74505805969E-08  0.93827000000E+00  0.93827000000E+00 0.  1.
     999902    2    1    2    0    0 -0.10040235129E-02  0.13742540489E-01 -0.23707591737E-02  0.10299483699E+01  0.10298534646E+01 0.  0.
     999903    2    3    3    0    0  0.12639934717E+00 -0.16804456283E-01 -0.34918334864E-01  0.13965399014E+00  0.44997356999E-01 0.  0.
         14    1    1    2    0    0  0.10040235129E-02 -0.13742540489E-01  0.23707591737E-02  0.13981630140E-01  0.00000000000E+00 0. -1.
     999901    1    3    3    0    0 -0.12740337068E+00  0.30546996773E-01  0.32547575690E-01  0.89029437972E+00  0.88000000000E+00 0.  1.
        -11    1    4    4    0    0  0.11709307866E+00 -0.25890947009E-02 -0.24316452449E-01  0.11962041407E+00  0.51100000000E-03 0. -1.
         11    1    4    4    0    0  0.93062685100E-02 -0.14215361583E-01 -0.10601882415E-01  0.20033576072E-01  0.51100000000E-03 0.  1.
</event>
<event>
 8    1  0.2025822E+004  0.1043930E+01  0.7957747E-01            NaN
         13   -1    0    0    0    0  0.00000000000E+00  0.00000000000E+00  0.74505805969E-08  0.10566000000E+00  0.10566000000E+00 0.  1.
     999900   -1    0    0    0    0 -0.00000000000E+00 -0.00000000000E+00 -0.74505805969E-08  0.93827000000E+00  0.93827000000E+00 0.  1.
     999902    2    1    2    0    0 -0.40552969541E-02 -0.10196281206E-01  0.10413863673E-01  0.10288019419E+01  0.10286907104E+01 0.  0.
     999903    2    3    3    0    0  0.87073736255E-01  0.94510102113E-02 -0.95938138763E-01  0.13751003400E+00  0.45096849577E-01 0.  0.
         14    1    1    2    0    0  0.40552969541E-02  0.10196281206E-01 -0.10413863673E-01  0.15128058052E-01  0.00000000000E+00 0. -1.
     999901    1    3    3    0    0 -0.91129033209E-01 -0.19647291417E-01  0.10635200244E+00  0.89129190795E+00  0.88000000000E+00 0. -1.
        -11    1    4    4    0    0  0.59028248703E-01  0.27521849693E-01 -0.64577688914E-01  0.91718729723E-01  0.51100000000E-03 0. -1.
         11    1    4    4    0    0  0.28045487551E-01 -0.18070839482E-01 -0.31360449849E-01  0.45791304276E-01  0.51100000000E-03 0.  1.
</event>
<event>
 8    1  0.2025822E+004  0.1043930E+01  0.7957747E-01            NaN
         13   -1    0    0    0    0  0.00000000000E+00  0.00000000000E+00  0.74505805969E-08  0.10566000000E+00  0.10566000000E+00 0. -1.
     999900   -1    0    0    0    0 -0.00000000000E+00 -0.00000000000E+00 -0.74505805969E-08  0.93827000000E+00  0.93827000000E+00 0. -1.
     999902    2    1    2    0    0  0.46142064058E-02  0.49659189654E-02 -0.13217475453E-01  0.10290756098E+01  0.10289683949E+01 0.  0.
     999903    2    3    3    0    0  0.24979948281E-01  0.50452670358E-01  0.11800874026E+00  0.13795040662E+00  0.43986158570E-01 0.  0.
         14    1    1    2    0    0 -0.46142064058E-02 -0.49659189654E-02  0.13217475453E-01  0.14854390236E-01  0.00000000000E+00 0. -1.
     999901    1    3    3    0    0 -0.20365741875E-01 -0.45486751392E-01 -0.13122621571E+00  0.89112520315E+00  0.88000000000E+00 0. -1.
        -11    1    4    4    0    0  0.12302416299E-01 -0.16490677811E-02  0.60624708059E-02  0.13823297169E-01  0.51100000000E-03 0. -1.
         11    1    4    4    0    0  0.12677531981E-01  0.52101738139E-01  0.11194626945E+00  0.12412710945E+00  0.51100000000E-03 0.  1.
</event>
<event>
 8    1  0.2025822E+004  0.1043930E+01  0.7957747E-01            NaN
         13   -1    0    0    0    0  0.00000000000E+00  0.00000000000E+00  0.74505805969E-08  0.10566000000E+00  0.10566000000E+00 0.  1.
     999900   -1    0    0    0    0 -0.00000000000E+00 -0.00000000000E+00 -0.74505805969E-08  0.93827000000E+00  0.93827000000E+00 0.  1.
     999902    2    1    2    0    0 -0.67770805816E-02 -0.34041178165E-02  0.12296689114E-01  0.10294826680E+01  0.10293812891E+01 0.  0.
     999903    2    3    3    0    0 -0.57701693072E-01  0.50810740247E-01  0.10947274400E+00  0.14101446223E+00  0.44604710169E-01 0.  0.
         14    1    1    2    0    0  0.67770805816E-02  0.34041178165E-02 -0.12296689114E-01  0.14447332020E-01  0.00000000000E+00 0. -1.
     999901    1    3    3    0    0  0.50924612491E-01 -0.54214858063E-01 -0.97176054890E-01  0.88846820575E+00  0.88000000000E+00 0.  1.
        -11    1    4    4    0    0 -0.28495989892E-01  0.10070471378E-01  0.14284144705E-01  0.33432525251E-01  0.51100000000E-03 0.  1.
         11    1    4    4    0    0 -0.29205703180E-01  0.40740268869E-01  0.95188599299E-01  0.10758193698E+00  0.51100000000E-03 0. -1.
</event>
<event>
 8    1  0.2025822E+004  0.1043930E+01  0.7957747E-01            NaN
         13   -1    0    0    0    0  0.00000000000E+00  0.00000000000E+00  0.74505805969E-08  0.10566000000E+00  0.10566000000E+00 0.  1.
     999900   -1    0    0    0    0 -0.00000000000E+00 -0.00000000000E+00 -0.74505805969E-08  0.93827000000E+00  0.93827000000E+00 0.  1.
     999902    2    1    2    0    0 -0.66163312088E-03  0.17793099236E-02  0.20308146068E-01  0.10235333214E+01  0.10233300716E+01 0.  0.
     999903    2    3    3    0    0 -0.10791318252E+00 -0.52466999705E-01  0.43382743466E-01  0.13506385426E+00  0.44296063899E-01 0.  0.
         14    1    1    2    0    0  0.66163312088E-03 -0.17793099236E-02 -0.20308146068E-01  0.20396678624E-01  0.00000000000E+00 0. -1.
     999901    1    3    3    0    0  0.10725154940E+00  0.54246309629E-01 -0.23074597398E-01  0.88846946712E+00  0.88000000000E+00 0. -1.
        -11    1    4    4    0    0 -0.31952666622E-01  0.37247775015E-02  0.30119240589E-02  0.32313769189E-01  0.51100000000E-03 0. -1.
         11    1    4    4    0    0 -0.75960515896E-01 -0.56191777207E-01  0.40370819407E-01  0.10275008507E+00  0.51100000000E-03 0.  1.
</event>
<event>
 8    1  0.2025822E+004  0.1043930E+01  0.7957747E-01            NaN
         13   -1    0    0    0    0  0.00000000000E+00  0.00000000000E+00  0.74505805969E-08  0.10566000000E+00  0.10566000000E+00 0.  1.
     999900   -1    0    0    0    0 -0.00000000000E+00 -0.00000000000E+00 -0.74505805969E-08  0.93827000000E+00  0.93827000000E+00 0. -1.
     999902    2    1    2    0    0  0.68717643054E-02  0.82765250340E-02  0.88263524054E-02  0.10300150258E+01  0.10299210294E+01 0.  0.
     999903    2    3    3    0    0 -0.15798397335E-01 -0.12995434470E+00  0.95248675701E-02  0.13893579387E+00  0.45548991788E-01 0.  0.
         14    1    1    2    0    0 -0.68717643054E-02 -0.82765250340E-02 -0.88263524054E-02  0.13914974240E-01  0.00000000000E+00 0. -1.
     999901    1    3    3    0    0  0.22670161641E-01  0.13823086973E+00 -0.69851516477E-03  0.89107923189E+00  0.88000000000E+00 0. -1.
        -11    1    4    4    0    0  0.18560211875E-02 -0.16222854052E-01  0.17027143982E-01  0.23596833716E-01  0.51100000000E-03 0. -1.
         11    1    4    4    0    0 -0.17654418523E-01 -0.11373149065E+00 -0.75022764117E-02  0.11533896016E+00  0.51100000000E-03 0.  1.
</event>
<event>
 8    1  0.2025822E+004  0.1043930E+01  0.7957747E-01            NaN
         13   -1    0    0    0    0  0.00000000000E+00  0.00000000000E+00  0.74505805969E-08  0.10566000000E+00  0.10566000000E+00 0. -1.
     999900   -1    0    0    0    0 -0.00000000000E+00 -0.00000000000E+00 -0.74505805969E-08  0.93827000000E+00  0.93827000000E+00 0.  1.
     999902    2    1    2    0    0  0.13131108940E-01 -0.66638439906E-02 -0.99875196304E-03  0.10291709233E+01  0.10290650898E+01 0.  0.
     999903    2    3    3    0    0 -0.10154724649E+00  0.18759140173E-01 -0.79344582655E-01  0.13791589669E+00  0.45403558805E-01 0.  0.
         14    1    1    2    0    0 -0.13131108940E-01  0.66638439906E-02  0.99875196304E-03  0.14759076672E-01  0.00000000000E+00 0.  1.
     999901    1    3    3    0    0  0.11467835543E+00 -0.25422984163E-01  0.78345830692E-01  0.89125502664E+00  0.88000000000E+00 0. -1.
        -11    1    4    4    0    0 -0.22127342717E-01 -0.13987911057E-01 -0.25379513091E-01  0.36464527382E-01  0.51100000000E-03 0. -1.
         11    1    4    4    0    0 -0.79419903773E-01  0.32747051229E-01 -0.53965069564E-01  0.10145136930E+00  0.51100000000E-03 0.  1.
</event>
<event>
 8    1  0.2025822E+004  0.1043930E+01  0.7957747E-01            NaN
         13   -1    0    0    0    0  0.00000000000E+00  0.00000000000E+00  0.74505805969E-08  0.10566000000E+00  0.10566000000E+00 0. -1.
     999900   -1    0    0    0    0 -0.00000000000E+00 -0.00000000000E+00 -0.74505805969E-08  0.93827000000E+00  0.93827000000E+00 0. -1.
     999902    2    1    2    0    0  0.54037089643E-02  0.55547706536E-02  0.11100939167E-01  0.10303916693E+01  0.10303027253E+01 0.  0.
     999903    2    3    3    0    0  0.10249033025E+00  0.22564218987E-01 -0.80909441638E-01  0.14012146114E+00  0.45544202196E-01 0.  0.
         14    1    1    2    0    0 -0.54037089643E-02 -0.55547706536E-02 -0.11100939167E-01  0.13538330693E-01  0.00000000000E+00 0.  1.
     999901    1    3    3    0    0 -0.97086621286E-01 -0.17009448334E-01  0.92010380805E-01  0.89027020816E+00  0.88000000000E+00 0. -1.
        -11    1    4    4    0    0  0.44484824533E-01 -0.11179390385E-01 -0.22216743005E-01  0.50967864129E-01  0.51100000000E-03 0.  1.
         11    1    4    4    0    0  0.58005505717E-01  0.33743609372E-01 -0.58692698633E-01  0.89153597016E-01  0.51100000000E-03 0. -1.
</event>
<event>
 8    1  0.2025822E+004  0.1043930E+01  0.7957747E-01            NaN
         13   -1    0    0    0    0  0.00000000000E+00  0.00000000000E+00  0.74505805969E-08  0.10566000000E+00  0.10566000000E+00 0. -1.
     999900   -1    0    0    0    0 -0.00000000000E+00 -0.00000000000E+00 -0.74505805969E-08  0.93827000000E+00  0.93827000000E+00 0. -1.
     999902    2    1    2    0    0  0.92036755351E-02 -0.88018748409E-02  0.18974990083E-02  0.10310543972E+01  0.10309740001E+01 0.  0.
     999903    2    3    3    0    0  0.63078433225E-01  0.10346883735E+00  0.53639675231E-01  0.14078227303E+00  0.47515730023E-01 0.  0.
         14    1    1    2    0    0 -0.92036755351E-02  0.88018748409E-02 -0.18974990083E-02  0.12875602765E-01  0.00000000000E+00 0.  1.
     999901    1    3    3    0    0 -0.53874757690E-01 -0.11227071220E+00 -0.51742176223E-01  0.89027212420E+00  0.88000000000E+00 0. -1.
        -11    1    4    4    0    0 -0.78977988404E-02  0.11334306572E-01  0.67152607518E-02  0.15368720830E-01  0.51100000000E-03 0. -1.
         11    1    4    4    0    0  0.70976232066E-01  0.92134530782E-01  0.46924414479E-01  0.12541355220E+00  0.51100000000E-03 0.  1.
</event>
<event>
 8    1  0.2025822E+004  0.1043930E+01  0.7957747E-01            NaN
         13   -1    0    0    0    0  0.00000000000E+00  0.00000000000E+00  0.74505805969E-08  0.10566000000E+00  0.10566000000E+00 0. -1.
     999900   -1    0    0    0    0 -0.00000000000E+00 -0.00000000000E+00 -0.74505805969E-08  0.93827000000E+00  0.93827000000E+00 0.  1.
     999902    2    1    2    0    0  0.95259583948E-03  0.14993795384E-01  0.60051405469E-03  0.10288939781E+01  0.10287841057E+01 0.  0.
     999903    2    3    3    0    0 -0.48480853559E-01  0.22593016467E-01  0.12056011596E+00  0.13934818375E+00  0.44970403581E-01 0.  0.
         14    1    1    2    0    0 -0.95259583948E-03 -0.14993795384E-01 -0.60051405469E-03  0.15036021946E-01  0.00000000000E+00 0.  1.
     999901    1    3    3    0    0  0.49433449398E-01 -0.75992210833E-02 -0.11995960191E+00  0.88954579431E+00  0.88000000000E+00 0.  1.
        -11    1    4    4    0    0 -0.23662694236E-01  0.29984948263E-01  0.42703198625E-01  0.57296112561E-01  0.51100000000E-03 0.  1.
         11    1    4    4    0    0 -0.24818159323E-01 -0.73919317956E-02  0.77856917335E-01  0.82052071185E-01  0.51100000000E-03 0. -1.
</event>
<event>
 8    1  0.2025822E+004  0.1043930E+01  0.7957747E-01            NaN
         13   -1    0    0    0    0  0.00000000000E+00  0.00000000000E+00  0.74505805969E-08  0.10566000000E+00  0.10566000000E+00 0. -1.
     999900   -1    0    0    0    0 -0.00000000000E+00 -0.00000000000E+00 -0.74505805969E-08  0.93827000000E+00  0.93827000000E+00 0. -1.
     999902    2    1    2    0    0 -0.97906696498E-02  0.32581336869E-02  0.45686424285E-02  0.10326452696E+01  0.10325836081E+01 0.  0.
     999903    2    3    3    0    0  0.46773958926E-01  0.11964965087E+00  0.43384346881E-01  0.14233453651E+00  0.43279054315E-01 0.  0.
         14    1    1    2    0    0  0.97906696498E-02 -0.32581336869E-02 -0.45686424285E-02  0.11284730433E-01  0.00000000000E+00 0.  1.
     999901    1    3    3    0    0 -0.56564628576E-01 -0.11639151719E+00 -0.38815704453E-01  0.89031073305E+00  0.88000000000E+00 0. -1.
        -11    1    4    4    0    0  0.22968736286E-01  0.91231776312E-01  0.46847109316E-01  0.10509858528E+00  0.51100000000E-03 0.  1.
         11    1    4    4    0    0  0.23805222640E-01  0.28417874561E-01 -0.34627624351E-02  0.37235951232E-01  0.51100000000E-03 0. -1.
</event>
<event>
 8    1  0.2025822E+004  0.1043930E+01  0.7957747E-01            NaN
         13   -1    0    0    0    0  0.00000000000E+00  0.00000000000E+00  0.74505805969E-08  0.10566000000E+00  0.10566000000E+00 0. -1.
     999900   -1    0    0    0    0 -0.00000000000E+00 -0.00000000000E+00 -0.74505805969E-08  0.93827000000E+00  0.93827000000E+00 0. -1.
     999902    2    1    2    0    0 -0.11131309172E-01  0.35687265036E-02  0.75825164013E-02  0.10299967158E+01  0.10299024702E+01 0.  0.
     999903    2    3    3    0    0  0.34554881673E-02 -0.11864120059E+00  0.56471264804E-01  0.14008764707E+00  0.48454826766E-01 0.  0.
         14    1    1    2    0    0  0.11131309172E-01 -0.35687265036E-02 -0.75825164013E-02  0.13933284168E-01  0.00000000000E+00 0.  1.
     999901    1    3    3    0    0 -0.14586797339E-01  0.12220992710E+00 -0.48888748403E-01  0.88990906876E+00  0.88000000000E+00 0. -1.
        -11    1    4    4    0    0 -0.16848043301E-01 -0.69229163797E-01  0.15897589200E-01  0.73003617352E-01  0.51100000000E-03 0. -1.
         11    1    4    4    0    0  0.20303531469E-01 -0.49412036798E-01  0.40573675604E-01  0.67084029722E-01  0.51100000000E-03 0.  1.
</event>
<event>
 8    1  0.2025822E+004  0.1043930E+01  0.7957747E-01            NaN
         13   -1    0    0    0    0  0.00000000000E+00  0.00000000000E+00  0.74505805969E-08  0.10566000000E+00  0.10566000000E+00 0.  1.
     999900   -1    0    0    0    0 -0.00000000000E+00 -0.00000000000E+00 -0.74505805969E-08  0.93827000000E+00  0.93827000000E+00 0.  1.
     999902    2    1    2    0    0 -0.59148078022E-02 -0.94776411649E-02 -0.79792476217E-02  0.10302012336E+01  0.10301097528E+01 0.  0.
     999903    2    3    3    0    0  0.10293530473E+00 -0.82273360001E-01  0.16449382253E-01  0.14017633418E+00  0.44880282577E-01 0.  0.
         14    1    1    2    0    0  0.59148078022E-02  0.94776411649E-02  0.79792476217E-02  0.13728766368E-01  0.00000000000E+00 0.  1.
     999901    1    3    3    0    0 -0.10885011253E+00  0.72795718836E-01 -0.24428629874E-01  0.89002489945E+00  0.88000000000E+00 0. -1.
        -11    1    4    4    0    0  0.46016632066E-01 -0.99702907942E-02  0.80912706469E-02  0.47777263493E-01  0.51100000000E-03 0. -1.
         11    1    4    4    0    0  0.56918672659E-01 -0.72303069207E-01  0.83581116057E-02  0.92399070692E-01  0.51100000000E-03 0.  1.
</event>
<event>
 8    1  0.2025822E+004  0.1043930E+01  0.7957747E-01            NaN
         13   -1    0    0    0    0  0.00000000000E+00  0.00000000000E+00  0.74505805969E-08  0.10566000000E+00  0.10566000000E+00 0.  1.
     999900   -1    0    0    0    0 -0.00000000000E+00 -0.00000000000E+00 -0.74505805969E-08  0.93827000000E+00  0.93827000000E+00 0.  1.
     999902    2    1    2    0    0 -0.65893842252E-02  0.24874422038E-02  0.12087562024E-01  0.10299401283E+01  0.10298451104E+01 0.  0.
     999903    2    3    3    0    0  0.11553335696E+00 -0.62276715390E-01 -0.62215418119E-02  0.13896112562E+00  0.45223235172E-01 0.  0.
         14    1    1    2    0    0  0.65893842252E-02 -0.24874422038E-02 -0.12087562024E-01  0.13989871653E-01  0.00000000000E+00 0. -1.
     999901    1    3    3    0    0 -0.12212274119E+00  0.64764157594E-01  0.18309103836E-01  0.89097900273E+00  0.88000000000E+00 0.  1.
        -11    1    4    4    0    0  0.83586214868E-01 -0.35945462081E-01 -0.23692214349E-01  0.94022942424E-01  0.51100000000E-03 0. -1.
         11    1    4    4    0    0  0.31947142093E-01 -0.26331253309E-01  0.17470672537E-01  0.44938183193E-01  0.51100000000E-03 0.  1.
</event>
<event>
 8    1  0.2025822E+004  0.1043930E+01  0.7957747E-01            NaN
         13   -1    0    0    0    0  0.00000000000E+00  0.00000000000E+00  0.74505805969E-08  0.10566000000E+00  0.10566000000E+00 0. -1.
     999900   -1    0    0    0    0 -0.00000000000E+00 -0.00000000000E+00 -0.74505805969E-08  0.93827000000E+00  0.93827000000E+00 0. -1.
     999902    2    1    2    0    0 -0.28221413646E-02  0.13987548151E-01 -0.10434889415E-02  0.10296224896E+01  0.10295230771E+01 0.  0.
     999903    2    3    3    0    0 -0.77162084983E-01 -0.22786024764E-01  0.10410670950E+00  0.13949031563E+00  0.46326568042E-01 0.  0.
         14    1    1    2    0    0  0.28221413646E-02 -0.13987548151E-01  0.10434889415E-02  0.14307510417E-01  0.00000000000E+00 0. -1.
     999901    1    3    3    0    0  0.74339943619E-01  0.36773572915E-01 -0.10515019844E+00  0.89013217396E+00  0.88000000000E+00 0. -1.
        -11    1    4    4    0    0 -0.81433521282E-02 -0.75377893172E-02  0.47931455413E-01  0.49201808815E-01  0.51100000000E-03 0. -1.
         11    1    4    4    0    0 -0.69018732855E-01 -0.15248235446E-01  0.56175254089E-01  0.90288506810E-01  0.51100000000E-03 0.  1.
</event>
<event>
 7    1  0.2025822E+004  0.1043930E+01  0.7957747E-01            NaN
         13   -1    0    0    0    0  0.00000000000E+00  0.00000000000E+00  0.74505805969E-08  0.10566000000E+00  0.10566000000E+00 0.  1.
     999900   -1    0    0    0    0 -0.00000000000E+00 -0.00000000000E+00 -0.74505805969E-08  0.93827000000E+00  0.93827000000E+00 0. -1.
     999903    2    1    2    0    0 -0.58703469934E-01 -0.64260837393E-01 -0.44165817625E-01  0.10763829524E+00  0.45385356138E-01 0.  0.
         14    1    1    2    0    0  0.19432147549E-03  0.31507526342E-01 -0.38647769528E-01  0.49863935530E-01  0.00000000000E+00 0. -1.
     999901    1    1    2    0    0  0.58509148459E-01  0.32753311051E-01  0.82813587154E-01  0.88642776923E+00  0.88000000000E+00 0.  1.
        -11    1    3    3    0    0 -0.48726131270E-01 -0.26513364621E-01 -0.11330101026E-01  0.56620020154E-01  0.51100000000E-03 0. -1.
         11    1    3    3    0    0 -0.99773386645E-02 -0.37747472772E-01 -0.32835716600E-01  0.51018275090E-01  0.51100000000E-03 0.  1.
</event>
<event>
 8    1  0.2025822E+004  0.1043930E+01  0.7957747E-01            NaN
         13   -1    0    0    0    0  0.00000000000E+00  0.00000000000E+00  0.74505805969E-08  0.10566000000E+00  0.10566000000E+00 0.  1.
     999900   -1    0    0    0    0 -0.00000000000E+00 -0.00000000000E+00 -0.74505805969E-08  0.93827000000E+00  0.93827000000E+00 0.  1.
     999902    2    1    2    0    0 -0.94961287810E-02 -0.35993995339E-02  0.10472586218E-01  0.10293420872E+01  0.10292387115E+01 0.  0.
     999903    2    3    3    0    0 -0.32065206946E-01  0.63094006330E-01 -0.11018769679E+00  0.13832229077E+00  0.44527479932E-01 0.  0.
         14    1    1    2    0    0  0.94961287810E-02  0.35993995339E-02 -0.10472586218E-01  0.14587912836E-01  0.00000000000E+00 0. -1.
     999901    1    3    3    0    0  0.22569078165E-01 -0.66693405863E-01  0.12066028300E+00  0.89101979640E+00  0.88000000000E+00 0. -1.
        -11    1    4    4    0    0 -0.20148682478E-01  0.16557103287E-01 -0.11387326288E-01  0.28461191048E-01  0.51100000000E-03 0. -1.
         11    1    4    4    0    0 -0.11916524468E-01  0.46536903042E-01 -0.98800370498E-01  0.10986109972E+00  0.51100000000E-03 0.  1.
</event>
<event>
 8    1  0.2025822E+004  0.1043930E+01  0.7957747E-01            NaN
         13   -1    0    0    0    0  0.00000000000E+00  0.00000000000E+00  0.74505805969E-08  0.10566000000E+00  0.10566000000E+00 0.  1.
     999900   -1    0    0    0    0 -0.00000000000E+00 -0.00000000000E+00 -0.74505805969E-08  0.93827000000E+00  0.93827000000E+00 0. -1.
     999902    2    1    2    0    0 -0.13883580979E-01 -0.26593260074E-02 -0.19351708907E-02  0.10296621788E+01  0.10295633209E+01 0.  0.
     999903    2    3    3    0    0  0.22153458009E-01  0.12238108934E+00  0.43147254483E-01  0.13895111524E+00  0.44472689693E-01 0.  0.
         14    1    1    2    0    0  0.13883580979E-01  0.26593260074E-02  0.19351708907E-02  0.14267821207E-01  0.00000000000E+00 0.  1.
     999901    1    3    3    0    0 -0.36037038989E-01 -0.12504041535E+00 -0.45082425373E-01  0.89071106355E+00  0.88000000000E+00 0. -1.
        -11    1    4    4    0    0  0.15843771687E-01  0.29788932440E-01  0.30122952641E-01  0.45233383623E-01  0.51100000000E-03 0. -1.
         11    1    4    4    0    0  0.63096863222E-02  0.92592156900E-01  0.13024301842E-01  0.93717731622E-01  0.51100000000E-03 0.  1.
</event>
<event>
 8    1  0.2025822E+004  0.1043930E+01  0.7957747E-01            NaN
         13   -1    0    0    0    0  0.00000000000E+00  0.00000000000E+00  0.74505805969E-08  0.10566000000E+00  0.10566000000E+00 0. -1.
     999900   -1    0    0    0    0 -0.00000000000E+00 -0.00000000000E+00 -0.74505805969E-08  0.93827000000E+00  0.93827000000E+00 0.  1.
     999902    2    1    2    0    0 -0.31201702820E-02  0.36216962779E-02 -0.11083308259E-01  0.10318597113E+01  0.10317891122E+01 0.  0.
     999903    2    3    3    0    0  0.20600653812E-01  0.93234055132E-01  0.93348045917E-01  0.14084963278E+00  0.44808318458E-01 0.  0.
         14    1    1    2    0    0  0.31201702820E-02 -0.36216962779E-02  0.11083308259E-01  0.12070288666E-01  0.00000000000E+00 0. -1.
     999901    1    3    3    0    0 -0.23720824094E-01 -0.89612358854E-01 -0.10443135418E+00  0.89101007856E+00  0.88000000000E+00 0.  1.
        -11    1    4    4    0    0 -0.29967981851E-02  0.11010226569E-01  0.36232534879E-01  0.37990309201E-01  0.51100000000E-03 0. -1.
         11    1    4    4    0    0  0.23597451997E-01  0.82223828563E-01  0.57115511038E-01  0.10285932358E+00  0.51100000000E-03 0.  1.
</event>
<event>
 8    1  0.2025822E+004  0.1043930E+01  0.7957747E-01            NaN
         13   -1    0    0    0    0  0.00000000000E+00  0.00000000000E+00  0.74505805969E-08  0.10566000000E+00  0.10566000000E+00 0.  1.
     999900   -1    0    0    0    0 -0.00000000000E+00 -0.00000000000E+00 -0.74505805969E-08  0.93827000000E+00  0.93827000000E+00 0. -1.
     999902    2    1    2    0    0  0.49378546642E-04  0.13888855567E-01  0.48424523752E-02  0.10292210880E+01  0.10291159779E+01 0.  0.
     999903    2    3    3    0    0 -0.64008994641E-02 -0.12800129836E+00  0.21196573539E-01  0.13768203718E+00  0.45626140928E-01 0.  0.
         14    1    1    2    0    0 -0.49378546642E-04 -0.13888855567E-01 -0.48424523752E-02  0.14708912000E-01  0.00000000000E+00 0. -1.
     999901    1    3    3    0    0  0.64502780108E-02  0.14189015392E+00 -0.16354121164E-01  0.89153905083E+00  0.88000000000E+00 0. -1.
        -11    1    4    4    0    0  0.19474853842E-01 -0.64397989336E-01  0.79443787391E-02  0.67747658537E-01  0.51100000000E-03 0. -1.
         11    1    4    4    0    0 -0.25875753306E-01 -0.63603309021E-01  0.13252194800E-01  0.69934378638E-01  0.51100000000E-03 0.  1.
</event>
<event>
 8    1  0.2025822E+004  0.1043930E+01  0.7957747E-01            NaN
         13   -1    0    0    0    0  0.00000000000E+00  0.00000000000E+00  0.74505805969E-08  0.10566000000E+00  0.10566000000E+00 0. -1.
     999900   -1    0    0    0    0 -0.00000000000E+00 -0.00000000000E+00 -0.74505805969E-08  0.93827000000E+00  0.93827000000E+00 0.  1.
     999902    2    1    2    0    0  0.41745522934E-03 -0.14184180986E-01 -0.13027103052E-02  0.10296800066E+01  0.10295813973E+01 0.  0.
     999903    2    3    3    0    0  0.12535935202E+00 -0.20813640454E-01  0.37968134844E-01  0.13996284555E+00  0.44719616516E-01 0.  0.
         14    1    1    2    0    0 -0.41745522934E-03  0.14184180986E-01  0.13027103052E-02  0.14249993447E-01  0.00000000000E+00 0. -1.
     999901    1    3    3    0    0 -0.12494189680E+00  0.66294594685E-02 -0.39270845149E-01  0.88971716100E+00  0.88000000000E+00 0.  1.
        -11    1    4    4    0    0  0.33105270359E-01 -0.25869192335E-01  0.16255818342E-01  0.45052045331E-01  0.51100000000E-03 0.  1.
         11    1    4    4    0    0  0.92254081666E-01  0.50555518806E-02  0.21712316503E-01  0.94910800217E-01  0.51100000000E-03 0. -1.
</event>
<event>
 8    1  0.2025822E+004  0.1043930E+01  0.7957747E-01            NaN
         13   -1    0    0    0    0  0.00000000000E+00  0.00000000000E+00  0.74505805969E-08  0.10566000000E+00  0.10566000000E+00 0. -1.
     999900   -1    0    0    0    0 -0.00000000000E+00 -0.00000000000E+00 -0.74505805969E-08  0.93827000000E+00  0.93827000000E+00 0. -1.
     999902    2    1    2    0    0  0.21041406564E-02 -0.55894217637E-02  0.12663914459E-01  0.10299284368E+01  0.10298332589E+01 0.  0.
     999903    2    3    3    0    0  0.89254459527E-01  0.25316641233E-01 -0.92728954887E-01  0.13882910464E+00  0.45470543782E-01 0.  0.
         14    1    1    2    0    0 -0.21041406564E-02  0.55894217637E-02 -0.12663914459E-01  0.14001563233E-01  0.00000000000E+00 0.  1.
     999901    1    3    3    0    0 -0.87150318871E-01 -0.30906062996E-01  0.10539286935E+00  0.89109933213E+00  0.88000000000E+00 0.  1.
        -11    1    4    4    0    0  0.33906859948E-01  0.27320341746E-01 -0.61155617508E-01  0.75075607879E-01  0.51100000000E-03 0. -1.
         11    1    4    4    0    0  0.55347599579E-01 -0.20037005132E-02 -0.31573337378E-01  0.63753496760E-01  0.51100000000E-03 0.  1.
</event>
<event>
 8    1  0.2025822E+004  0.1043930E+01  0.7957747E-01            NaN
         13   -1    0    0    0    0  0.00000000000E+00  0.00000000000E+00  0.74505805969E-08  0.10566000000E+00  0.10566000000E+00 0. -1.
     999900   -1    0    0    0    0 -0.00000000000E+00 -0.00000000000E+00 -0.74505805969E-08  0.93827000000E+00  0.93827000000E+00 0.  1.
     999902    2    1    2    0    0  0.67246647630E-02  0.98825099842E-02  0.61396548363E-02  0.10304919763E+01  0.10304043540E+01 0.  0.
     999903    2    3    3    0    0 -0.27988306594E-02 -0.90961468236E-01 -0.95007982522E-01  0.13892534981E+00  0.44630862863E-01 0.  0.
         14    1    1    2    0    0 -0.67246647630E-02 -0.98825099842E-02 -0.61396548363E-02  0.13438023712E-01  0.00000000000E+00 0.  1.
     999901    1    3    3    0    0  0.95234954225E-02  0.10084397822E+00  0.10114763736E+00  0.89156662648E+00  0.88000000000E+00 0.  1.
        -11    1    4    4    0    0 -0.18976339306E-01 -0.21078919113E-01 -0.37301612466E-01  0.46862497778E-01  0.51100000000E-03 0.  1.
         11    1    4    4    0    0  0.16177508647E-01 -0.69882549123E-01 -0.57706370056E-01  0.92062852031E-01  0.51100000000E-03 0. -1.
</event>
<event>
 8    1  0.2025822E+004  0.1043930E+01  0.7957747E-01            NaN
         13   -1    0    0    0    0  0.00000000000E+00  0.00000000000E+00  0.74505805969E-08  0.10566000000E+00  0.10566000000E+00 0. -1.
     999900   -1    0    0    0    0 -0.00000000000E+00 -0.00000000000E+00 -0.74505805969E-08  0.93827000000E+00  0.93827000000E+00 0. -1.
     999902    2    1    2    0    0  0.53127100314E-02  0.45156744111E-02 -0.12182266649E-01  0.10298934825E+01  0.10297978255E+01 0.  0.
     999903    2    3    3    0    0  0.15255195889E-01  0.23257363177E-01 -0.13120330864E+00  0.14162769323E+00  0.45502410337E-01 0.  0.
         14    1    1    2    0    0 -0.53127100314E-02 -0.45156744111E-02  0.12182266649E-01  0.14036517516E-01  0.00000000000E+00 0. -1.
     999901    1    3    3    0    0 -0.99424858580E-02 -0.18741688766E-01  0.11902104200E+00  0.88826578925E+00  0.88000000000E+00 0.  1.
        -11    1    4    4    0    0  0.18874722612E-01 -0.89484910790E-02 -0.49424852544E-01  0.53660113830E-01  0.51100000000E-03 0.  1.
         11    1    4    4    0    0 -0.36195267231E-02  0.32205854256E-01 -0.81778456101E-01  0.87967579399E-01  0.51100000000E-03 0. -1.
</event>
<event>
 8    1  0.2025822E+004  0.1043930E+01  0.7957747E-01            NaN
         13   -1    0    0    0    0  0.00000000000E+00  0.00000000000E+00  0.74505805969E-08  0.10566000000E+00  0.10566000000E+00 0. -1.
     999900   -1    0    0    0    0 -0.00000000000E+00 -0.00000000000E+00 -0.74505805969E-08  0.93827000000E+00  0.93827000000E+00 0. -1.
     999902    2    1    2    0    0 -0.37478916236E-02  0.11557086128E-01 -0.71616473059E-02  0.10298267336E+01  0.10297301584E+01 0.  0.
     999903    2    3    3    0    0  0.12761681759E+00  0.33883964039E-01  0.14966112045E-02  0.13975362325E+00  0.45767458027E-01 0.  0.
         14    1    1    2    0    0  0.37478916236E-02 -0.11557086128E-01  0.71616473059E-02  0.14103266413E-01  0.00000000000E+00 0. -1.
     999901    1    3    3    0    0 -0.13136470922E+00 -0.22326877911E-01 -0.86582585104E-02  0.89007311034E+00  0.88000000000E+00 0.  1.
        -11    1    4    4    0    0  0.58521727715E-01  0.25478613157E-01  0.21460914862E-01  0.67340807323E-01  0.51100000000E-03 0.  1.
         11    1    4    4    0    0  0.69095089879E-01  0.84053508817E-02 -0.19964303657E-01  0.72412815926E-01  0.51100000000E-03 0. -1.
</event>
<event>
 8    1  0.2025822E+004  0.1043930E+01  0.7957747E-01            NaN
         13   -1    0    0    0    0  0.00000000000E+00  0.00000000000E+00  0.74505805969E-08  0.10566000000E+00  0.10566000000E+00 0.  1.
     999900   -1    0    0    0    0 -0.00000000000E+00 -0.00000000000E+00 -0.74505805969E-08  0.93827000000E+00  0.93827000000E+00 0. -1.
     999902    2    1    2    0    0  0.17825621317E-02  0.11417131318E-01 -0.73646948759E-02  0.10302271847E+01  0.10301360517E+01 0.  0.
     999903    2    3    3    0    0 -0.75420375307E-02 -0.12253865727E+00 -0.42056401150E-01  0.13936545814E+00  0.50807334001E-01 0.  0.
         14    1    1    2    0    0 -0.17825621317E-02 -0.11417131318E-01  0.73646948759E-02  0.13702815255E-01  0.00000000000E+00 0.  1.
     999901    1    3    3    0    0  0.93245996624E-02  0.13395578859E+00  0.34691706274E-01  0.89086172661E+00  0.88000000000E+00 0. -1.
        -11    1    4    4    0    0 -0.39075012093E-03 -0.44161713606E-01  0.96337366748E-02  0.45204862986E-01  0.51100000000E-03 0. -1.
         11    1    4    4    0    0 -0.71512874098E-02 -0.78376943663E-01 -0.51690137825E-01  0.94160595149E-01  0.51100000000E-03 0.  1.
</event>
<event>
 8    1  0.2025822E+004  0.1043930E+01  0.7957747E-01            NaN
         13   -1    0    0    0    0  0.00000000000E+00  0.00000000000E+00  0.74505805969E-08  0.10566000000E+00  0.10566000000E+00 0.  1.
     999900   -1    0    0    0    0 -0.00000000000E+00 -0.00000000000E+00 -0.74505805969E-08  0.93827000000E+00  0.93827000000E+00 0.  1.
     999902    2    1    2    0    0 -0.93936258431E-02 -0.79280434994E-02  0.65317839541E-02  0.10300102916E+01  0.10299162308E+01 0.  0.
     999903    2    3    3    0    0  0.82031773849E-01  0.71713796259E-01 -0.72336358176E-01  0.13820223479E+00  0.44667980624E-01 0.  0.
         14    1    1    2    0    0  0.93936258431E-02  0.79280434994E-02 -0.65317839541E-02  0.13919708396E-01  0.00000000000E+00 0. -1.
     999901    1    3    3    0    0 -0.91425399693E-01 -0.79641839758E-01  0.78868142130E-01  0.89180805681E+00  0.88000000000E+00 0. -1.
        -11    1    4    4    0    0  0.64315645499E-01  0.67528736921E-01 -0.40813167766E-01  0.10179689755E+00  0.51100000000E-03 0. -1.
         11    1    4    4    0    0  0.17716128350E-01  0.41850593374E-02 -0.31523190410E-01  0.36405337246E-01  0.51100000000E-03 0.  1.
</event>
<event>
 8    1  0.2025822E+004  0.1043930E+01  0.7957747E-01            NaN
         13   -1    0    0    0    0  0.00000000000E+00  0.00000000000E+00  0.74505805969E-08  0.10566000000E+00  0.10566000000E+00 0. -1.
     999900   -1    0    0    0    0 -0.00000000000E+00 -0.00000000000E+00 -0.74505805969E-08  0.93827000000E+00  0.93827000000E+00 0.  1.
     999902    2    1    2    0    0  0.12703687811E-02  0.12810559661E-01 -0.43097394257E-02  0.10303543553E+01  0.10302649171E+01 0.  0.
     999903    2    3    3    0    0  0.81002525653E-01  0.49809742555E-01 -0.94268920861E-01  0.14141183143E+00  0.45478093782E-01 0.  0.
         14    1    1    2    0    0 -0.12703687811E-02 -0.12810559661E-01  0.43097394257E-02  0.13575644721E-01  0.00000000000E+00 0. -1.
     999901    1    3    3    0    0 -0.79732156872E-01 -0.36999182894E-01  0.89959181435E-01  0.88894252384E+00  0.88000000000E+00 0. -1.
        -11    1    4    4    0    0  0.58451368645E-02  0.25772015341E-01 -0.25856170269E-01  0.36975195222E-01  0.51100000000E-03 0.  1.
         11    1    4    4    0    0  0.75157388788E-01  0.24037727214E-01 -0.68412750591E-01  0.10443663621E+00  0.51100000000E-03 0. -1.
</event>
<event>
 8    1  0.2025822E+004  0.1043930E+01  0.7957747E-01            NaN
         13   -1    0    0    0    0  0.00000000000E+00  0.00000000000E+00  0.74505805969E-08  0.10566000000E+00  0.10566000000E+00 0.  1.
     999900   -1    0    0    0    0 -0.00000000000E+00 -0.00000000000E+00 -0.74505805969E-08  0.93827000000E+00  0.93827000000E+00 0.  1.
     999902    2    1    2    0    0 -0.95920326960E-02 -0.97658547908E-02 -0.44211090629E-03  0.10302342170E+01  0.10301431781E+01 0.  0.
     999903    2    3    3    0    0  0.76019614982E-01 -0.38090366789E-04  0.10869086109E+00  0.13931671842E+00  0.42619965211E-01 0.  0.
         14    1    1    2    0    0  0.95920326960E-02  0.97658547908E-02  0.44211090629E-03  0.13695783040E-01  0.00000000000E+00 0.  1.
     999901    1    3    3    0    0 -0.85611647678E-01 -0.97277644241E-02 -0.10913297200E+00  0.89091749854E+00  0.88000000000E+00 0.  1.
        -11    1    4    4    0    0  0.13232538923E-01  0.16305100472E-01  0.37601865273E-01  0.43071078241E-01  0.51100000000E-03 0.  1.
         11    1    4    4    0    0  0.62787076059E-01 -0.16343190839E-01  0.71088995819E-01  0.96245640184E-01  0.51100000000E-03 0. -1.
</event>
<event>
 8    1  0.2025822E+004  0.1043930E+01  0.7957747E-01            NaN
         13   -1    0    0    0    0  0.00000000000E+00  0.00000000000E+00  0.74505805969E-08  0.10566000000E+00  0.10566000000E+00 0. -1.
     999900   -1    0    0    0    0 -0.00000000000E+00 -0.00000000000E+00 -0.74505805969E-08  0.93827000000E+00  0.93827000000E+00 0.  1.
     999902    2    1    2    0    0  0.27954829636E-02 -0.75755589456E-03  0.13045204836E-01  0.10305671416E+01  0.10304805031E+01 0.  0.
     999903    2    3    3    0    0 -0.11747811004E+00  0.42117615514E-01  0.46926220137E-01  0.14070651165E+00  0.44958340819E-01 0.  0.
         14    1    1    2    0    0 -0.27954829636E-02  0.75755589456E-03 -0.13045204836E-01  0.13362858419E-01  0.00000000000E+00 0.  1.
     999901    1    3    3    0    0  0.12027359301E+00 -0.42875171408E-01 -0.33881015302E-01  0.88986062993E+00  0.88000000000E+00 0.  1.
        -11    1    4    4    0    0 -0.52073625678E-01  0.34268850689E-02  0.15811845523E-02  0.52212712036E-01  0.51100000000E-03 0.  1.
         11    1    4    4    0    0 -0.65404484365E-01  0.38690730445E-01  0.45345035585E-01  0.88493799617E-01  0.51100000000E-03 0. -1.
</event>
<event>
 7    1  0.2025822E+004  0.1043930E+01  0.7957747E-01            NaN
         13   -1    0    0    0    0  0.00000000000E+00  0.00000000000E+00  0.74505805969E-08  0.10566000000E+00  0.10566000000E+00 0.  1.
     999900   -1    0    0    0    0 -0.00000000000E+00 -0.00000000000E+00 -0.74505805969E-08  0.93827000000E+00  0.93827000000E+00 0. -1.
     999902    2    1    2    0    0  0.62605878325E-02 -0.50910610770E-02  0.11698628511E-01  0.10297183227E+01  0.10296202467E+01 0.  0.
         14    1    1    2    0    0 -0.62605878325E-02  0.50910610770E-02 -0.11698628511E-01  0.14211677309E-01  0.00000000000E+00 0. -1.
     999901    1    3    3    0    0 -0.11825548867E+00 -0.17218377857E-02  0.69266361456E-01  0.89060942851E+00  0.88000000000E+00 0.  1.
        -11    1    3    3    0    0  0.67573501255E-01  0.52351955783E-03 -0.43351386781E-01  0.80287334004E-01  0.51100000000E-03 0. -1.
         11    1    3    3    0    0  0.56942575243E-01 -0.38927428491E-02 -0.14216346164E-01  0.58821560175E-01  0.51100000000E-03 0.  1.
</event>
<event>
 8    1  0.2025822E+004  0.1043930E+01  0.7957747E-01            NaN
         13   -1    0    0    0    0  0.00000000000E+00  0.00000000000E+00  0.74505805969E-08  0.10566000000E+00  0.10566000000E+00 0. -1.
     999900   -1    0    0    0    0 -0.00000000000E+00 -0.00000000000E+00 -0.74505805969E-08  0.93827000000E+00  0.93827000000E+00 0. -1.
     999902    2    1    2    0    0 -0.12585570681E-02  0.13296738350E-01  0.52190603010E-02  0.10295903415E+01  0.10294904785E+01 0.  0.
     999903    2    3    3    0    0  0.40710012307E-01 -0.10490455157E+00  0.67333467717E-01  0.13852855608E+00  0.44655290099E-01 0.  0.
         14    1    1    2    0    0  0.12585570681E-02 -0.13296738350E-01 -0.52190603010E-02  0.14339658541E-01  0.00000000000E+00 0.  1.
     999901    1    3    3    0    0 -0.41968569375E-01  0.11820128992E+00 -0.62114407416E-01  0.89106178538E+00  0.88000000000E+00 0. -1.
        -11    1    4    4    0    0  0.18571992371E-01 -0.76353387201E-01  0.65584868375E-01  0.10235426087E+00  0.51100000000E-03 0.  1.
         11    1    4    4    0    0  0.22138019936E-01 -0.28551164364E-01  0.17485993420E-02  0.36174295209E-01  0.51100000000E-03 0. -1.
</event>
<event>
 8    1  0.2025822E+004  0.1043930E+01  0.7957747E-01            NaN
         13   -1    0    0    0    0  0.00000000000E+00  0.00000000000E+00  0.74505805969E-08  0.10566000000E+00  0.10566000000E+00 0.  1.
     999900   -1    0    0    0    0 -0.00000000000E+00 -0.00000000000E+00 -0.74505805969E-08  0.93827000000E+00  0.93827000000E+00 0. -1.
     999902    2    1    2    0    0  0.64488918967E-02  0.31178739439E-02 -0.12438983253E-01  0.10295759884E+01  0.10294759241E+01 0.  0.
     999903    2    3    3    0    0  0.10783338138E+00  0.30698046588E-01 -0.75578613715E-01  0.14107945292E+00  0.40260116482E-01 0.  0.
         14    1    1    2    0    0 -0.64488918967E-02 -0.31178739439E-02  0.12438983253E-01  0.14354011599E-01  0.00000000000E+00 0.  1.
     999901    1    3    3    0    0 -0.10138448949E+00 -0.27580172644E-01  0.63139630462E-01  0.88849653548E+00  0.88000000000E+00 0.  1.
        -11    1    4    4    0    0  0.37298582639E-01  0.27749912425E-01 -0.42993298055E-01  0.63323982069E-01  0.51100000000E-03 0.  1.
         11    1    4    4    0    0  0.70534798745E-01  0.29481341632E-02 -0.32585315660E-01  0.77755470848E-01  0.51100000000E-03 0. -1.
</event>
<event>
 8    1  0.2690583E+004  0.1043930E+01  0.7957747E-01            NaN
         13   -1    0    0    0    0  0.00000000000E+00  0.00000000000E+00  0.74505805969E-08  0.10566000000E+00  0.10566000000E+00 0.  1.
     999900   -1    0    0    0    0 -0.00000000000E+00 -0.00000000000E+00 -0.74505805969E-08  0.93827000000E+00  0.93827000000E+00 0.  1.
     999902    2    1    2    0    0  0.13170074876E-01  0.87759318964E-02  0.43750947248E-02  0.10275102160E+01  0.10273790122E+01 0.  0.
     999903    2    3    3    0    0  0.76206820850E-01  0.29333636616E-01 -0.10255790251E+00  0.13856088310E+00  0.44867061159E-01 0.  0.
         14    1    1    2    0    0 -0.13170074876E-01 -0.87759318964E-02 -0.43750947248E-02  0.16419784004E-01  0.00000000000E+00 0.  1.
     999901    1    3    3    0    0 -0.63036745974E-01 -0.20557704720E-01  0.10693299723E+00  0.88894933290E+00  0.88000000000E+00 0. -1.
        -11    1    4    4    0    0  0.33740219912E-01 -0.88316616176E-02 -0.49937294102E-01  0.60913012976E-01  0.51100000000E-03 0.  1.
         11    1    4    4    0    0  0.42466600937E-01  0.38165298234E-01 -0.52620608403E-01  0.77647870120E-01  0.51100000000E-03 0. -1.
</event>
<event>
 8    1  0.2025822E+004  0.1043930E+01  0.7957747E-01            NaN
         13   -1    0    0    0    0  0.00000000000E+00  0.00000000000E+00  0.74505805969E-08  0.10566000000E+00  0.10566000000E+00 0.  1.
     999900   -1    0    0    0    0 -0.00000000000E+00 -0.00000000000E+00 -0.74505805969E-08  0.93827000000E+00  0.93827000000E+00 0. -1.
     999902    2    1    2    0    0 -0.11699051991E-01 -0.74476317986E-02 -0.39613513320E-02  0.10295068470E+01  0.10294058096E+01 0.  0.
     999903    2    3    3    0    0 -0.97975583223E-01 -0.56948382159E-01  0.70531599797E-01  0.14077563689E+00  0.44729634849E-01 0.  0.
         14    1    1    2    0    0  0.11699051991E-01  0.74476317986E-02  0.39613513320E-02  0.14423152959E-01  0.00000000000E+00 0.  1.
     999901    1    3    3    0    0  0.86276531232E-01  0.49500750360E-01 -0.74492951129E-01  0.88873121015E+00  0.88000000000E+00 0. -1.
        -11    1    4    4    0    0 -0.54383702043E-01 -0.54454346467E-01  0.35312359290E-01  0.84676364688E-01  0.51100000000E-03 0. -1.
         11    1    4    4    0    0 -0.43591881180E-01 -0.24940356912E-02  0.35219240507E-01  0.56099272203E-01  0.51100000000E-03 0.  1.
</event>
<event>
 8    1  0.2025822E+004  0.1043930E+01  0.7957747E-01            NaN
         13   -1    0    0    0    0  0.00000000000E+00  0.00000000000E+00  0.74505805969E-08  0.10566000000E+00  0.10566000000E+00 0.  1.
     999900   -1    0    0    0    0 -0.00000000000E+00 -0.00000000000E+00 -0.74505805969E-08  0.93827000000E+00  0.93827000000E+00 0.  1.
     999902    2    1    2    0    0 -0.10085648100E-02 -0.10707518461E-01 -0.83580847740E-02  0.10303092168E+01  0.10302191788E+01 0.  0.
     999903    2    3    3    0    0  0.45033978743E-01 -0.90284021631E-01 -0.88867198750E-01  0.14186447842E+00  0.45264637645E-01 0.  0.
         14    1    1    2    0    0  0.10085648100E-02  0.10707518461E-01  0.83580847740E-02  0.13620783225E-01  0.00000000000E+00 0. -1.
     999901    1    3    3    0    0 -0.46042543553E-01  0.79576503170E-01  0.80509113976E-01  0.88844473835E+00  0.88000000000E+00 0. -1.
        -11    1    4    4    0    0 -0.53644726528E-02 -0.17283092626E-01 -0.29007899592E-02  0.18334627374E-01  0.51100000000E-03 0. -1.
         11    1    4    4    0    0  0.50398451396E-01 -0.73000929005E-01 -0.85966408790E-01  0.12352985105E+00  0.51100000000E-03 0.  1.
</event>
<event>
 8    1  0.2025822E+004  0.1043930E+01  0.7957747E-01            NaN
         13   -1    0    0    0    0  0.00000000000E+00  0.00000000000E+00  0.74505805969E-08  0.10566000000E+00  0.10566000000E+00 0.  1.
     999900   -1    0    0    0    0 -0.00000000000E+00 -0.00000000000E+00 -0.74505805969E-08  0.93827000000E+00  0.93827000000E+00 0. -1.
     999902    2    1    2    0    0 -0.94687098008E-02  0.23616069982E-02  0.36343298401E-02  0.10335164508E+01  0.10334639869E+01 0.  0.
     999903    2    3    3    0    0  0.10159364313E+00  0.76839495503E-01 -0.40685581210E-01  0.14231161656E+00  0.48700136512E-01 0.  0.
         14    1    1    2    0    0  0.94687098008E-02 -0.23616069982E-02 -0.36343298401E-02  0.10413549169E-01  0.00000000000E+00 0. -1.
     999901    1    3    3    0    0 -0.11106235293E+00 -0.74477888505E-01  0.44319911050E-01  0.89120483427E+00  0.88000000000E+00 0.  1.
        -11    1    4    4    0    0  0.68515132946E-01  0.74098509710E-01 -0.19095003274E-01  0.10271218455E+00  0.51100000000E-03 0. -1.
         11    1    4    4    0    0  0.33078510181E-01  0.27409857935E-02 -0.21590577936E-01  0.39599432010E-01  0.51100000000E-03 0.  1.
</event>
<event>
 8    1  0.2025822E+004  0.1043930E+01  0.7957747E-01            NaN
         13   -1    0    0    0    0  0.00000000000E+00  0.00000000000E+00  0.74505805969E-08  0.10566000000E+00  0.10566000000E+00 0.  1.
     999900   -1    0    0    0    0 -0.00000000000E+00 -0.00000000000E+00 -0.74505805969E-08  0.93827000000E+00  0.93827000000E+00 0. -1.
     999902    2    1    2    0    0  0.22946361188E-02  0.13305183686E-01 -0.34886992020E-02  0.10299849546E+01  0.10298905488E+01 0.  0.
     999903    2    3    3    0    0 -0.75452813969E-01 -0.14802417871E-01  0.10701889868E+00  0.13922874083E+00  0.44937277262E-01 0.  0.
         14    1    1    2    0    0 -0.22946361188E-02 -0.13305183686E-01  0.34886992020E-02  0.13945045355E-01  0.00000000000E+00 0.  1.
     999901    1    3    3    0    0  0.77747450088E-01  0.28107601557E-01 -0.11050759788E+00  0.89075621382E+00  0.88000000000E+00 0. -1.
        -11    1    4    4    0    0 -0.20660375693E-01 -0.23043221884E-01  0.55602355710E-01  0.63637444009E-01  0.51100000000E-03 0. -1.
         11    1    4    4    0    0 -0.54792438276E-01  0.82408040129E-02  0.51416542971E-01  0.75591296821E-01  0.51100000000E-03 0.  1.
</event>
<event>
 8    1  0.2025822E+004  0.1043930E+01  0.7957747E-01            NaN
         13   -1    0    0    0    0  0.00000000000E+00  0.00000000000E+00  0.74505805969E-08  0.10566000000E+00  0.10566000000E+00 0. -1.
     999900   -1    0    0    0    0 -0.00000000000E+00 -0.00000000000E+00 -0.74505805969E-08  0.93827000000E+00  0.93827000000E+00 0. -1.
     999902    2    1    2    0    0 -0.12580383165E-01 -0.55184171779E-02  0.25687789222E-02  0.10299543929E+01  0.10298595700E+01 0.  0.
     999903    2    3    3    0    0 -0.46254572725E-01  0.12061279096E+00 -0.32646457724E-01  0.13962684328E+00  0.41748452943E-01 0.  0.
         14    1    1    2    0    0  0.12580383165E-01  0.55184171779E-02 -0.25687789222E-02  0.13975607102E-01  0.00000000000E+00 0.  1.
     999901    1    3    3    0    0  0.33674189561E-01 -0.12613120814E+00  0.35215236646E-01  0.89032754961E+00  0.88000000000E+00 0. -1.
        -11    1    4    4    0    0 -0.24519930137E-01  0.10607154848E+00 -0.20476747037E-01  0.11077887281E+00  0.51100000000E-03 0.  1.
         11    1    4    4    0    0 -0.21734642589E-01  0.14541242476E-01 -0.12169710687E-01  0.28847970473E-01  0.51100000000E-03 0. -1.
</event>
<event>
 8    1  0.2025822E+004  0.1043930E+01  0.7957747E-01            NaN
         13   -1    0    0    0    0  0.00000000000E+00  0.00000000000E+00  0.74505805969E-08  0.10566000000E+00  0.10566000000E+00 0. -1.
     999900   -1    0    0    0    0 -0.00000000000E+00 -0.00000000000E+00 -0.74505805969E-08  0.93827000000E+00  0.93827000000E+00 0. -1.
     999902    2    1    2    0    0 -0.17422187695E-02 -0.11887817026E-01  0.68573098131E-02  0.10300960484E+01  0.10300031508E+01 0.  0.
     999903    2    3    3    0    0 -0.11871929958E+00  0.45018961555E-01  0.37530053725E-01  0.14000457211E+00  0.45516989005E-01 0.  0.
         14    1    1    2    0    0  0.17422187695E-02  0.11887817026E-01 -0.68573098131E-02  0.13833951632E-01  0.00000000000E+00 0.  1.
     999901    1    3    3    0    0  0.11697708081E+00 -0.56906778581E-01 -0.30672743912E-01  0.89009147626E+00  0.88000000000E+00 0.  1.
        -11    1    4    4    0    0 -0.78322781595E-01  0.50345505793E-01  0.33919632654E-01  0.99095563325E-01  0.51100000000E-03 0. -1.
         11    1    4    4    0    0 -0.40396517983E-01 -0.53265442377E-02  0.36104210709E-02  0.40909008788E-01  0.51100000000E-03 0.  1.
</event>
<event>
 8    1  0.2025822E+004  0.1043930E+01  0.7957747E-01            NaN
         13   -1    0    0    0    0  0.00000000000E+00  0.00000000000E+00  0.74505805969E-08  0.10566000000E+00  0.10566000000E+00 0. -1.
     999900   -1    0    0    0    0 -0.00000000000E+00 -0.00000000000E+00 -0.74505805969E-08  0.93827000000E+00  0.93827000000E+00 0. -1.
     999902    2    1    2    0    0 -0.34034751351E-02  0.42639412194E-02  0.14204410577E-01  0.10287138863E+01  0.10286013463E+01 0.  0.
     999903    2    3    3    0    0 -0.44208132596E-01  0.90014331202E-01  0.87752206758E-01  0.14055431288E+00  0.44700405690E-01 0.  0.
         14    1    1    2    0    0  0.34034751351E-02 -0.42639412194E-02 -0.14204410577E-01  0.15216113746E-01  0.00000000000E+00 0.  1.
     999901    1    3    3    0    0  0.40804657461E-01 -0.85750389983E-01 -0.73547796181E-01  0.88815957337E+00  0.88000000000E+00 0. -1.
        -11    1    4    4    0    0 -0.22824532347E-01  0.27175541330E-01  0.57578171921E-01  0.67638571291E-01  0.51100000000E-03 0.  1.
         11    1    4    4    0    0 -0.21383600249E-01  0.62838789872E-01  0.30174034836E-01  0.72915741589E-01  0.51100000000E-03 0. -1.
</event>
<event>
 8    1  0.2025822E+004  0.1043930E+01  0.7957747E-01            NaN
         13   -1    0    0    0    0  0.00000000000E+00  0.00000000000E+00  0.74505805969E-08  0.10566000000E+00  0.10566000000E+00 0.  1.
     999900   -1    0    0    0    0 -0.00000000000E+00 -0.00000000000E+00 -0.74505805969E-08  0.93827000000E+00  0.93827000000E+00 0. -1.
     999902    2    1    2    0    0 -0.14553573296E-01  0.37253841023E-02  0.98498937475E-03  0.10288749282E+01  0.10287647752E+01 0.  0.
     999903    2    3    3    0    0 -0.28816398085E-01  0.49456185697E-01  0.11943537406E+00  0.13964760744E+00  0.44275801327E-01 0.  0.
         14    1    1    2    0    0  0.14553573296E-01 -0.37253841023E-02 -0.98498937475E-03  0.15055071786E-01  0.00000000000E+00 0.  1.
     999901    1    3    3    0    0  0.14262824789E-01 -0.45730801594E-01 -0.11845038469E+00  0.88922732078E+00  0.88000000000E+00 0. -1.
        -11    1    4    4    0    0 -0.77699294582E-02  0.50673038416E-01  0.83617105639E-01  0.98082669736E-01  0.51100000000E-03 0.  1.
         11    1    4    4    0    0 -0.21046468627E-01 -0.12168527195E-02  0.35818268423E-01  0.41564937700E-01  0.51100000000E-03 0. -1.
</event>
<event>
 8    1  0.2025822E+004  0.1043930E+01  0.7957747E-01            NaN
         13   -1    0    0    0    0  0.00000000000E+00  0.00000000000E+00  0.74505805969E-08  0.10566000000E+00  0.10566000000E+00 0. -1.
     999900   -1    0    0    0    0 -0.00000000000E+00 -0.00000000000E+00 -0.74505805969E-08  0.93827000000E+00  0.93827000000E+00 0.  1.
     999902    2    1    2    0    0  0.17450169794E-01  0.16625205323E-02  0.64216956420E-02  0.10252615621E+01  0.10250915862E+01 0.  0.
     999903    2    3    3    0    0  0.26495169650E-01  0.31122384444E-01 -0.12122547606E+00  0.13551806191E+00  0.44709419917E-01 0.  0.
         14    1    1    2    0    0 -0.17450169794E-01 -0.16625205323E-02 -0.64216956420E-02  0.18668437945E-01  0.00000000000E+00 0.  1.
     999901    1    3    3    0    0 -0.90449998553E-02 -0.29459863912E-01  0.12764717170E+00  0.88974350014E+00  0.88000000000E+00 0. -1.
        -11    1    4    4    0    0  0.21958155898E-01  0.37871556797E-01 -0.62958544699E-01  0.76684124147E-01  0.51100000000E-03 0.  1.
         11    1    4    4    0    0  0.45370137514E-02 -0.67491723528E-02 -0.58266931364E-01  0.58833937764E-01  0.51100000000E-03 0. -1.
</event>
<event>
 8    1  0.2025822E+004  0.1043930E+01  0.7957747E-01            NaN
         13   -1    0    0    0    0  0.00000000000E+00  0.00000000000E+00  0.74505805969E-08  0.10566000000E+00  0.10566000000E+00 0. -1.
     999900   -1    0    0    0    0 -0.00000000000E+00 -0.00000000000E+00 -0.74505805969E-08  0.93827000000E+00  0.93827000000E+00 0. -1.
     999902    2    1    2    0    0  0.13480257936E-02  0.60929363927E-02  0.12429810652E-01  0.10300216845E+01  0.10299277787E+01 0.  0.
     999903    2    3    3    0    0 -0.10941487501E+00  0.61192311448E-01 -0.42316236863E-01  0.13968383230E+00  0.44774939971E-01 0.  0.
         14    1    1    2    0    0 -0.13480257936E-02 -0.60929363927E-02 -0.12429810652E-01  0.13908315508E-01  0.00000000000E+00 0.  1.
     999901    1    3    3    0    0  0.11076290081E+00 -0.55099375056E-01  0.54746047515E-01  0.89033785219E+00  0.88000000000E+00 0.  1.
        -11    1    4    4    0    0 -0.24698416848E-01  0.37810170022E-01 -0.16506347613E-01  0.48086810920E-01  0.51100000000E-03 0. -1.
         11    1    4    4    0    0 -0.84716458165E-01  0.23382141426E-01 -0.25809889249E-01  0.91597021381E-01  0.51100000000E-03 0.  1.
</event>
<event>
 8    1  0.2025822E+004  0.1043930E+01  0.7957747E-01            NaN
         13   -1    0    0    0    0  0.00000000000E+00  0.00000000000E+00  0.74505805969E-08  0.10566000000E+00  0.10566000000E+00 0. -1.
     999900   -1    0    0    0    0 -0.00000000000E+00 -0.00000000000E+00 -0.74505805969E-08  0.93827000000E+00  0.93827000000E+00 0.  1.
     999902    2    1    2    0    0 -0.17940469141E-02  0.12280712733E-02  0.13726025103E-01  0.10300328590E+01  0.10299391050E+01 0.  0.
     999903    2    3    3    0    0 -0.12369571387E+00  0.46899078225E-01 -0.69687863285E-02  0.14021594944E+00  0.45954274307E-01 0.  0.
         14    1    1    2    0    0  0.17940469141E-02 -0.12280712733E-02 -0.13726025103E-01  0.13897141020E-01  0.00000000000E+00 0.  1.
     999901    1    3    3    0    0  0.12190166695E+00 -0.45671006952E-01  0.20694811432E-01  0.88981690954E+00  0.88000000000E+00 0.  1.
        -11    1    4    4    0    0 -0.26595503375E-01  0.27893023741E-01  0.10018238392E-01  0.39824211162E-01  0.51100000000E-03 0.  1.
         11    1    4    4    0    0 -0.97100210493E-01  0.19006054484E-01 -0.16987024721E-01  0.10039173828E+00  0.51100000000E-03 0. -1.
</event>
<event>
 8    1  0.2025822E+004  0.1043930E+01  0.7957747E-01            NaN
         13   -1    0    0    0    0  0.00000000000E+00  0.00000000000E+00  0.74505805969E-08  0.10566000000E+00  0.10566000000E+00 0. -1.
     999900   -1    0    0    0    0 -0.00000000000E+00 -0.00000000000E+00 -0.74505805969E-08  0.93827000000E+00  0.93827000000E+00 0. -1.
     999902    2    1    2    0    0 -0.39489724139E-02  0.35733550224E-02 -0.12367437523E-01  0.10304646088E+01  0.10303766269E+01 0.  0.
     999903    2    3    3    0    0  0.92692191754E-01 -0.54424859401E-01 -0.79316780445E-01  0.14075368833E+00  0.44345703125E-01 0.  0.
         14    1    1    2    0    0  0.39489724139E-02 -0.35733550224E-02  0.12367437523E-01  0.13465391198E-01  0.00000000000E+00 0. -1.
     999901    1    3    3    0    0 -0.96641164167E-01  0.57998214423E-01  0.66949342923E-01  0.88971092047E+00  0.88000000000E+00 0.  1.
        -11    1    4    4    0    0  0.66659797497E-01 -0.28308248000E-01 -0.73914001348E-01  0.10348152600E+00  0.51100000000E-03 0. -1.
         11    1    4    4    0    0  0.26032394256E-01 -0.26116611401E-01 -0.54027790970E-02  0.37272162330E-01  0.51100000000E-03 0.  1.
</event>
<event>
 8    1  0.2025822E+004  0.1043930E+01  0.7957747E-01            NaN
         13   -1    0    0    0    0  0.00000000000E+00  0.00000000000E+00  0.74505805969E-08  0.10566000000E+00  0.10566000000E+00 0. -1.
     999900   -1    0    0    0    0 -0.00000000000E+00 -0.00000000000E+00 -0.74505805969E-08  0.93827000000E+00  0.93827000000E+00 0. -1.
     999902    2    1    2    0    0  0.35158478813E-02  0.78679329106E-02  0.12386593064E-01  0.10288404923E+01  0.10287298311E+01 0.  0.
     999903    2    3    3    0    0  0.11657882515E+00 -0.53976442385E-01  0.29189225895E-01  0.13929550072E+00  0.45245406473E-01 0.  0.
         14    1    1    2    0    0 -0.35158478813E-02 -0.78679329106E-02 -0.12386593064E-01  0.15089507691E-01  0.00000000000E+00 0.  1.
     999901    1    3    3    0    0 -0.11306297727E+00  0.61844375296E-01 -0.16802632831E-01  0.88954499159E+00  0.88000000000E+00 0.  1.
        -11    1    4    4    0    0  0.18080211657E-01 -0.27534138819E-01  0.15450617304E-01  0.36386887064E-01  0.51100000000E-03 0.  1.
         11    1    4    4    0    0  0.98498613495E-01 -0.26442303566E-01  0.13738608591E-01  0.10290861366E+00  0.51100000000E-03 0. -1.
</event>
<event>
 8    1  0.2025822E+004  0.1043930E+01  0.7957747E-01            NaN
         13   -1    0    0    0    0  0.00000000000E+00  0.00000000000E+00  0.74505805969E-08  0.10566000000E+00  0.10566000000E+00 0. -1.
     999900   -1    0    0    0    0 -0.00000000000E+00 -0.00000000000E+00 -0.74505805969E-08  0.93827000000E+00  0.93827000000E+00 0.  1.
     999902    2    1    2    0    0  0.56102647141E-03 -0.12609374243E-01  0.52521810885E-02  0.10302589914E+01  0.10301682838E+01 0.  0.
     999903    2    3    3    0    0  0.61662180940E-01 -0.78072192721E-01 -0.87928243133E-01  0.14082022279E+00  0.46919797219E-01 0.  0.
         14    1    1    2    0    0 -0.56102647141E-03  0.12609374243E-01 -0.52521810885E-02  0.13671008584E-01  0.00000000000E+00 0.  1.
     999901    1    3    3    0    0 -0.61101154469E-01  0.65462818478E-01  0.93180424221E-01  0.88943876863E+00  0.88000000000E+00 0. -1.
        -11    1    4    4    0    0  0.14242816886E-01 -0.36524599060E-02 -0.34884413522E-01  0.37860028051E-01  0.51100000000E-03 0. -1.
         11    1    4    4    0    0  0.47419364054E-01 -0.74419732815E-01 -0.53043829610E-01  0.10296019474E+00  0.51100000000E-03 0.  1.
</event>
<event>
 8    1  0.2025822E+004  0.1043930E+01  0.7957747E-01            NaN
         13   -1    0    0    0    0  0.00000000000E+00  0.00000000000E+00  0.74505805969E-08  0.10566000000E+00  0.10566000000E+00 0. -1.
     999900   -1    0    0    0    0 -0.00000000000E+00 -0.00000000000E+00 -0.74505805969E-08  0.93827000000E+00  0.93827000000E+00 0.  1.
     999902    2    1    2    0    0 -0.46257244601E-03 -0.10075818435E-01  0.93513367387E-02  0.10301755975E+01  0.10300837723E+01 0.  0.
     999903    2    3    3    0    0 -0.75577637983E-01 -0.72127699292E-01  0.83605024895E-01  0.14169019004E+00  0.46603920423E-01 0.  0.
         14    1    1    2    0    0  0.46257244601E-03  0.10075818435E-01 -0.93513367387E-02  0.13754402539E-01  0.00000000000E+00 0.  1.
     999901    1    3    3    0    0  0.75115065537E-01  0.62051880857E-01 -0.74253688156E-01  0.88848540742E+00  0.88000000000E+00 0.  1.
        -11    1    4    4    0    0 -0.68280446468E-02 -0.26909676986E-01  0.39626373928E-01  0.48386604974E-01  0.51100000000E-03 0.  1.
         11    1    4    4    0    0 -0.68749593336E-01 -0.45218022306E-01  0.43978650967E-01  0.93303585070E-01  0.51100000000E-03 0. -1.
</event>
<event>
 8    1  0.2025822E+004  0.1043930E+01  0.7957747E-01            NaN
         13   -1    0    0    0    0  0.00000000000E+00  0.00000000000E+00  0.74505805969E-08  0.10566000000E+00  0.10566000000E+00 0.  1.
     999900   -1    0    0    0    0 -0.00000000000E+00 -0.00000000000E+00 -0.74505805969E-08  0.93827000000E+00  0.93827000000E+00 0.  1.
     999902    2    1    2    0    0  0.10199198620E-01 -0.91405114961E-02  0.63720759654E-03  0.10302194699E+01  0.10301282335E+01 0.  0.
     999903    2    3    3    0    0  0.13187311832E+00 -0.34974434958E-02 -0.33329804077E-01  0.14118058161E+00  0.37660713446E-01 0.  0.
         14    1    1    2    0    0 -0.10199198620E-01  0.91405114961E-02 -0.63720759654E-03  0.13710530129E-01  0.00000000000E+00 0. -1.
     999901    1    3    3    0    0 -0.12167391970E+00 -0.56430680003E-02  0.33967011674E-01  0.88903888826E+00  0.88000000000E+00 0. -1.
        -11    1    4    4    0    0  0.10828348356E+00  0.58764780290E-02 -0.14154226276E-01  0.10936383794E+00  0.51100000000E-03 0. -1.
         11    1    4    4    0    0  0.23589634761E-01 -0.93739215248E-02 -0.19175577802E-01  0.31816743673E-01  0.51100000000E-03 0.  1.
</event>
<event>
 8    1  0.2025822E+004  0.1043930E+01  0.7957747E-01            NaN
         13   -1    0    0    0    0  0.00000000000E+00  0.00000000000E+00  0.74505805969E-08  0.10566000000E+00  0.10566000000E+00 0.  1.
     999900   -1    0    0    0    0 -0.00000000000E+00 -0.00000000000E+00 -0.74505805969E-08  0.93827000000E+00  0.93827000000E+00 0.  1.
     999902    2    1    2    0    0  0.12381015140E-01  0.53316372794E-02 -0.41746804372E-02  0.10298181664E+01  0.10297214730E+01 0.  0.
     999903    2    3    3    0    0 -0.31988356810E-01  0.68934217157E-01 -0.10393289662E+00  0.14079306490E+00  0.56968928862E-01 0.  0.
         14    1    1    2    0    0 -0.12381015140E-01 -0.53316372794E-02  0.41746804372E-02  0.14111833641E-01  0.00000000000E+00 0.  1.
     999901    1    3    3    0    0  0.44369371949E-01 -0.63602579878E-01  0.99758216187E-01  0.88902510146E+00  0.88000000000E+00 0. -1.
        -11    1    4    4    0    0 -0.17894068615E-01  0.76490686366E-01 -0.81072121028E-01  0.11288920551E+00  0.51100000000E-03 0. -1.
         11    1    4    4    0    0 -0.14094288194E-01 -0.75564692092E-02 -0.22860775596E-01  0.27903859383E-01  0.51100000000E-03 0.  1.
</event>
<event>
 8    1  0.2025822E+004  0.1043930E+01  0.7957747E-01            NaN
         13   -1    0    0    0    0  0.00000000000E+00  0.00000000000E+00  0.74505805969E-08  0.10566000000E+00  0.10566000000E+00 0. -1.
     999900   -1    0    0    0    0 -0.00000000000E+00 -0.00000000000E+00 -0.74505805969E-08  0.93827000000E+00  0.93827000000E+00 0. -1.
     999902    2    1    2    0    0 -0.75298903555E-02  0.88200689221E-02 -0.70610563872E-02  0.10303523941E+01  0.10302629299E+01 0.  0.
     999903    2    3    3    0    0 -0.30820934708E-01  0.90692730597E-01 -0.94678967613E-01  0.14191415548E+00  0.44726046314E-01 0.  0.
         14    1    1    2    0    0  0.75298903555E-02 -0.88200689221E-02  0.70610563872E-02  0.13577605896E-01  0.00000000000E+00 0.  1.
     999901    1    3    3    0    0  0.23291044353E-01 -0.81872661675E-01  0.87617911225E-01  0.88843823862E+00  0.88000000000E+00 0.  1.
        -11    1    4    4    0    0  0.85857699475E-02  0.11767945601E-01 -0.27158560901E-01  0.30822857435E-01  0.51100000000E-03 0. -1.
         11    1    4    4    0    0 -0.39406704656E-01  0.78924784996E-01 -0.67520406711E-01  0.11109129805E+00  0.51100000000E-03 0.  1.
</event>
<event>
 8    1  0.2025822E+004  0.1043930E+01  0.7957747E-01            NaN
         13   -1    0    0    0    0  0.00000000000E+00  0.00000000000E+00  0.74505805969E-08  0.10566000000E+00  0.10566000000E+00 0.  1.
     999900   -1    0    0    0    0 -0.00000000000E+00 -0.00000000000E+00 -0.74505805969E-08  0.93827000000E+00  0.93827000000E+00 0.  1.
     999902    2    1    2    0    0  0.22328049041E-02  0.29215008177E-02  0.14026380167E-01  0.10294296578E+01  0.10293275282E+01 0.  0.
     999903    2    3    3    0    0  0.37547966024E-01  0.97992132938E-01  0.81552346236E-01  0.14103484586E+00  0.47198884525E-01 0.  0.
         14    1    1    2    0    0 -0.22328049041E-02 -0.29215008177E-02 -0.14026380167E-01  0.14500342249E-01  0.00000000000E+00 0. -1.
     999901    1    3    3    0    0 -0.35315161120E-01 -0.95070632120E-01 -0.67525966070E-01  0.88839481189E+00  0.88000000000E+00 0.  1.
        -11    1    4    4    0    0  0.35319451356E-01  0.92812331086E-01  0.87834755943E-01  0.13257751664E+00  0.51100000000E-03 0.  1.
         11    1    4    4    0    0  0.22285146680E-02  0.51798018518E-02 -0.62824097070E-02  0.84573292224E-02  0.51100000000E-03 0. -1.
</event>
<event>
 8    1  0.2025822E+004  0.1043930E+01  0.7957747E-01            NaN
         13   -1    0    0    0    0  0.00000000000E+00  0.00000000000E+00  0.74505805969E-08  0.10566000000E+00  0.10566000000E+00 0. -1.
     999900   -1    0    0    0    0 -0.00000000000E+00 -0.00000000000E+00 -0.74505805969E-08  0.93827000000E+00  0.93827000000E+00 0. -1.
     999902    2    1    2    0    0 -0.90302987058E-02 -0.78135398464E-02 -0.64371218228E-02  0.10303640781E+01  0.10302747688E+01 0.  0.
     999903    2    3    3    0    0 -0.20571935245E-01 -0.48322746138E-01  0.11793611512E+00  0.14062090884E+00  0.55740653392E-01 0.  0.
         14    1    1    2    0    0  0.90302987058E-02  0.78135398464E-02  0.64371218228E-02  0.13565921900E-01  0.00000000000E+00 0. -1.
     999901    1    3    3    0    0  0.11541636539E-01  0.40509206292E-01 -0.12437323694E+00  0.88974316926E+00  0.88000000000E+00 0. -1.
        -11    1    4    4    0    0  0.31691123796E-02 -0.48627140397E-01  0.98639166671E-01  0.11002085429E+00  0.51100000000E-03 0. -1.
         11    1    4    4    0    0 -0.23741047625E-01  0.30439425918E-03  0.19296948449E-01  0.30600054553E-01  0.51100000000E-03 0.  1.
</event>
<event>
 8    1  0.2025822E+004  0.1043930E+01  0.7957747E-01            NaN
         13   -1    0    0    0    0  0.00000000000E+00  0.00000000000E+00  0.74505805969E-08  0.10566000000E+00  0.10566000000E+00 0. -1.
     999900   -1    0    0    0    0 -0.00000000000E+00 -0.00000000000E+00 -0.74505805969E-08  0.93827000000E+00  0.93827000000E+00 0. -1.
     999902    2    1    2    0    0  0.12074104716E-01  0.64504697511E-02 -0.21157177214E-02  0.10300783277E+01  0.10299851903E+01 0.  0.
     999903    2    3    3    0    0 -0.82882472209E-01  0.98649048963E-01 -0.29742866078E-01  0.13975221392E+00  0.45220616449E-01 0.  0.
         14    1    1    2    0    0 -0.12074104716E-01 -0.64504697511E-02  0.21157177214E-02  0.13851672325E-01  0.00000000000E+00 0. -1.
     999901    1    3    3    0    0  0.94956576925E-01 -0.92198579212E-01  0.27627148357E-01  0.89032611376E+00  0.88000000000E+00 0.  1.
        -11    1    4    4    0    0 -0.21155378845E-01  0.66646282143E-02 -0.17584180848E-01  0.28309571887E-01  0.51100000000E-03 0. -1.
         11    1    4    4    0    0 -0.61727093364E-01  0.91984420749E-01 -0.12158685230E-01  0.11144264203E+00  0.51100000000E-03 0.  1.
</event>
<event>
 8    1  0.2025822E+004  0.1043930E+01  0.7957747E-01            NaN
         13   -1    0    0    0    0  0.00000000000E+00  0.00000000000E+00  0.74505805969E-08  0.10566000000E+00  0.10566000000E+00 0.  1.
     999900   -1    0    0    0    0 -0.00000000000E+00 -0.00000000000E+00 -0.74505805969E-08  0.93827000000E+00  0.93827000000E+00 0.  1.
     999902    2    1    2    0    0 -0.79960263924E-02  0.14848929705E-02 -0.10961048335E-01  0.10302813398E+01  0.10301909304E+01 0.  0.
     999903    2    3    3    0    0  0.10346661208E+00  0.27882965587E-01 -0.78659472861E-01  0.14027917422E+00  0.44812213333E-01 0.  0.
         14    1    1    2    0    0  0.79960263924E-02 -0.14848929705E-02  0.10961048335E-01  0.13648660220E-01  0.00000000000E+00 0.  1.
     999901    1    3    3    0    0 -0.11146263848E+00 -0.26398072616E-01  0.67698424526E-01  0.89000216556E+00  0.88000000000E+00 0. -1.
        -11    1    4    4    0    0  0.40596392848E-01 -0.11191914750E-01 -0.29454200402E-01  0.51391994614E-01  0.51100000000E-03 0.  1.
         11    1    4    4    0    0  0.62870219235E-01  0.39074880337E-01 -0.49205272459E-01  0.88887179609E-01  0.51100000000E-03 0. -1.
</event>
<event>
 8    1  0.2025822E+004  0.1043930E+01  0.7957747E-01            NaN
         13   -1    0    0    0    0  0.00000000000E+00  0.00000000000E+00  0.74505805969E-08  0.10566000000E+00  0.10566000000E+00 0. -1.
     999900   -1    0    0    0    0 -0.00000000000E+00 -0.00000000000E+00 -0.74505805969E-08  0.93827000000E+00  0.93827000000E+00 0.  1.
     999902    2    1    2    0    0  0.13632945661E-01  0.27484413521E-02  0.17681871455E-02  0.10299108123E+01  0.10298153930E+01 0.  0.
     999903    2    3    3    0    0 -0.79340401747E-01 -0.40050556549E-01  0.96859187459E-01  0.13888999557E+00  0.44830594968E-01 0.  0.
         14    1    1    2    0    0 -0.13632945661E-01 -0.27484413521E-02 -0.17681871455E-02  0.14019187674E-01  0.00000000000E+00 0.  1.
     999901    1    3    3    0    0  0.92973347409E-01  0.42798997901E-01 -0.95091000314E-01  0.89102081675E+00  0.88000000000E+00 0.  1.
        -11    1    4    4    0    0 -0.10166261448E-01 -0.11499390102E-01 -0.13506223920E-02  0.15416684027E-01  0.51100000000E-03 0.  1.
         11    1    4    4    0    0 -0.69174140299E-01 -0.28551166447E-01  0.98209809851E-01  0.12347331154E+00  0.51100000000E-03 0. -1.
</event>
<event>
 8    1  0.2025822E+004  0.1043930E+01  0.7957747E-01            NaN
         13   -1    0    0    0    0  0.00000000000E+00  0.00000000000E+00  0.74505805969E-08  0.10566000000E+00  0.10566000000E+00 0.  1.
     999900   -1    0    0    0    0 -0.00000000000E+00 -0.00000000000E+00 -0.74505805969E-08  0.93827000000E+00  0.93827000000E+00 0. -1.
     999902    2    1    2    0    0 -0.88554507618E-02 -0.71239186588E-02 -0.10602148884E-01  0.10283873237E+01  0.10282698638E+01 0.  0.
     999903    2    3    3    0    0  0.45965031444E-01  0.40624547950E-01 -0.11593435677E+00  0.13912916359E+00  0.46400550296E-01 0.  0.
         14    1    1    2    0    0  0.88554507618E-02  0.71239186588E-02  0.10602148884E-01  0.15542676288E-01  0.00000000000E+00 0. -1.
     999901    1    3    3    0    0 -0.54820482206E-01 -0.47748466609E-01  0.10533220789E+00  0.88925816013E+00  0.88000000000E+00 0.  1.
        -11    1    4    4    0    0  0.20792666967E-01  0.19087403637E-01 -0.96878360826E-01  0.10090759087E+00  0.51100000000E-03 0. -1.
         11    1    4    4    0    0  0.25172364477E-01  0.21537144313E-01 -0.19055995947E-01  0.38221572719E-01  0.51100000000E-03 0.  1.
</event>
<event>
 8    1  0.2025822E+004  0.1043930E+01  0.7957747E-01            NaN
         13   -1    0    0    0    0  0.00000000000E+00  0.00000000000E+00  0.74505805969E-08  0.10566000000E+00  0.10566000000E+00 0. -1.
     999900   -1    0    0    0    0 -0.00000000000E+00 -0.00000000000E+00 -0.74505805969E-08  0.93827000000E+00  0.93827000000E+00 0. -1.
     999902    2    1    2    0    0 -0.16221061008E-01 -0.75787917261E-02  0.68301407329E-02  0.10247672307E+01  0.10245880467E+01 0.  0.
     999903    2    3    3    0    0  0.87893218446E-01  0.89398533064E-01 -0.48254836598E-02  0.13326275047E+00  0.44926159512E-01 0.  0.
         14    1    1    2    0    0  0.16221061008E-01  0.75787917261E-02 -0.68301407329E-02  0.19162769285E-01  0.00000000000E+00 0. -1.
     999901    1    3    3    0    0 -0.10411427945E+00 -0.96977324790E-01  0.11655624393E-01  0.89150448024E+00  0.88000000000E+00 0.  1.
        -11    1    4    4    0    0  0.17420528494E-01  0.48263834269E-01 -0.59197883357E-02  0.51654404714E-01  0.51100000000E-03 0. -1.
         11    1    4    4    0    0  0.70472689952E-01  0.41134698795E-01  0.10943046759E-02  0.81608345760E-01  0.51100000000E-03 0.  1.
</event>
<event>
 8    1  0.2025822E+004  0.1043930E+01  0.7957747E-01            NaN
         13   -1    0    0    0    0  0.00000000000E+00  0.00000000000E+00  0.74505805969E-08  0.10566000000E+00  0.10566000000E+00 0.  1.
     999900   -1    0    0    0    0 -0.00000000000E+00 -0.00000000000E+00 -0.74505805969E-08  0.93827000000E+00  0.93827000000E+00 0. -1.
     999902    2    1    2    0    0  0.80004228944E-02 -0.30400470991E-02 -0.84313366090E-02  0.10319160044E+01  0.10318460661E+01 0.  0.
     999903    2    3    3    0    0 -0.79415275888E-01 -0.10177479642E+00 -0.37212285908E-01  0.14162481713E+00  0.44810036529E-01 0.  0.
         14    1    1    2    0    0 -0.80004228944E-02  0.30400470991E-02  0.84313366090E-02  0.12013995583E-01  0.00000000000E+00 0. -1.
     999901    1    3    3    0    0  0.87415698783E-01  0.98734749322E-01  0.28780949299E-01  0.89029118729E+00  0.88000000000E+00 0. -1.
        -11    1    4    4    0    0 -0.53834363644E-01 -0.91131560191E-01 -0.16717403871E-01  0.10715798003E+00  0.51100000000E-03 0. -1.
         11    1    4    4    0    0 -0.25580912245E-01 -0.10643236230E-01 -0.20494882037E-01  0.34466837096E-01  0.51100000000E-03 0.  1.
</event>
<event>
 8    1  0.2025822E+004  0.1043930E+01  0.7957747E-01            NaN
         13   -1    0    0    0    0  0.00000000000E+00  0.00000000000E+00  0.74505805969E-08  0.10566000000E+00  0.10566000000E+00 0. -1.
     999900   -1    0    0    0    0 -0.00000000000E+00 -0.00000000000E+00 -0.74505805969E-08  0.93827000000E+00  0.93827000000E+00 0. -1.
     999902    2    1    2    0    0  0.29287254314E-02  0.16897268868E-02 -0.13465329660E-01  0.10300466390E+01  0.10299530721E+01 0.  0.
     999903    2    3    3    0    0  0.41343867223E-01 -0.12518663583E+00  0.69821396106E-02  0.13988292736E+00  0.46232823257E-01 0.  0.
         14    1    1    2    0    0 -0.29287254314E-02 -0.16897268868E-02  0.13465329660E-01  0.13883360993E-01  0.00000000000E+00 0. -1.
     999901    1    3    3    0    0 -0.38415141792E-01  0.12687636271E+00 -0.20447469271E-01  0.89016371165E+00  0.88000000000E+00 0. -1.
        -11    1    4    4    0    0  0.37496757828E-02 -0.23841402976E-01  0.19545638791E-01  0.31060677409E-01  0.51100000000E-03 0.  1.
         11    1    4    4    0    0  0.37594191441E-01 -0.10134523285E+00 -0.12563499180E-01  0.10882224995E+00  0.51100000000E-03 0. -1.
</event>
<event>
 8    1  0.2025822E+004  0.1043930E+01  0.7957747E-01            NaN
         13   -1    0    0    0    0  0.00000000000E+00  0.00000000000E+00  0.74505805969E-08  0.10566000000E+00  0.10566000000E+00 0. -1.
     999900   -1    0    0    0    0 -0.00000000000E+00 -0.00000000000E+00 -0.74505805969E-08  0.93827000000E+00  0.93827000000E+00 0.  1.
     999902    2    1    2    0    0 -0.50358027379E-02  0.32646090967E-02  0.13071042457E-01  0.10295470541E+01  0.10294465831E+01 0.  0.
     999903    2    3    3    0    0 -0.56140879894E-01 -0.82398793534E-01  0.85534739650E-01  0.14095213240E+00  0.51087692948E-01 0.  0.
         14    1    1    2    0    0  0.50358027379E-02 -0.32646090967E-02 -0.13071042457E-01  0.14382945897E-01  0.00000000000E+00 0.  1.
     999901    1    3    3    0    0  0.51105077156E-01  0.85663402631E-01 -0.72463697193E-01  0.88859492170E+00  0.88000000000E+00 0.  1.
        -11    1    4    4    0    0 -0.30587417163E-01 -0.78706363558E-01  0.75414054205E-01  0.11321582242E+00  0.51100000000E-03 0. -1.
         11    1    4    4    0    0 -0.25553462731E-01 -0.36924299757E-02  0.10120685445E-01  0.27736309984E-01  0.51100000000E-03 0.  1.
</event>
<event>
 8    1  0.2025822E+004  0.1043930E+01  0.7957747E-01            NaN
         13   -1    0    0    0    0  0.00000000000E+00  0.00000000000E+00  0.74505805969E-08  0.10566000000E+00  0.10566000000E+00 0.  1.
     999900   -1    0    0    0    0 -0.00000000000E+00 -0.00000000000E+00 -0.74505805969E-08  0.93827000000E+00  0.93827000000E+00 0.  1.
     999902    2    1    2    0    0  0.20964837378E-02  0.13214005168E-01  0.18490045052E-02  0.10304235573E+01  0.10303350346E+01 0.  0.
     999903    2    3    3    0    0 -0.60673659374E-01  0.30425830817E-01 -0.11438840519E+00  0.14039688735E+00  0.44939454968E-01 0.  0.
         14    1    1    2    0    0 -0.20964837378E-02 -0.13214005168E-01 -0.18490045052E-02  0.13506442697E-01  0.00000000000E+00 0.  1.
     999901    1    3    3    0    0  0.62770143112E-01 -0.17211825649E-01  0.11623740970E+00  0.89002666995E+00  0.88000000000E+00 0. -1.
        -11    1    4    4    0    0 -0.42877668792E-01 -0.33321667413E-02 -0.65840050892E-01  0.78643316554E-01  0.51100000000E-03 0.  1.
         11    1    4    4    0    0 -0.17795990583E-01  0.33757997558E-01 -0.48548354303E-01  0.61753570799E-01  0.51100000000E-03 0. -1.
</event>
<event>
 8    1  0.2025822E+004  0.1043930E+01  0.7957747E-01            NaN
         13   -1    0    0    0    0  0.00000000000E+00  0.00000000000E+00  0.74505805969E-08  0.10566000000E+00  0.10566000000E+00 0.  1.
     999900   -1    0    0    0    0 -0.00000000000E+00 -0.00000000000E+00 -0.74505805969E-08  0.93827000000E+00  0.93827000000E+00 0. -1.
     999902    2    1    2    0    0  0.13164036315E-01  0.46183738097E-03 -0.69623649866E-02  0.10290310178E+01  0.10289231535E+01 0.  0.
     999903    2    3    3    0    0 -0.56758773977E-01  0.11624696840E+00  0.18972861295E-01  0.13831892514E+00  0.45135789565E-01 0.  0.
         14    1    1    2    0    0 -0.13164036315E-01 -0.46183738097E-03  0.69623649866E-02  0.14898982249E-01  0.00000000000E+00 0.  1.
     999901    1    3    3    0    0  0.69922810292E-01 -0.11578513102E+00 -0.25935226282E-01  0.89071209261E+00  0.88000000000E+00 0.  1.
        -11    1    4    4    0    0 -0.45523428356E-01  0.93318214109E-01  0.33294401796E-01  0.10903875424E+00  0.51100000000E-03 0. -1.
         11    1    4    4    0    0 -0.11235345621E-01  0.22928754292E-01 -0.14321540501E-01  0.29280170900E-01  0.51100000000E-03 0.  1.
</event>
<event>
 8    1  0.2067825E+004  0.1043930E+01  0.7957747E-01            NaN
         13   -1    0    0    0    0  0.00000000000E+00  0.00000000000E+00  0.74505805969E-08  0.10566000000E+00  0.10566000000E+00 0. -1.
     999900   -1    0    0    0    0 -0.00000000000E+00 -0.00000000000E+00 -0.74505805969E-08  0.93827000000E+00  0.93827000000E+00 0.  1.
     999902    2    1    2    0    0 -0.73938756343E-02 -0.94167491697E-02  0.40701673760E-02  0.10312844148E+01  0.10312068820E+01 0.  0.
     999903    2    3    3    0    0  0.49365967291E-01 -0.10917374703E+00 -0.62937592693E-01  0.14130510142E+00  0.40621242540E-01 0.  0.
         14    1    1    2    0    0  0.73938756343E-02  0.94167491697E-02 -0.40701673760E-02  0.12645585170E-01  0.00000000000E+00 0. -1.
     999901    1    3    3    0    0 -0.56759842925E-01  0.99756997861E-01  0.67007760069E-01  0.88997931341E+00  0.88000000000E+00 0. -1.
        -11    1    4    4    0    0  0.48800268324E-01 -0.60032520218E-01 -0.38244891997E-01  0.86303548925E-01  0.51100000000E-03 0.  1.
         11    1    4    4    0    0  0.56569896697E-03 -0.49141226813E-01 -0.24692700697E-01  0.55001552493E-01  0.51100000000E-03 0. -1.
</event>
<event>
 8    1  0.2025822E+004  0.1043930E+01  0.7957747E-01            NaN
         13   -1    0    0    0    0  0.00000000000E+00  0.00000000000E+00  0.74505805969E-08  0.10566000000E+00  0.10566000000E+00 0.  1.
     999900   -1    0    0    0    0 -0.00000000000E+00 -0.00000000000E+00 -0.74505805969E-08  0.93827000000E+00  0.93827000000E+00 0.  1.
     999902    2    1    2    0    0 -0.13608524403E-01 -0.24859780372E-03 -0.72448124559E-03  0.10302999373E+01  0.10302097758E+01 0.  0.
     999903    2    3    3    0    0 -0.13422508880E+00  0.73807453538E-02  0.77473736071E-02  0.14199912401E+00  0.45087465631E-01 0.  0.
         14    1    1    2    0    0  0.13608524403E-01  0.24859780372E-03  0.72448124559E-03  0.13630062743E-01  0.00000000000E+00 0. -1.
     999901    1    3    3    0    0  0.12061656440E+00 -0.76293431575E-02 -0.84718548527E-02  0.88830081324E+00  0.88000000000E+00 0.  1.
        -11    1    4    4    0    0 -0.95807312778E-01 -0.14462791057E-01 -0.12213725522E-02  0.96901838882E-01  0.51100000000E-03 0.  1.
         11    1    4    4    0    0 -0.38417776024E-01  0.21843536411E-01  0.89687461593E-02  0.45097285131E-01  0.51100000000E-03 0. -1.
</event>
<event>
 8    1  0.2025822E+004  0.1043930E+01  0.7957747E-01            NaN
         13   -1    0    0    0    0  0.00000000000E+00  0.00000000000E+00  0.74505805969E-08  0.10566000000E+00  0.10566000000E+00 0.  1.
     999900   -1    0    0    0    0 -0.00000000000E+00 -0.00000000000E+00 -0.74505805969E-08  0.93827000000E+00  0.93827000000E+00 0.  1.
     999902    2    1    2    0    0  0.22732265809E-02 -0.10381990098E-01  0.34784320420E-02  0.10327473006E+01  0.10326867550E+01 0.  0.
     999903    2    3    3    0    0 -0.90242701677E-01  0.98864545999E-01 -0.48664870916E-03  0.14117020097E+00  0.44842448124E-01 0.  0.
         14    1    1    2    0    0 -0.22732265809E-02  0.10381990098E-01 -0.34784320420E-02  0.11182699449E-01  0.00000000000E+00 0. -1.
     999901    1    3    3    0    0  0.92515928258E-01 -0.10924653610E+00  0.39650807511E-02  0.89157709958E+00  0.88000000000E+00 0. -1.
        -11    1    4    4    0    0 -0.17165258084E-01  0.27835299728E-01 -0.18655517678E-01  0.37652881123E-01  0.51100000000E-03 0. -1.
         11    1    4    4    0    0 -0.73077443593E-01  0.71029246271E-01  0.18168868969E-01  0.10351731985E+00  0.51100000000E-03 0.  1.
</event>
<event>
 8    1  0.3095001E+004  0.1043930E+01  0.7957747E-01            NaN
         13   -1    0    0    0    0  0.00000000000E+00  0.00000000000E+00  0.74505805969E-08  0.10566000000E+00  0.10566000000E+00 0. -1.
     999900   -1    0    0    0    0 -0.00000000000E+00 -0.00000000000E+00 -0.74505805969E-08  0.93827000000E+00  0.93827000000E+00 0. -1.
     999902    2    1    2    0    0 -0.13758514466E-01  0.23603089549E-02  0.43958518786E-02  0.10292947244E+01  0.10291906715E+01 0.  0.
     999903    2    3    3    0    0  0.43525903639E-01  0.70160851276E-01 -0.10181732389E+00  0.13847506990E+00  0.44626541451E-01 0.  0.
         14    1    1    2    0    0  0.13758514466E-01 -0.23603089549E-02 -0.43958518786E-02  0.14635275618E-01  0.00000000000E+00 0.  1.
     999901    1    3    3    0    0 -0.57284418105E-01 -0.67800542321E-01  0.10621317577E+00  0.89081965448E+00  0.88000000000E+00 0.  1.
        -11    1    4    4    0    0  0.35444005002E-01  0.37633940509E-01 -0.31403550593E-01  0.60489958503E-01  0.51100000000E-03 0. -1.
         11    1    4    4    0    0  0.80818986364E-02  0.32526910767E-01 -0.70413773295E-01  0.77985111401E-01  0.51100000000E-03 0.  1.
</event>
<event>
 8    1  0.2025822E+004  0.1043930E+01  0.7957747E-01            NaN
         13   -1    0    0    0    0  0.00000000000E+00  0.00000000000E+00  0.74505805969E-08  0.10566000000E+00  0.10566000000E+00 0. -1.
     999900   -1    0    0    0    0 -0.00000000000E+00 -0.00000000000E+00 -0.74505805969E-08  0.93827000000E+00  0.93827000000E+00 0.  1.
     999902    2    1    2    0    0 -0.33030883317E-02 -0.25746947094E-02 -0.40400571789E-02  0.10381109359E+01  0.10380946265E+01 0.  0.
     999903    2    3    3    0    0 -0.13617346329E+00  0.16131982518E-01 -0.27001147894E-01  0.14764381800E+00  0.47604433012E-01 0.  0.
         14    1    1    2    0    0  0.33030883317E-02  0.25746947094E-02  0.40400571789E-02  0.58190641329E-02  0.00000000000E+00 0. -1.
     999901    1    3    3    0    0  0.13287037496E+00 -0.18706677228E-01  0.22961090715E-01  0.89046711787E+00  0.88000000000E+00 0.  1.
        -11    1    4    4    0    0 -0.76031713166E-01  0.64807458013E-02  0.90782038603E-02  0.76847227533E-01  0.51100000000E-03 0. -1.
         11    1    4    4    0    0 -0.60141750122E-01  0.96512367168E-02 -0.36079351755E-01  0.70796590468E-01  0.51100000000E-03 0.  1.
</event>
<event>
 8    1  0.2025822E+004  0.1043930E+01  0.7957747E-01            NaN
         13   -1    0    0    0    0  0.00000000000E+00  0.00000000000E+00  0.74505805969E-08  0.10566000000E+00  0.10566000000E+00 0.  1.
     999900   -1    0    0    0    0 -0.00000000000E+00 -0.00000000000E+00 -0.74505805969E-08  0.93827000000E+00  0.93827000000E+00 0. -1.
     999902    2    1    2    0    0 -0.11325701709E-01 -0.25048487503E-01  0.13517946766E-02  0.10164068171E+01  0.10160341000E+01 0.  0.
     999903    2    3    3    0    0  0.84770141754E-01  0.75415161910E-01 -0.96332496292E-02  0.12542532061E+00  0.52586005476E-01 0.  0.
         14    1    1    2    0    0  0.11325701709E-01  0.25048487503E-01 -0.13517946766E-02  0.27523182850E-01  0.00000000000E+00 0. -1.
     999901    1    3    3    0    0 -0.96095843463E-01 -0.10046364941E+00  0.10985044306E-01  0.89098149654E+00  0.88000000000E+00 0.  1.
        -11    1    4    4    0    0  0.47967321710E-01  0.74007234353E-01 -0.79927861255E-02  0.88555521791E-01  0.51100000000E-03 0. -1.
         11    1    4    4    0    0  0.36802820044E-01  0.14079275568E-02 -0.16404635037E-02  0.36869798816E-01  0.51100000000E-03 0.  1.
</event>
<event>
 8    1  0.2025822E+004  0.1043930E+01  0.7957747E-01            NaN
         13   -1    0    0    0    0  0.00000000000E+00  0.00000000000E+00  0.74505805969E-08  0.10566000000E+00  0.10566000000E+00 0.  1.
     999900   -1    0    0    0    0 -0.00000000000E+00 -0.00000000000E+00 -0.74505805969E-08  0.93827000000E+00  0.93827000000E+00 0. -1.
     999902    2    1    2    0    0 -0.76448835862E-02 -0.95896052175E-02 -0.63931794640E-02  0.10300996885E+01  0.10300068401E+01 0.  0.
     999903    2    3    3    0    0 -0.85751650071E-01  0.89970127993E-01  0.44758703738E-01  0.13957775017E+00  0.45062593808E-01 0.  0.
         14    1    1    2    0    0  0.76448835862E-02  0.95896052175E-02  0.63931794640E-02  0.13830311527E-01  0.00000000000E+00 0.  1.
     999901    1    3    3    0    0  0.78106766485E-01 -0.99559733210E-01 -0.51151883202E-01  0.89052193831E+00  0.88000000000E+00 0.  1.
        -11    1    4    4    0    0 -0.29720796505E-01  0.41848487899E-01  0.40870666873E-01  0.65614740843E-01  0.51100000000E-03 0.  1.
         11    1    4    4    0    0 -0.56030853566E-01  0.48121640094E-01  0.38880368652E-02  0.73963009325E-01  0.51100000000E-03 0. -1.
</event>
<event>
 8    1  0.2025822E+004  0.1043930E+01  0.7957747E-01            NaN
         13   -1    0    0    0    0  0.00000000000E+00  0.00000000000E+00  0.74505805969E-08  0.10566000000E+00  0.10566000000E+00 0.  1.
     999900   -1    0    0    0    0 -0.00000000000E+00 -0.00000000000E+00 -0.74505805969E-08  0.93827000000E+00  0.93827000000E+00 0.  1.
     999902    2    1    2    0    0  0.13429833069E-01  0.16327430647E-02 -0.40042224917E-04  0.10304012207E+01  0.10303124030E+01 0.  0.
     999903    2    3    3    0    0 -0.56776236301E-01 -0.11344254933E+00  0.36338673099E-01  0.13939357425E+00  0.44914545216E-01 0.  0.
         14    1    1    2    0    0 -0.13429833069E-01 -0.16327430647E-02  0.40042224917E-04  0.13528779308E-01  0.00000000000E+00 0. -1.
     999901    1    3    3    0    0  0.70206069370E-01  0.11507529239E+00 -0.36378715324E-01  0.89100764645E+00  0.88000000000E+00 0.  1.
        -11    1    4    4    0    0 -0.60023494072E-01 -0.86891505694E-01  0.18444971186E-01  0.10720742365E+00  0.51100000000E-03 0.  1.
         11    1    4    4    0    0  0.32472577714E-02 -0.26551043635E-01  0.17893701913E-01  0.32186150597E-01  0.51100000000E-03 0. -1.
</event>
<event>
 8    1  0.2025822E+004  0.1043930E+01  0.7957747E-01            NaN
         13   -1    0    0    0    0  0.00000000000E+00  0.00000000000E+00  0.74505805969E-08  0.10566000000E+00  0.10566000000E+00 0. -1.
     999900   -1    0    0    0    0 -0.00000000000E+00 -0.00000000000E+00 -0.74505805969E-08  0.93827000000E+00  0.93827000000E+00 0. -1.
     999902    2    1    2    0    0  0.88451392829E-02 -0.20708749662E-02  0.12663717216E-01  0.10283449191E+01  0.10282268125E+01 0.  0.
     999903    2    3    3    0    0  0.88460794691E-01 -0.30032449530E-02 -0.96636241133E-01  0.13801576494E+00  0.43306542166E-01 0.  0.
         14    1    1    2    0    0 -0.88451392829E-02  0.20708749662E-02 -0.12663717216E-01  0.15585080872E-01  0.00000000000E+00 0.  1.
     999901    1    3    3    0    0 -0.79615655408E-01  0.93236998672E-03  0.10929995835E+00  0.89032915419E+00  0.88000000000E+00 0.  1.
        -11    1    4    4    0    0  0.23215531703E-01 -0.10934771324E-01 -0.53666757493E-01  0.59488756223E-01  0.51100000000E-03 0. -1.
         11    1    4    4    0    0  0.65245262988E-01  0.79315263708E-02 -0.42969483640E-01  0.78527008719E-01  0.51100000000E-03 0.  1.
</event>
<event>
 8    1  0.2025822E+004  0.1043930E+01  0.7957747E-01            NaN
         13   -1    0    0    0    0  0.00000000000E+00  0.00000000000E+00  0.74505805969E-08  0.10566000000E+00  0.10566000000E+00 0.  1.
     999900   -1    0    0    0    0 -0.00000000000E+00 -0.00000000000E+00 -0.74505805969E-08  0.93827000000E+00  0.93827000000E+00 0. -1.
     999902    2    1    2    0    0 -0.12292831172E-01 -0.70048403210E-02  0.75762144121E-03  0.10297611794E+01  0.10296636981E+01 0.  0.
     999903    2    3    3    0    0  0.77861423782E-01 -0.35419287650E-01  0.10020117655E+00  0.13912983529E+00  0.44720331333E-01 0.  0.
         14    1    1    2    0    0  0.12292831172E-01  0.70048403210E-02 -0.75762144121E-03  0.14168820572E-01  0.00000000000E+00 0.  1.
     999901    1    3    3    0    0 -0.90154254954E-01  0.28414447329E-01 -0.99443555114E-01  0.89063134414E+00  0.88000000000E+00 0. -1.
        -11    1    4    4    0    0  0.25541149238E-01 -0.60220406469E-02  0.63676780329E-01  0.68873861167E-01  0.51100000000E-03 0. -1.
         11    1    4    4    0    0  0.52320274544E-01 -0.29397247003E-01  0.36524396226E-01  0.70255974126E-01  0.51100000000E-03 0.  1.
</event>
<event>
 8    1  0.2025822E+004  0.1043930E+01  0.7957747E-01            NaN
         13   -1    0    0    0    0  0.00000000000E+00  0.00000000000E+00  0.74505805969E-08  0.10566000000E+00  0.10566000000E+00 0. -1.
     999900   -1    0    0    0    0 -0.00000000000E+00 -0.00000000000E+00 -0.74505805969E-08  0.93827000000E+00  0.93827000000E+00 0.  1.
     999902    2    1    2    0    0 -0.12588317019E-02 -0.29873936493E-02  0.13106650104E-01  0.10304283907E+01  0.10303399317E+01 0.  0.
     999903    2    3    3    0    0 -0.20579799857E-02  0.92644725564E-01  0.96345185994E-01  0.14134189614E+00  0.45911396015E-01 0.  0.
         14    1    1    2    0    0  0.12588317019E-02  0.29873936493E-02 -0.13106650104E-01  0.13501609349E-01  0.00000000000E+00 0.  1.
     999901    1    3    3    0    0  0.79914828384E-03 -0.95632119213E-01 -0.83238535889E-01  0.88908649451E+00  0.88000000000E+00 0.  1.
        -11    1    4    4    0    0  0.17041133170E-01  0.13278497851E-01  0.23597363304E-01  0.31997115507E-01  0.51100000000E-03 0. -1.
         11    1    4    4    0    0 -0.19099113155E-01  0.79366227712E-01  0.72747822690E-01  0.10934478063E+00  0.51100000000E-03 0.  1.
</event>
<event>
 8    1  0.2025822E+004  0.1043930E+01  0.7957747E-01            NaN
         13   -1    0    0    0    0  0.00000000000E+00  0.00000000000E+00  0.74505805969E-08  0.10566000000E+00  0.10566000000E+00 0.  1.
     999900   -1    0    0    0    0 -0.00000000000E+00 -0.00000000000E+00 -0.74505805969E-08  0.93827000000E+00  0.93827000000E+00 0. -1.
     999902    2    1    2    0    0  0.16409148001E-01  0.94166042186E-02 -0.40633930426E-02  0.10245794513E+01  0.10243967045E+01 0.  0.
     999903    2    3    3    0    0 -0.26916328006E-01 -0.10593839197E+00 -0.63064508109E-01  0.13403747944E+00  0.45182763362E-01 0.  0.
         14    1    1    2    0    0 -0.16409148001E-01 -0.94166042186E-02  0.40633930426E-02  0.19350548730E-01  0.00000000000E+00 0.  1.
     999901    1    3    3    0    0  0.43325476008E-01  0.11535499619E+00  0.59001115066E-01  0.89054197183E+00  0.88000000000E+00 0.  1.
        -11    1    4    4    0    0  0.95211504691E-02 -0.29406217071E-01 -0.50570022476E-02  0.31324308475E-01  0.51100000000E-03 0.  1.
         11    1    4    4    0    0 -0.36437478476E-01 -0.76532174896E-01 -0.58007505861E-01  0.10271317096E+00  0.51100000000E-03 0. -1.
</event>
<event>
 8    1  0.2025822E+004  0.1043930E+01  0.7957747E-01            NaN
         13   -1    0    0    0    0  0.00000000000E+00  0.00000000000E+00  0.74505805969E-08  0.10566000000E+00  0.10566000000E+00 0.  1.
     999900   -1    0    0    0    0 -0.00000000000E+00 -0.00000000000E+00 -0.74505805969E-08  0.93827000000E+00  0.93827000000E+00 0.  1.
     999902    2    1    2    0    0  0.50466209272E-02  0.10594218454E-01 -0.70941431883E-02  0.10302174979E+01  0.10301262351E+01 0.  0.
     999903    2    3    3    0    0 -0.70943269555E-01 -0.63223636646E-01  0.90424081537E-01  0.13851500075E+00  0.44493990451E-01 0.  0.
         14    1    1    2    0    0 -0.50466209272E-02 -0.10594218454E-01  0.70941431883E-02  0.13712502142E-01  0.00000000000E+00 0. -1.
     999901    1    3    3    0    0  0.75989890482E-01  0.73817855100E-01 -0.97518224725E-01  0.89170249710E+00  0.88000000000E+00 0. -1.
        -11    1    4    4    0    0 -0.33800523575E-01 -0.29081174289E-02  0.32938405498E-01  0.47287759713E-01  0.51100000000E-03 0.  1.
         11    1    4    4    0    0 -0.37142745981E-01 -0.60315519217E-01  0.57485676038E-01  0.91227241041E-01  0.51100000000E-03 0. -1.
</event>
<event>
 8    1  0.2025822E+004  0.1043930E+01  0.7957747E-01            NaN
         13   -1    0    0    0    0  0.00000000000E+00  0.00000000000E+00  0.74505805969E-08  0.10566000000E+00  0.10566000000E+00 0. -1.
     999900   -1    0    0    0    0 -0.00000000000E+00 -0.00000000000E+00 -0.74505805969E-08  0.93827000000E+00  0.93827000000E+00 0.  1.
     999902    2    1    2    0    0  0.97964965493E-02  0.22901784798E-02  0.93981546119E-02  0.10301625902E+01  0.10300705902E+01 0.  0.
     999903    2    3    3    0    0  0.90991421391E-01  0.12115253922E-01  0.98892964802E-01  0.14185044407E+00  0.43766560896E-01 0.  0.
         14    1    1    2    0    0 -0.97964965493E-02 -0.22901784798E-02 -0.93981546119E-02  0.13767409786E-01  0.00000000000E+00 0.  1.
     999901    1    3    3    0    0 -0.81194924841E-01 -0.98250754423E-02 -0.89494810190E-01  0.88831214614E+00  0.88000000000E+00 0. -1.
        -11    1    4    4    0    0  0.49503072548E-01  0.27380148987E-01  0.46001495530E-01  0.72915193630E-01  0.51100000000E-03 0. -1.
         11    1    4    4    0    0  0.41488348843E-01 -0.15264895065E-01  0.52891469272E-01  0.68935250444E-01  0.51100000000E-03 0.  1.
</event>
<event>
 8    1  0.2132167E+004  0.1043930E+01  0.7957747E-01            NaN
         13   -1    0    0    0    0  0.00000000000E+00  0.00000000000E+00  0.74505805969E-08  0.10566000000E+00  0.10566000000E+00 0.  1.
     999900   -1    0    0    0    0 -0.00000000000E+00 -0.00000000000E+00 -0.74505805969E-08  0.93827000000E+00  0.93827000000E+00 0.  1.
     999902    2    1    2    0    0  0.12953382247E-02  0.40939654319E-02 -0.12817202020E-01  0.10304126363E+01  0.10303239694E+01 0.  0.
     999903    2    3    3    0    0  0.48736434219E-01 -0.11998058322E+00  0.24977437259E-01  0.13964129303E+00  0.45882872360E-01 0.  0.
         14    1    1    2    0    0 -0.12953382247E-02 -0.40939654319E-02  0.12817202020E-01  0.13517363711E-01  0.00000000000E+00 0.  1.
     999901    1    3    3    0    0 -0.47441095995E-01  0.12407454866E+00 -0.37794639279E-01  0.89077134326E+00  0.88000000000E+00 0. -1.
        -11    1    4    4    0    0  0.48149078795E-01 -0.60759303044E-01  0.74894104903E-02  0.77886963516E-01  0.51100000000E-03 0.  1.
         11    1    4    4    0    0  0.58735542426E-03 -0.59221280180E-01  0.17488026769E-01  0.61754329515E-01  0.51100000000E-03 0. -1.
</event>
<event>
 8    1  0.2025822E+004  0.1043930E+01  0.7957747E-01            NaN
         13   -1    0    0    0    0  0.00000000000E+00  0.00000000000E+00  0.74505805969E-08  0.10566000000E+00  0.10566000000E+00 0.  1.
     999900   -1    0    0    0    0 -0.00000000000E+00 -0.00000000000E+00 -0.74505805969E-08  0.93827000000E+00  0.93827000000E+00 0.  1.
     999902    2    1    2    0    0  0.24320358302E-02  0.12805391153E-01  0.43234840128E-02  0.10301973617E+01  0.10301058289E+01 0.  0.
     999903    2    3    3    0    0  0.83115157247E-01 -0.95389415156E-01 -0.35441748371E-01  0.13901996302E+00  0.45422050851E-01 0.  0.
         14    1    1    2    0    0 -0.24320358302E-02 -0.12805391153E-01 -0.43234840128E-02  0.13732638307E-01  0.00000000000E+00 0. -1.
     999901    1    3    3    0    0 -0.80683121417E-01  0.10819480631E+00  0.39765232383E-01  0.89117739867E+00  0.88000000000E+00 0. -1.
        -11    1    4    4    0    0  0.93359652792E-02 -0.30043505906E-01  0.61242187611E-02  0.32055259650E-01  0.51100000000E-03 0.  1.
         11    1    4    4    0    0  0.73779191968E-01 -0.65345909250E-01 -0.41565967132E-01  0.10696470337E+00  0.51100000000E-03 0. -1.
</event>
<event>
 8    1  0.2025822E+004  0.1043930E+01  0.7957747E-01            NaN
         13   -1    0    0    0    0  0.00000000000E+00  0.00000000000E+00  0.74505805969E-08  0.10566000000E+00  0.10566000000E+00 0.  1.
     999900   -1    0    0    0    0 -0.00000000000E+00 -0.00000000000E+00 -0.74505805969E-08  0.93827000000E+00  0.93827000000E+00 0. -1.
     999902    2    1    2    0    0 -0.62767899292E-02  0.19994042566E-01  0.81314174464E-03  0.10229580895E+01  0.10227430918E+01 0.  0.
     999903    2    3    3    0    0 -0.66420859459E-01 -0.69311547351E-02  0.10754529096E+00  0.13406325489E+00  0.44127035083E-01 0.  0.
         14    1    1    2    0    0  0.62767899292E-02 -0.19994042566E-01 -0.81314174464E-03  0.20971910487E-01  0.00000000000E+00 0.  1.
     999901    1    3    3    0    0  0.60144069529E-01  0.26925197302E-01 -0.10673214922E+00  0.88889483463E+00  0.88000000000E+00 0. -1.
        -11    1    4    4    0    0  0.39471539434E-02  0.72009100698E-02  0.12408261459E-01  0.14888223652E-01  0.51100000000E-03 0. -1.
         11    1    4    4    0    0 -0.70368013402E-01 -0.14132064805E-01  0.95137029505E-01  0.11917503123E+00  0.51100000000E-03 0.  1.
</event>
<event>
 8    1  0.2025822E+004  0.1043930E+01  0.7957747E-01            NaN
         13   -1    0    0    0    0  0.00000000000E+00  0.00000000000E+00  0.74505805969E-08  0.10566000000E+00  0.10566000000E+00 0. -1.
     999900   -1    0    0    0    0 -0.00000000000E+00 -0.00000000000E+00 -0.74505805969E-08  0.93827000000E+00  0.93827000000E+00 0.  1.
     999902    2    1    2    0    0 -0.11352540655E-01 -0.62949425519E-02 -0.38072399437E-02  0.10304021932E+01  0.10303133883E+01 0.  0.
     999903    2    3    3    0    0  0.10496885964E+00 -0.73783312825E-01  0.34313757155E-01  0.13936989372E+00  0.42238543999E-01 0.  0.
         14    1    1    2    0    0  0.11352540655E-01  0.62949425519E-02  0.38072399437E-02  0.13527806809E-01  0.00000000000E+00 0. -1.
     999901    1    3    3    0    0 -0.11632140029E+00  0.67488370273E-01 -0.38120997099E-01  0.89103229948E+00  0.88000000000E+00 0.  1.
        -11    1    4    4    0    0  0.23348004051E-01 -0.40759752726E-01  0.13815806869E-01  0.48965542741E-01  0.51100000000E-03 0.  1.
         11    1    4    4    0    0  0.81620855587E-01 -0.33023560099E-01  0.20497950286E-01  0.90404350975E-01  0.51100000000E-03 0. -1.
</event>
<event>
 8    1  0.2025822E+004  0.1043930E+01  0.7957747E-01            NaN
         13   -1    0    0    0    0  0.00000000000E+00  0.00000000000E+00  0.74505805969E-08  0.10566000000E+00  0.10566000000E+00 0.  1.
     999900   -1    0    0    0    0 -0.00000000000E+00 -0.00000000000E+00 -0.74505805969E-08  0.93827000000E+00  0.93827000000E+00 0. -1.
     999902    2    1    2    0    0  0.13624867931E-01  0.20181054466E-02  0.35189142673E-02  0.10297140747E+01  0.10296159396E+01 0.  0.
     999903    2    3    3    0    0 -0.75608861556E-01 -0.87715682994E-01  0.59574277333E-01  0.13889590298E+00  0.48293233019E-01 0.  0.
         14    1    1    2    0    0 -0.13624867931E-01 -0.20181054466E-02 -0.35189142673E-02  0.14215925342E-01  0.00000000000E+00 0.  1.
     999901    1    3    3    0    0  0.89233729487E-01  0.89733788441E-01 -0.56055363065E-01  0.89081817168E+00  0.88000000000E+00 0. -1.
        -11    1    4    4    0    0 -0.39433191195E-01 -0.67009106773E-01  0.58315161574E-01  0.97191132048E-01  0.51100000000E-03 0. -1.
         11    1    4    4    0    0 -0.36175670361E-01 -0.20706576221E-01  0.12591157588E-02  0.41704770931E-01  0.51100000000E-03 0.  1.
</event>
<event>
 8    1  0.2025822E+004  0.1043930E+01  0.7957747E-01            NaN
         13   -1    0    0    0    0  0.00000000000E+00  0.00000000000E+00  0.74505805969E-08  0.10566000000E+00  0.10566000000E+00 0. -1.
     999900   -1    0    0    0    0 -0.00000000000E+00 -0.00000000000E+00 -0.74505805969E-08  0.93827000000E+00  0.93827000000E+00 0.  1.
     999902    2    1    2    0    0 -0.62694372955E-02 -0.10419033614E-01  0.74290229250E-02  0.10296803513E+01  0.10295817468E+01 0.  0.
     999903    2    3    3    0    0  0.35772706468E-02  0.56008511992E-01 -0.11784081431E+00  0.13827578068E+00  0.45650670578E-01 0.  0.
         14    1    1    2    0    0  0.62694372955E-02  0.10419033614E-01 -0.74290229250E-02  0.14249648665E-01  0.00000000000E+00 0.  1.
     999901    1    3    3    0    0 -0.98467079423E-02 -0.66427545606E-01  0.12526983723E+00  0.89140457066E+00  0.88000000000E+00 0. -1.
        -11    1    4    4    0    0  0.32132325958E-02  0.44190538684E-01 -0.40485913796E-01  0.60020820636E-01  0.51100000000E-03 0.  1.
         11    1    4    4    0    0  0.36403805099E-03  0.11817973308E-01 -0.77354900510E-01  0.78254960040E-01  0.51100000000E-03 0. -1.
</event>
<event>
 8    1  0.2025822E+004  0.1043930E+01  0.7957747E-01            NaN
         13   -1    0    0    0    0  0.00000000000E+00  0.00000000000E+00  0.74505805969E-08  0.10566000000E+00  0.10566000000E+00 0.  1.
     999900   -1    0    0    0    0 -0.00000000000E+00 -0.00000000000E+00 -0.74505805969E-08  0.93827000000E+00  0.93827000000E+00 0. -1.
     999902    2    1    2    0    0  0.97170797417E-02 -0.89235039335E-02  0.52462722349E-02  0.10297323265E+01  0.10296344450E+01 0.  0.
     999903    2    3    3    0    0  0.11871030704E+00 -0.49898146218E-01 -0.33667961006E-01  0.14120952854E+00  0.47166061518E-01 0.  0.
         14    1    1    2    0    0 -0.97170797417E-02  0.89235039335E-02 -0.52462722349E-02  0.14197673525E-01  0.00000000000E+00 0. -1.
     999901    1    3    3    0    0 -0.10899322729E+00  0.40974642284E-01  0.38914233241E-01  0.88852279794E+00  0.88000000000E+00 0.  1.
        -11    1    4    4    0    0  0.60746644069E-01 -0.22133248811E-03 -0.13070570272E-01  0.62139397180E-01  0.51100000000E-03 0. -1.
         11    1    4    4    0    0  0.57963662967E-01 -0.49676813730E-01 -0.20597390733E-01  0.79070131357E-01  0.51100000000E-03 0.  1.
</event>
<event>
 8    1  0.2025822E+004  0.1043930E+01  0.7957747E-01            NaN
         13   -1    0    0    0    0  0.00000000000E+00  0.00000000000E+00  0.74505805969E-08  0.10566000000E+00  0.10566000000E+00 0. -1.
     999900   -1    0    0    0    0 -0.00000000000E+00 -0.00000000000E+00 -0.74505805969E-08  0.93827000000E+00  0.93827000000E+00 0.  1.
     999902    2    1    2    0    0 -0.51937700038E-02  0.97302023114E-02 -0.83743179186E-02  0.10300814880E+01  0.10299883935E+01 0.  0.
     999903    2    3    3    0    0 -0.10507984528E+00  0.79314903758E-01 -0.24720854921E-01  0.14155097757E+00  0.45748559984E-01 0.  0.
         14    1    1    2    0    0  0.51937700038E-02 -0.97302023114E-02  0.83743179186E-02  0.13848511995E-01  0.00000000000E+00 0. -1.
     999901    1    3    3    0    0  0.99886075272E-01 -0.69584701446E-01  0.16346537002E-01  0.88853051044E+00  0.88000000000E+00 0.  1.
        -11    1    4    4    0    0 -0.59329711517E-01  0.18746274466E-01 -0.17626857073E-02  0.62247936969E-01  0.51100000000E-03 0.  1.
         11    1    4    4    0    0 -0.45750133759E-01  0.60568629292E-01 -0.22958169213E-01  0.79303040597E-01  0.51100000000E-03 0. -1.
</event>
<event>
 8    1  0.2025822E+004  0.1043930E+01  0.7957747E-01            NaN
         13   -1    0    0    0    0  0.00000000000E+00  0.00000000000E+00  0.74505805969E-08  0.10566000000E+00  0.10566000000E+00 0.  1.
     999900   -1    0    0    0    0 -0.00000000000E+00 -0.00000000000E+00 -0.74505805969E-08  0.93827000000E+00  0.93827000000E+00 0. -1.
     999902    2    1    2    0    0 -0.21755717218E-02 -0.95284953602E-02 -0.99103633566E-02  0.10300109254E+01  0.10299168732E+01 0.  0.
     999903    2    3    3    0    0  0.10215000109E-01  0.12823391642E+00 -0.28044199136E-01  0.13902223614E+00  0.44636548810E-01 0.  0.
         14    1    1    2    0    0  0.21755717218E-02  0.95284953602E-02  0.99103633566E-02  0.13919074610E-01  0.00000000000E+00 0.  1.
     999901    1    3    3    0    0 -0.12390571831E-01 -0.13776241178E+00  0.18133835779E-01  0.89098868925E+00  0.88000000000E+00 0.  1.
        -11    1    4    4    0    0  0.89312480689E-02  0.40161659411E-01 -0.29993534881E-01  0.50917573925E-01  0.51100000000E-03 0.  1.
         11    1    4    4    0    0  0.12837520404E-02  0.88072257006E-01  0.19493357454E-02  0.88104662216E-01  0.51100000000E-03 0. -1.
</event>
<event>
 8    1  0.2025822E+004  0.1043930E+01  0.7957747E-01            NaN
         13   -1    0    0    0    0  0.00000000000E+00  0.00000000000E+00  0.74505805969E-08  0.10566000000E+00  0.10566000000E+00 0.  1.
     999900   -1    0    0    0    0 -0.00000000000E+00 -0.00000000000E+00 -0.74505805969E-08  0.93827000000E+00  0.93827000000E+00 0.  1.
     999902    2    1    2    0    0 -0.14563701080E-03  0.12669346384E-01 -0.42431262891E-02  0.10305682011E+01  0.10304815765E+01 0.  0.
     999903    2    3    3    0    0  0.30137014989E-01  0.12431147570E+00  0.41171192917E-01  0.14183682191E+00  0.45398615183E-01 0.  0.
         14    1    1    2    0    0  0.14563701080E-03 -0.12669346384E-01  0.42431262891E-02  0.13361798855E-01  0.00000000000E+00 0. -1.
     999901    1    3    3    0    0 -0.30282652000E-01 -0.11164212931E+00 -0.45414319206E-01  0.88873137924E+00  0.88000000000E+00 0.  1.
        -11    1    4    4    0    0 -0.57828740877E-03  0.81313348972E-01  0.14342797614E-01  0.82572223548E-01  0.51100000000E-03 0.  1.
         11    1    4    4    0    0  0.30715302398E-01  0.42998126726E-01  0.26828395303E-01  0.59264598361E-01  0.51100000000E-03 0. -1.
</event>
<event>
 8    1  0.2025822E+004  0.1043930E+01  0.7957747E-01            NaN
         13   -1    0    0    0    0  0.00000000000E+00  0.00000000000E+00  0.74505805969E-08  0.10566000000E+00  0.10566000000E+00 0. -1.
     999900   -1    0    0    0    0 -0.00000000000E+00 -0.00000000000E+00 -0.74505805969E-08  0.93827000000E+00  0.93827000000E+00 0.  1.
     999902    2    1    2    0    0  0.90159985372E-02  0.11948366947E-02 -0.10699491395E-01  0.10298873870E+01  0.10297916463E+01 0.  0.
     999903    2    3    3    0    0 -0.12658365662E+00  0.28232065295E-01  0.18228505749E-01  0.13862137325E+00  0.45421746614E-01 0.  0.
         14    1    1    2    0    0 -0.90159985372E-02 -0.11948366947E-02  0.10699491395E-01  0.14042613021E-01  0.00000000000E+00 0. -1.
     999901    1    3    3    0    0  0.13559965516E+00 -0.27037228600E-01 -0.28927997144E-01  0.89126601373E+00  0.88000000000E+00 0. -1.
        -11    1    4    4    0    0 -0.40639186352E-01  0.96372231656E-03  0.25778212082E-01  0.48137818472E-01  0.51100000000E-03 0.  1.
         11    1    4    4    0    0 -0.85944470269E-01  0.27268342978E-01 -0.75497063333E-02  0.90483554778E-01  0.51100000000E-03 0. -1.
</event>
<event>
 8    1  0.2025822E+004  0.1043930E+01  0.7957747E-01            NaN
         13   -1    0    0    0    0  0.00000000000E+00  0.00000000000E+00  0.74505805969E-08  0.10566000000E+00  0.10566000000E+00 0.  1.
     999900   -1    0    0    0    0 -0.00000000000E+00 -0.00000000000E+00 -0.74505805969E-08  0.93827000000E+00  0.93827000000E+00 0. -1.
     999902    2    1    2    0    0  0.10720643476E-02 -0.73846535593E-02  0.11323325988E-01  0.10303690214E+01  0.10302797776E+01 0.  0.
     999903    2    3    3    0    0  0.13133156513E+00 -0.13713670381E-01  0.18597503480E-01  0.14072835927E+00  0.44972871950E-01 0.  0.
         14    1    1    2    0    0 -0.10720643476E-02  0.73846535593E-02 -0.11323325988E-01  0.13560978636E-01  0.00000000000E+00 0. -1.
     999901    1    3    3    0    0 -0.13025950078E+00  0.63290168219E-02 -0.72741774928E-02  0.88964066210E+00  0.88000000000E+00 0. -1.
        -11    1    4    4    0    0  0.10097972812E+00  0.69229349504E-03 -0.25694152977E-02  0.10101607683E+00  0.51100000000E-03 0.  1.
         11    1    4    4    0    0  0.30351837011E-01 -0.14405963876E-01  0.21166918778E-01  0.39712282442E-01  0.51100000000E-03 0. -1.
</event>
<event>
 8    1  0.2025822E+004  0.1043930E+01  0.7957747E-01            NaN
         13   -1    0    0    0    0  0.00000000000E+00  0.00000000000E+00  0.74505805969E-08  0.10566000000E+00  0.10566000000E+00 0.  1.
     999900   -1    0    0    0    0 -0.00000000000E+00 -0.00000000000E+00 -0.74505805969E-08  0.93827000000E+00  0.93827000000E+00 0.  1.
     999902    2    1    2    0    0  0.75315490496E-02  0.52986144621E-02 -0.85796869135E-02  0.10313438738E+01  0.10312670728E+01 0.  0.
     999903    2    3    3    0    0  0.66864609688E-01  0.11464423204E+00 -0.25303752934E-01  0.14243635857E+00  0.45096123586E-01 0.  0.
         14    1    1    2    0    0 -0.75315490496E-02 -0.52986144621E-02  0.85796869135E-02  0.12586126244E-01  0.00000000000E+00 0.  1.
     999901    1    3    3    0    0 -0.59333060639E-01 -0.10934561757E+00  0.16724066021E-01  0.88890751518E+00  0.88000000000E+00 0. -1.
        -11    1    4    4    0    0  0.25811579561E-01  0.86787749401E-01 -0.17162889315E-01  0.92158434102E-01  0.51100000000E-03 0. -1.
         11    1    4    4    0    0  0.41053030127E-01  0.27856482635E-01 -0.81408636190E-02  0.50277924469E-01  0.51100000000E-03 0.  1.
</event>
<event>
 8    1  0.2025822E+004  0.1043930E+01  0.7957747E-01            NaN
         13   -1    0    0    0    0  0.00000000000E+00  0.00000000000E+00  0.74505805969E-08  0.10566000000E+00  0.10566000000E+00 0.  1.
     999900   -1    0    0    0    0 -0.00000000000E+00 -0.00000000000E+00 -0.74505805969E-08  0.93827000000E+00  0.93827000000E+00 0.  1.
     999902    2    1    2    0    0 -0.92795698735E-02 -0.73548279471E-03 -0.99249216751E-02  0.10303228173E+01  0.10302329602E+01 0.  0.
     999903    2    3    3    0    0  0.10672340994E+00  0.14812590672E-01 -0.76543672693E-01  0.14007763086E+00  0.46405923839E-01 0.  0.
         14    1    1    2    0    0  0.92795698735E-02  0.73548279471E-03  0.99249216751E-02  0.13607182744E-01  0.00000000000E+00 0.  1.
     999901    1    3    3    0    0 -0.11600297981E+00 -0.15548073467E-01  0.66618751018E-01  0.89024518640E+00  0.88000000000E+00 0.  1.
        -11    1    4    4    0    0  0.49399378558E-01 -0.97423609726E-02 -0.53820676896E-01  0.73703043233E-01  0.51100000000E-03 0.  1.
         11    1    4    4    0    0  0.57324031378E-01  0.24554951644E-01 -0.22722995796E-01  0.66374587627E-01  0.51100000000E-03 0. -1.
</event>
<event>
 8    1  0.2025822E+004  0.1043930E+01  0.7957747E-01            NaN
         13   -1    0    0    0    0  0.00000000000E+00  0.00000000000E+00  0.74505805969E-08  0.10566000000E+00  0.10566000000E+00 0.  1.
     999900   -1    0    0    0    0 -0.00000000000E+00 -0.00000000000E+00 -0.74505805969E-08  0.93827000000E+00  0.93827000000E+00 0. -1.
     999902    2    1    2    0    0  0.34322376426E-02 -0.24950375610E-02 -0.13871194483E-01  0.10294242941E+01  0.10293220884E+01 0.  0.
     999903    2    3    3    0    0  0.38077299224E-01  0.11887547411E+00  0.40761401464E-01  0.13874152119E+00  0.44793512830E-01 0.  0.
         14    1    1    2    0    0 -0.34322376426E-02  0.24950375610E-02  0.13871194483E-01  0.14505705913E-01  0.00000000000E+00 0.  1.
     999901    1    3    3    0    0 -0.34645061582E-01 -0.12137051167E+00 -0.54632595946E-01  0.89068277290E+00  0.88000000000E+00 0.  1.
        -11    1    4    4    0    0  0.22790379275E-01  0.10334281133E+00  0.47394437514E-01  0.11595530117E+00  0.51100000000E-03 0.  1.
         11    1    4    4    0    0  0.15286919949E-01  0.15532662781E-01 -0.66330360503E-02  0.22786220021E-01  0.51100000000E-03 0. -1.
</event>
<event>
 8    1  0.2318048E+004  0.1043930E+01  0.7957747E-01            NaN
         13   -1    0    0    0    0  0.00000000000E+00  0.00000000000E+00  0.74505805969E-08  0.10566000000E+00  0.10566000000E+00 0. -1.
     999900   -1    0    0    0    0 -0.00000000000E+00 -0.00000000000E+00 -0.74505805969E-08  0.93827000000E+00  0.93827000000E+00 0. -1.
     999902    2    1    2    0    0 -0.55102439837E-03  0.10798736288E-02 -0.14208949569E-01  0.10296694249E+01  0.10295706681E+01 0.  0.
     999903    2    3    3    0    0  0.18229396248E-01 -0.98664025900E-01 -0.86992443777E-01  0.14085055316E+00  0.46949889849E-01 0.  0.
         14    1    1    2    0    0  0.55102439837E-03 -0.10798736288E-02  0.14208949569E-01  0.14260575122E-01  0.00000000000E+00 0. -1.
     999901    1    3    3    0    0 -0.18780420646E-01  0.99743899529E-01  0.72783494208E-01  0.88881887172E+00  0.88000000000E+00 0. -1.
        -11    1    4    4    0    0  0.22745933005E-01 -0.16078317224E-01 -0.18275884290E-01  0.33319045914E-01  0.51100000000E-03 0.  1.
         11    1    4    4    0    0 -0.45165367576E-02 -0.82585708677E-01 -0.68716559487E-01  0.10753150725E+00  0.51100000000E-03 0. -1.
</event>
<event>
 8    1  0.2025822E+004  0.1043930E+01  0.7957747E-01            NaN
         13   -1    0    0    0    0  0.00000000000E+00  0.00000000000E+00  0.74505805969E-08  0.10566000000E+00  0.10566000000E+00 0.  1.
     999900   -1    0    0    0    0 -0.00000000000E+00 -0.00000000000E+00 -0.74505805969E-08  0.93827000000E+00  0.93827000000E+00 0.  1.
     999902    2    1    2    0    0 -0.76515439822E-02 -0.69640344011E-02 -0.93310853006E-02  0.10299975539E+01  0.10299033198E+01 0.  0.
     999903    2    3    3    0    0  0.60492831304E-03 -0.38511157767E-01  0.12689169354E+00  0.13891953502E+00  0.41396377961E-01 0.  0.
         14    1    1    2    0    0  0.76515439822E-02  0.69640344011E-02  0.93310853006E-02  0.13932446064E-01  0.00000000000E+00 0.  1.
     999901    1    3    3    0    0 -0.82564722952E-02  0.31547123366E-01 -0.13622277884E+00  0.89107801892E+00  0.88000000000E+00 0.  1.
        -11    1    4    4    0    0 -0.12239065478E-01  0.29927349966E-02  0.36742749925E-01  0.38846389530E-01  0.51100000000E-03 0. -1.
         11    1    4    4    0    0  0.12843993791E-01 -0.41503892764E-01  0.90148943616E-01  0.10007314548E+00  0.51100000000E-03 0.  1.
</event>
<event>
 7    1  0.2025822E+004  0.1043930E+01  0.7957747E-01            NaN
         13   -1    0    0    0    0  0.00000000000E+00  0.00000000000E+00  0.74505805969E-08  0.10566000000E+00  0.10566000000E+00 0.  1.
     999900   -1    0    0    0    0 -0.00000000000E+00 -0.00000000000E+00 -0.74505805969E-08  0.93827000000E+00  0.93827000000E+00 0.  1.
     999903    2    1    2    0    0 -0.28807431744E-01 -0.30880480082E-02  0.44610138586E-01  0.69554778650E-01  0.44815160429E-01 0.  0.
         14    1    1    2    0    0  0.31607187339E-01  0.13282130553E-01  0.78578085434E-01  0.85731819029E-01  0.00000000000E+00 0.  1.
     999901    1    1    2    0    0 -0.27997555948E-02 -0.10194082545E-01 -0.12318822402E+00  0.88864340232E+00  0.88000000000E+00 0.  1.
        -11    1    3    3    0    0 -0.16556227896E-01  0.15212213702E-01  0.32892573338E-02  0.22728846488E-01  0.51100000000E-03 0. -1.
         11    1    3    3    0    0 -0.12251203848E-01 -0.18300261711E-01  0.41320881252E-01  0.46825932162E-01  0.51100000000E-03 0.  1.
</event>
<event>
 8    1  0.3027001E+004  0.1043930E+01  0.7957747E-01            NaN
         13   -1    0    0    0    0  0.00000000000E+00  0.00000000000E+00  0.74505805969E-08  0.10566000000E+00  0.10566000000E+00 0.  1.
     999900   -1    0    0    0    0 -0.00000000000E+00 -0.00000000000E+00 -0.74505805969E-08  0.93827000000E+00  0.93827000000E+00 0.  1.
     999902    2    1    2    0    0  0.11657565513E-01 -0.14745019958E-02  0.64016908603E-02  0.10305488702E+01  0.10304619931E+01 0.  0.
     999903    2    3    3    0    0  0.70818939029E-01  0.88622363785E-01 -0.70428808113E-01  0.14064975290E+00  0.44191520564E-01 0.  0.
         14    1    1    2    0    0 -0.11657565513E-01  0.14745019958E-02 -0.64016908603E-02  0.13381129836E-01  0.00000000000E+00 0. -1.
     999901    1    3    3    0    0 -0.59161373516E-01 -0.90096865780E-01  0.76830498973E-01  0.88989911727E+00  0.88000000000E+00 0.  1.
        -11    1    4    4    0    0  0.53272117937E-01  0.54975525212E-01 -0.23056566651E-01  0.79950567906E-01  0.51100000000E-03 0. -1.
         11    1    4    4    0    0  0.17546821092E-01  0.33646838572E-01 -0.47372241462E-01  0.60699184990E-01  0.51100000000E-03 0.  1.
</event>
<event>
 8    1  0.2025822E+004  0.1043930E+01  0.7957747E-01            NaN
         13   -1    0    0    0    0  0.00000000000E+00  0.00000000000E+00  0.74505805969E-08  0.10566000000E+00  0.10566000000E+00 0. -1.
     999900   -1    0    0    0    0 -0.00000000000E+00 -0.00000000000E+00 -0.74505805969E-08  0.93827000000E+00  0.93827000000E+00 0.  1.
     999902    2    1    2    0    0 -0.10751710930E-02  0.13501082389E-01 -0.28831875578E-02  0.10300826902E+01  0.10299896119E+01 0.  0.
     999903    2    3    3    0    0  0.76422382240E-01 -0.70077229118E-01  0.80634366198E-01  0.13881034869E+00  0.44891127677E-01 0.  0.
         14    1    1    2    0    0  0.10751710930E-02 -0.13501082389E-01  0.28831875578E-02  0.13847309813E-01  0.00000000000E+00 0. -1.
     999901    1    3    3    0    0 -0.77497553333E-01  0.83578311507E-01 -0.83517553756E-01  0.89127234149E+00  0.88000000000E+00 0.  1.
        -11    1    4    4    0    0  0.25594531075E-01 -0.14530528223E-01  0.48955351781E-01  0.57123584100E-01  0.51100000000E-03 0. -1.
         11    1    4    4    0    0  0.50827851165E-01 -0.55546700895E-01  0.31679014417E-01  0.81686764594E-01  0.51100000000E-03 0.  1.
</event>
<event>
 8    1  0.2025822E+004  0.1043930E+01  0.7957747E-01            NaN
         13   -1    0    0    0    0  0.00000000000E+00  0.00000000000E+00  0.74505805969E-08  0.10566000000E+00  0.10566000000E+00 0. -1.
     999900   -1    0    0    0    0 -0.00000000000E+00 -0.00000000000E+00 -0.74505805969E-08  0.93827000000E+00  0.93827000000E+00 0. -1.
     999902    2    1    2    0    0  0.12427425962E-01 -0.12827181563E-01  0.42739801968E-02  0.10255657845E+01  0.10254013526E+01 0.  0.
     999903    2    3    3    0    0 -0.70568224263E-02  0.57499592080E-01  0.11384877895E+00  0.13577247845E+00  0.46006734354E-01 0.  0.
         14    1    1    2    0    0 -0.12427425962E-01  0.12827181563E-01 -0.42739801968E-02  0.18364215464E-01  0.00000000000E+00 0.  1.
     999901    1    3    3    0    0  0.19484248388E-01 -0.70326773643E-01 -0.10957479875E+00  0.88979330608E+00  0.88000000000E+00 0. -1.
        -11    1    4    4    0    0 -0.20224347230E-01  0.56879852160E-01  0.87495815719E-01  0.10630202581E+00  0.51100000000E-03 0.  1.
         11    1    4    4    0    0  0.13167524803E-01  0.61973991998E-03  0.26352963227E-01  0.29470452641E-01  0.51100000000E-03 0. -1.
</event>
<event>
 8    1  0.2025822E+004  0.1043930E+01  0.7957747E-01            NaN
         13   -1    0    0    0    0  0.00000000000E+00  0.00000000000E+00  0.74505805969E-08  0.10566000000E+00  0.10566000000E+00 0.  1.
     999900   -1    0    0    0    0 -0.00000000000E+00 -0.00000000000E+00 -0.74505805969E-08  0.93827000000E+00  0.93827000000E+00 0.  1.
     999902    2    1    2    0    0 -0.10835946037E-01 -0.78682592734E-02 -0.33426835855E-02  0.10301277986E+01  0.10300353298E+01 0.  0.
     999903    2    3    3    0    0 -0.79916465989E-01  0.10539035578E+00 -0.56465421519E-02  0.14018120474E+00  0.46099003209E-01 0.  0.
         14    1    1    2    0    0  0.10835946037E-01  0.78682592734E-02  0.33426835855E-02  0.13802201421E-01  0.00000000000E+00 0.  1.
     999901    1    3    3    0    0  0.69080519952E-01 -0.11325861505E+00  0.23038585663E-02  0.88994659384E+00  0.88000000000E+00 0.  1.
        -11    1    4    4    0    0 -0.82040781283E-01  0.88976328396E-01 -0.13639921692E-01  0.12179402856E+00  0.51100000000E-03 0.  1.
         11    1    4    4    0    0  0.21243152941E-02  0.16414027382E-01  0.79933795399E-02  0.18387176179E-01  0.51100000000E-03 0. -1.
</event>
<event>
 8    1  0.2292653E+004  0.1043930E+01  0.7957747E-01            NaN
         13   -1    0    0    0    0  0.00000000000E+00  0.00000000000E+00  0.74505805969E-08  0.10566000000E+00  0.10566000000E+00 0.  1.
     999900   -1    0    0    0    0 -0.00000000000E+00 -0.00000000000E+00 -0.74505805969E-08  0.93827000000E+00  0.93827000000E+00 0.  1.
     999902    2    1    2    0    0  0.11757843556E-01 -0.72578104904E-02  0.62489378405E-02  0.10287651748E+01  0.10286533979E+01 0.  0.
     999903    2    3    3    0    0  0.77133973250E-01 -0.31100743804E-01 -0.10214467552E+00  0.13938803367E+00  0.45591480557E-01 0.  0.
         14    1    1    2    0    0 -0.11757843556E-01  0.72578104904E-02 -0.62489378405E-02  0.15164825167E-01  0.00000000000E+00 0. -1.
     999901    1    3    3    0    0 -0.65376129694E-01  0.23842933313E-01  0.10839361336E+00  0.88937714116E+00  0.88000000000E+00 0. -1.
        -11    1    4    4    0    0  0.19232938705E-01 -0.31444784456E-01 -0.42478919432E-01  0.56244111850E-01  0.51100000000E-03 0.  1.
         11    1    4    4    0    0  0.57901034545E-01  0.34404065208E-03 -0.59665756088E-01  0.83143921822E-01  0.51100000000E-03 0. -1.
</event>
<event>
 8    1  0.2025822E+004  0.1043930E+01  0.7957747E-01            NaN
         13   -1    0    0    0    0  0.00000000000E+00  0.00000000000E+00  0.74505805969E-08  0.10566000000E+00  0.10566000000E+00 0.  1.
     999900   -1    0    0    0    0 -0.00000000000E+00 -0.00000000000E+00 -0.74505805969E-08  0.93827000000E+00  0.93827000000E+00 0. -1.
     999902    2    1    2    0    0  0.67682442909E-02 -0.11184414449E-01 -0.68197402275E-02  0.10291852004E+01  0.10290795731E+01 0.  0.
     999903    2    3    3    0    0 -0.94398555759E-01  0.13578713849E-01  0.88915513440E-01  0.13788661256E+00  0.44847303089E-01 0.  0.
         14    1    1    2    0    0 -0.67682442909E-02  0.11184414449E-01  0.68197402275E-02  0.14744799562E-01  0.00000000000E+00 0.  1.
     999901    1    3    3    0    0  0.10116680005E+00 -0.24763128298E-01 -0.95735253668E-01  0.89129858788E+00  0.88000000000E+00 0. -1.
        -11    1    4    4    0    0 -0.12979250038E-01 -0.12471983368E-01  0.65082738749E-02  0.19147586023E-01  0.51100000000E-03 0. -1.
         11    1    4    4    0    0 -0.81419305721E-01  0.26050697217E-01  0.82407239565E-01  0.11873902654E+00  0.51100000000E-03 0.  1.
</event>
<event>
 8    1  0.2025822E+004  0.1043930E+01  0.7957747E-01            NaN
         13   -1    0    0    0    0  0.00000000000E+00  0.00000000000E+00  0.74505805969E-08  0.10566000000E+00  0.10566000000E+00 0.  1.
     999900   -1    0    0    0    0 -0.00000000000E+00 -0.00000000000E+00 -0.74505805969E-08  0.93827000000E+00  0.93827000000E+00 0.  1.
     999902    2    1    2    0    0  0.37090366707E-02 -0.87356107766E-02  0.10900278432E-01  0.10294771830E+01  0.10293757266E+01 0.  0.
     999903    2    3    3    0    0 -0.67086167424E-01  0.10606874269E+00 -0.35489131010E-01  0.13799303969E+00  0.45071815455E-01 0.  0.
         14    1    1    2    0    0 -0.37090366707E-02  0.87356107766E-02 -0.10900278432E-01  0.14452816977E-01  0.00000000000E+00 0. -1.
     999901    1    3    3    0    0  0.70795204095E-01 -0.11480435347E+00  0.46389409442E-01  0.89148414333E+00  0.88000000000E+00 0. -1.
        -11    1    4    4    0    0 -0.32336947408E-01  0.71647182548E-01 -0.41192552345E-01  0.88747306575E-01  0.51100000000E-03 0. -1.
         11    1    4    4    0    0 -0.34749220016E-01  0.34421560144E-01  0.57034213352E-02  0.49245733119E-01  0.51100000000E-03 0.  1.
</event>
<event>
 8    1  0.2025822E+004  0.1043930E+01  0.7957747E-01            NaN
         13   -1    0    0    0    0  0.00000000000E+00  0.00000000000E+00  0.74505805969E-08  0.10566000000E+00  0.10566000000E+00 0.  1.
     999900   -1    0    0    0    0 -0.00000000000E+00 -0.00000000000E+00 -0.74505805969E-08  0.93827000000E+00  0.93827000000E+00 0. -1.
     999902    2    1    2    0    0 -0.57375171291E-02 -0.66465057458E-02  0.11009871768E-01  0.10298476558E+01  0.10297513689E+01 0.  0.
     999903    2    3    3    0    0 -0.21127067393E-01 -0.42359110015E-01  0.12453051398E+00  0.14170399369E+00  0.48285875148E-01 0.  0.
         14    1    1    2    0    0  0.57375171291E-02  0.66465057458E-02 -0.11009871768E-01  0.14082344187E-01  0.00000000000E+00 0. -1.
     999901    1    3    3    0    0  0.15389550264E-01  0.35712604270E-01 -0.11352064221E+00  0.88814366212E+00  0.88000000000E+00 0. -1.
        -11    1    4    4    0    0 -0.24269126268E-01 -0.38733871158E-01  0.52911860844E-01  0.69923024847E-01  0.51100000000E-03 0. -1.
         11    1    4    4    0    0  0.31420588757E-02 -0.36252388572E-02  0.71618653132E-01  0.71780968844E-01  0.51100000000E-03 0.  1.
</event>
<event>
 8    1  0.2025822E+004  0.1043930E+01  0.7957747E-01            NaN
         13   -1    0    0    0    0  0.00000000000E+00  0.00000000000E+00  0.74505805969E-08  0.10566000000E+00  0.10566000000E+00 0. -1.
     999900   -1    0    0    0    0 -0.00000000000E+00 -0.00000000000E+00 -0.74505805969E-08  0.93827000000E+00  0.93827000000E+00 0. -1.
     999902    2    1    2    0    0 -0.43161404494E-02 -0.13337301480E-01  0.57727129627E-03  0.10298998211E+01  0.10298042511E+01 0.  0.
     999903    2    3    3    0    0  0.62417071129E-02  0.66605009080E-01  0.11335322730E+00  0.13904592876E+00  0.44828897185E-01 0.  0.
         14    1    1    2    0    0  0.43161404494E-02  0.13337301480E-01 -0.57727129627E-03  0.14030178948E-01  0.00000000000E+00 0. -1.
     999901    1    3    3    0    0 -0.10557847562E-01 -0.79942310560E-01 -0.11277595600E+00  0.89085389229E+00  0.88000000000E+00 0. -1.
        -11    1    4    4    0    0 -0.11457718597E-01  0.25820177177E-01  0.75636053979E-01  0.80740539058E-01  0.51100000000E-03 0.  1.
         11    1    4    4    0    0  0.17699425710E-01  0.40784831903E-01  0.37717173321E-01  0.58305389700E-01  0.51100000000E-03 0. -1.
</event>
<event>
 8    1  0.2025822E+004  0.1043930E+01  0.7957747E-01            NaN
         13   -1    0    0    0    0  0.00000000000E+00  0.00000000000E+00  0.74505805969E-08  0.10566000000E+00  0.10566000000E+00 0. -1.
     999900   -1    0    0    0    0 -0.00000000000E+00 -0.00000000000E+00 -0.74505805969E-08  0.93827000000E+00  0.93827000000E+00 0.  1.
     999902    2    1    2    0    0 -0.42765468114E-02  0.58323975824E-02 -0.12194377145E-01  0.10297522517E+01  0.10296546466E+01 0.  0.
     999903    2    3    3    0    0  0.12767050273E+00 -0.89143133785E-02  0.28700622483E-01  0.13885389025E+00  0.45579105475E-01 0.  0.
         14    1    1    2    0    0  0.42765468114E-02 -0.58323975824E-02  0.12194377145E-01  0.14177748345E-01  0.00000000000E+00 0. -1.
     999901    1    3    3    0    0 -0.13194704954E+00  0.14746710961E-01 -0.40894999628E-01  0.89089836141E+00  0.88000000000E+00 0.  1.
        -11    1    4    4    0    0  0.87040356293E-01  0.10401928060E-01  0.32980054076E-01  0.93659857030E-01  0.51100000000E-03 0.  1.
         11    1    4    4    0    0  0.40630146434E-01 -0.19316241439E-01 -0.42794315928E-02  0.45194033216E-01  0.51100000000E-03 0. -1.
</event>
<event>
 8    1  0.2025822E+004  0.1043930E+01  0.7957747E-01            NaN
         13   -1    0    0    0    0  0.00000000000E+00  0.00000000000E+00  0.74505805969E-08  0.10566000000E+00  0.10566000000E+00 0. -1.
     999900   -1    0    0    0    0 -0.00000000000E+00 -0.00000000000E+00 -0.74505805969E-08  0.93827000000E+00  0.93827000000E+00 0. -1.
     999902    2    1    2    0    0 -0.52690261042E-02 -0.47501508748E-02  0.10302583064E-01  0.10314212116E+01  0.10313453573E+01 0.  0.
     999903    2    3    3    0    0 -0.68988870413E-01  0.99403828875E-01  0.57656816692E-01  0.14172986428E+00  0.46070169109E-01 0.  0.
         14    1    1    2    0    0  0.52690261042E-02  0.47501508748E-02 -0.10302583064E-01  0.12508788399E-01  0.00000000000E+00 0.  1.
     999901    1    3    3    0    0  0.63719844309E-01 -0.10415397975E+00 -0.47354233627E-01  0.88969134732E+00  0.88000000000E+00 0.  1.
        -11    1    4    4    0    0 -0.49597687131E-01  0.70093223506E-01  0.16206634851E-01  0.87383675160E-01  0.51100000000E-03 0. -1.
         11    1    4    4    0    0 -0.19391183282E-01  0.29310605368E-01  0.41450181841E-01  0.54346189119E-01  0.51100000000E-03 0.  1.
</event>
<event>
 8    1  0.2025822E+004  0.1043930E+01  0.7957747E-01            NaN
         13   -1    0    0    0    0  0.00000000000E+00  0.00000000000E+00  0.74505805969E-08  0.10566000000E+00  0.10566000000E+00 0. -1.
     999900   -1    0    0    0    0 -0.00000000000E+00 -0.00000000000E+00 -0.74505805969E-08  0.93827000000E+00  0.93827000000E+00 0.  1.
     999902    2    1    2    0    0 -0.20843421113E-02  0.77355946052E-02  0.11366017820E-01  0.10300242362E+01  0.10299303651E+01 0.  0.
     999903    2    3    3    0    0  0.46436144156E-01 -0.31051219627E-01  0.12153184064E+00  0.14098252566E+00  0.44559965526E-01 0.  0.
         14    1    1    2    0    0  0.20843421113E-02 -0.77355946052E-02 -0.11366017820E-01  0.13905763805E-01  0.00000000000E+00 0.  1.
     999901    1    3    3    0    0 -0.48520486267E-01  0.38786814232E-01 -0.11016582282E+00  0.88904171053E+00  0.88000000000E+00 0.  1.
        -11    1    4    4    0    0  0.23609444612E-01  0.13950194595E-02  0.16875961697E-01  0.29058753559E-01  0.51100000000E-03 0. -1.
         11    1    4    4    0    0  0.22826699544E-01 -0.32446239086E-01  0.10465587895E+00  0.11192377210E+00  0.51100000000E-03 0.  1.
</event>
<event>
 8    1  0.2025822E+004  0.1043930E+01  0.7957747E-01            NaN
         13   -1    0    0    0    0  0.00000000000E+00  0.00000000000E+00  0.74505805969E-08  0.10566000000E+00  0.10566000000E+00 0.  1.
     999900   -1    0    0    0    0 -0.00000000000E+00 -0.00000000000E+00 -0.74505805969E-08  0.93827000000E+00  0.93827000000E+00 0. -1.
     999902    2    1    2    0    0  0.28937979917E-02 -0.84439093827E-02 -0.10315467188E-01  0.10302887927E+01  0.10301984828E+01 0.  0.
     999903    2    3    3    0    0  0.13096529884E+00  0.11358775200E-01  0.19920449292E-01  0.14028392404E+00  0.44741745288E-01 0.  0.
         14    1    1    2    0    0 -0.28937979917E-02  0.84439093827E-02  0.10315467188E-01  0.13641207270E-01  0.00000000000E+00 0.  1.
     999901    1    3    3    0    0 -0.12807150084E+00 -0.19802684582E-01 -0.30235916480E-01  0.89000486869E+00  0.88000000000E+00 0. -1.
        -11    1    4    4    0    0  0.84066014812E-01  0.28737679264E-01  0.12600372270E-01  0.89732823193E-01  0.51100000000E-03 0.  1.
         11    1    4    4    0    0  0.46899284023E-01 -0.17378904064E-01  0.73200770226E-02  0.50551100848E-01  0.51100000000E-03 0. -1.
</event>
<event>
 8    1  0.2025822E+004  0.1043930E+01  0.7957747E-01            NaN
         13   -1    0    0    0    0  0.00000000000E+00  0.00000000000E+00  0.74505805969E-08  0.10566000000E+00  0.10566000000E+00 0. -1.
     999900   -1    0    0    0    0 -0.00000000000E+00 -0.00000000000E+00 -0.74505805969E-08  0.93827000000E+00  0.93827000000E+00 0. -1.
     999902    2    1    2    0    0  0.50211084403E-02 -0.11483239187E-01  0.96877121931E-02  0.10280892904E+01  0.10279672471E+01 0.  0.
     999903    2    3    3    0    0  0.12592440524E+00 -0.30915965692E-02  0.38754527439E-01  0.13930759249E+00  0.45146186161E-01 0.  0.
         14    1    1    2    0    0 -0.50211084403E-02  0.11483239187E-01 -0.96877121931E-02  0.15840709572E-01  0.00000000000E+00 0.  1.
     999901    1    3    3    0    0 -0.12090329680E+00 -0.83916426182E-02 -0.29066815246E-01  0.88878169794E+00  0.88000000000E+00 0. -1.
        -11    1    4    4    0    0  0.28975486856E-01 -0.38349234212E-02  0.30115881714E-01  0.41970381564E-01  0.51100000000E-03 0.  1.
         11    1    4    4    0    0  0.96948918380E-01  0.74332685207E-03  0.86386457246E-02  0.97337210926E-01  0.51100000000E-03 0. -1.
</event>
<event>
 8    1  0.2025822E+004  0.1043930E+01  0.7957747E-01            NaN
         13   -1    0    0    0    0  0.00000000000E+00  0.00000000000E+00  0.74505805969E-08  0.10566000000E+00  0.10566000000E+00 0.  1.
     999900   -1    0    0    0    0 -0.00000000000E+00 -0.00000000000E+00 -0.74505805969E-08  0.93827000000E+00  0.93827000000E+00 0.  1.
     999902    2    1    2    0    0  0.11390713570E-01  0.60586814267E-02 -0.46518810977E-02  0.10302151914E+01  0.10301238977E+01 0.  0.
     999903    2    3    3    0    0 -0.80528214238E-02  0.12432500617E+00  0.46633400746E-01  0.14061126004E+00  0.45555430993E-01 0.  0.
         14    1    1    2    0    0 -0.11390713570E-01 -0.60586814267E-02  0.46518810977E-02  0.13714808566E-01  0.00000000000E+00 0. -1.
     999901    1    3    3    0    0  0.19443534993E-01 -0.11826632474E+00 -0.51285281843E-01  0.88960393140E+00  0.88000000000E+00 0.  1.
        -11    1    4    4    0    0 -0.26027708419E-01  0.65278471662E-01  0.31756406516E-01  0.77119718256E-01  0.51100000000E-03 0.  1.
         11    1    4    4    0    0  0.17974886995E-01  0.59046534505E-01  0.14876994230E-01  0.63491541782E-01  0.51100000000E-03 0. -1.
</event>
<event>
 8    1  0.2025822E+004  0.1043930E+01  0.7957747E-01            NaN
         13   -1    0    0    0    0  0.00000000000E+00  0.00000000000E+00  0.74505805969E-08  0.10566000000E+00  0.10566000000E+00 0.  1.
     999900   -1    0    0    0    0 -0.00000000000E+00 -0.00000000000E+00 -0.74505805969E-08  0.93827000000E+00  0.93827000000E+00 0. -1.
     999902    2    1    2    0    0 -0.64624100978E-02 -0.15644604970E-01 -0.21981462412E-02  0.10268610734E+01  0.10267192001E+01 0.  0.
     999903    2    3    3    0    0  0.50553253186E-01 -0.10074399340E+00 -0.65217683291E-01  0.13868082489E+00  0.47686909772E-01 0.  0.
         14    1    1    2    0    0  0.64624100978E-02  0.15644604970E-01  0.21981462412E-02  0.17068926616E-01  0.00000000000E+00 0.  1.
     999901    1    3    3    0    0 -0.57015663284E-01  0.85099388429E-01  0.63019537050E-01  0.88818024850E+00  0.88000000000E+00 0.  1.
        -11    1    4    4    0    0  0.35077308770E-01 -0.52014141456E-01 -0.60789573496E-01  0.87358582113E-01  0.51100000000E-03 0. -1.
         11    1    4    4    0    0  0.15475944416E-01 -0.48729851943E-01 -0.44281097954E-02  0.51322242773E-01  0.51100000000E-03 0.  1.
</event>
<event>
 7    1  0.2025822E+004  0.1043930E+01  0.7957747E-01            NaN
         13   -1    0    0    0    0  0.00000000000E+00  0.00000000000E+00  0.74505805969E-08  0.10566000000E+00  0.10566000000E+00 0. -1.
     999900   -1    0    0    0    0 -0.00000000000E+00 -0.00000000000E+00 -0.74505805969E-08  0.93827000000E+00  0.93827000000E+00 0.  1.
     999902    2    1    2    0    0 -0.68762225782E-02  0.86609731119E-02 -0.80884862048E-02  0.10302289598E+01  0.10301378506E+01 0.  0.
         14    1    1    2    0    0  0.68762225782E-02 -0.86609731119E-02  0.80884862048E-02  0.13701040153E-01  0.00000000000E+00 0. -1.
     999901    1    3    3    0    0  0.10787022440E+00  0.52016986566E-01 -0.68978143790E-01  0.89078602174E+00  0.88000000000E+00 0. -1.
        -11    1    3    3    0    0 -0.59377328424E-01 -0.32653513920E-01  0.43086339310E-01  0.80303255589E-01  0.51100000000E-03 0. -1.
         11    1    3    3    0    0 -0.55369118556E-01 -0.10702499534E-01  0.17803318276E-01  0.59139682520E-01  0.51100000000E-03 0.  1.
</event>
<event>
 8    1  0.2025822E+004  0.1043930E+01  0.7957747E-01            NaN
         13   -1    0    0    0    0  0.00000000000E+00  0.00000000000E+00  0.74505805969E-08  0.10566000000E+00  0.10566000000E+00 0. -1.
     999900   -1    0    0    0    0 -0.00000000000E+00 -0.00000000000E+00 -0.74505805969E-08  0.93827000000E+00  0.93827000000E+00 0. -1.
     999902    2    1    2    0    0 -0.35042988489E-02 -0.10719927289E-01 -0.77804025287E-02  0.10302284813E+01  0.10301373656E+01 0.  0.
     999903    2    3    3    0    0 -0.12681243394E+00 -0.23059011108E-01  0.32811757844E-01  0.14061908798E+00  0.45650904233E-01 0.  0.
         14    1    1    2    0    0  0.35042988489E-02  0.10719927289E-01  0.77804025287E-02  0.13701518712E-01  0.00000000000E+00 0.  1.
     999901    1    3    3    0    0  0.12330813509E+00  0.12339083818E-01 -0.40592160373E-01  0.88960939330E+00  0.88000000000E+00 0. -1.
        -11    1    4    4    0    0 -0.38427518096E-01  0.70573927565E-02  0.26126713308E-01  0.47003693565E-01  0.51100000000E-03 0. -1.
         11    1    4    4    0    0 -0.88384915846E-01 -0.30116403864E-01  0.66850445359E-02  0.93615394419E-01  0.51100000000E-03 0.  1.
</event>
<event>
 8    1  0.2025822E+004  0.1043930E+01  0.7957747E-01            NaN
         13   -1    0    0    0    0  0.00000000000E+00  0.00000000000E+00  0.74505805969E-08  0.10566000000E+00  0.10566000000E+00 0.  1.
     999900   -1    0    0    0    0 -0.00000000000E+00 -0.00000000000E+00 -0.74505805969E-08  0.93827000000E+00  0.93827000000E+00 0. -1.
     999902    2    1    2    0    0  0.27833966275E-02 -0.54097883637E-02 -0.10361444432E-01  0.10319144835E+01  0.10318445273E+01 0.  0.
     999903    2    3    3    0    0  0.39204528685E-01 -0.56145917027E-01 -0.11748215151E+00  0.14322134211E+00  0.44954842271E-01 0.  0.
         14    1    1    2    0    0 -0.27833966275E-02  0.54097883637E-02  0.10361444432E-01  0.12015516536E-01  0.00000000000E+00 0.  1.
     999901    1    3    3    0    0 -0.36421132058E-01  0.50736128664E-01  0.10712070708E+00  0.88869314136E+00  0.88000000000E+00 0.  1.
        -11    1    4    4    0    0  0.19647875253E-01 -0.15521963936E-01 -0.82311812422E-01  0.86037584529E-01  0.51100000000E-03 0.  1.
         11    1    4    4    0    0  0.19556653433E-01 -0.40623953092E-01 -0.35170339085E-01  0.57183757577E-01  0.51100000000E-03 0. -1.
</event>
<event>
 8    1  0.2025822E+004  0.1043930E+01  0.7957747E-01            NaN
         13   -1    0    0    0    0  0.00000000000E+00  0.00000000000E+00  0.74505805969E-08  0.10566000000E+00  0.10566000000E+00 0. -1.
     999900   -1    0    0    0    0 -0.00000000000E+00 -0.00000000000E+00 -0.74505805969E-08  0.93827000000E+00  0.93827000000E+00 0. -1.
     999902    2    1    2    0    0 -0.33618667080E-02 -0.42872804895E-02 -0.14846448054E-01  0.10281154516E+01  0.10279938141E+01 0.  0.
     999903    2    3    3    0    0  0.11336883492E+00 -0.24048642536E-01 -0.63013452725E-01  0.13888172051E+00  0.43435090989E-01 0.  0.
         14    1    1    2    0    0  0.33618667080E-02  0.42872804895E-02  0.14846448054E-01  0.15814548415E-01  0.00000000000E+00 0. -1.
     999901    1    3    3    0    0 -0.11673070163E+00  0.19761362046E-01  0.48167004671E-01  0.88923373107E+00  0.88000000000E+00 0. -1.
        -11    1    4    4    0    0  0.35285445803E-01 -0.36614534033E-02  0.15778963928E-02  0.35513656592E-01  0.51100000000E-03 0.  1.
         11    1    4    4    0    0  0.78083389120E-01 -0.20387189133E-01 -0.64591349118E-01  0.10336806392E+00  0.51100000000E-03 0. -1.
</event>
<event>
 8    1  0.2025822E+004  0.1043930E+01  0.7957747E-01            NaN
         13   -1    0    0    0    0  0.00000000000E+00  0.00000000000E+00  0.74505805969E-08  0.10566000000E+00  0.10566000000E+00 0. -1.
     999900   -1    0    0    0    0 -0.00000000000E+00 -0.00000000000E+00 -0.74505805969E-08  0.93827000000E+00  0.93827000000E+00 0.  1.
     999902    2    1    2    0    0 -0.11758398597E-01  0.29284139491E-02 -0.38947086874E-02  0.10312019090E+01  0.10311233548E+01 0.  0.
     999903    2    3    3    0    0  0.53713632127E-01 -0.69601326457E-01 -0.97532634786E-01  0.14085635174E+00  0.50974484371E-01 0.  0.
         14    1    1    2    0    0  0.11758398597E-01 -0.29284139491E-02  0.38947086874E-02  0.12728091042E-01  0.00000000000E+00 0. -1.
     999901    1    3    3    0    0 -0.65472030723E-01  0.72529740406E-01  0.93637926098E-01  0.89034555722E+00  0.88000000000E+00 0. -1.
        -11    1    4    4    0    0  0.24576940854E-01 -0.53628252277E-01 -0.31367461170E-01  0.66814625684E-01  0.51100000000E-03 0. -1.
         11    1    4    4    0    0  0.29136691273E-01 -0.15973074181E-01 -0.66165173616E-01  0.74041726058E-01  0.51100000000E-03 0.  1.
</event>
<event>
 8    1  0.2025822E+004  0.1043930E+01  0.7957747E-01            NaN
         13   -1    0    0    0    0  0.00000000000E+00  0.00000000000E+00  0.74505805969E-08  0.10566000000E+00  0.10566000000E+00 0. -1.
     999900   -1    0    0    0    0 -0.00000000000E+00 -0.00000000000E+00 -0.74505805969E-08  0.93827000000E+00  0.93827000000E+00 0. -1.
     999902    2    1    2    0    0 -0.26437067769E-02 -0.11582603650E-01  0.57524117304E-02  0.10307301465E+01  0.10306456223E+01 0.  0.
     999903    2    3    3    0    0  0.35830089018E-01 -0.98466978955E-01  0.84448276427E-01  0.14212327795E+00  0.45694348895E-01 0.  0.
         14    1    1    2    0    0  0.26437067769E-02  0.11582603650E-01 -0.57524117304E-02  0.13199853543E-01  0.00000000000E+00 0.  1.
     999901    1    3    3    0    0 -0.38473795795E-01  0.86884375305E-01 -0.78695864696E-01  0.88860686851E+00  0.88000000000E+00 0. -1.
        -11    1    4    4    0    0  0.16920547205E-01 -0.51830995987E-01  0.71935243754E-01  0.90264597034E-01  0.51100000000E-03 0.  1.
         11    1    4    4    0    0  0.18909541812E-01 -0.46635982967E-01  0.12513032672E-01  0.51858680918E-01  0.51100000000E-03 0. -1.
</event>
<event>
 8    1  0.2025822E+004  0.1043930E+01  0.7957747E-01            NaN
         13   -1    0    0    0    0  0.00000000000E+00  0.00000000000E+00  0.74505805969E-08  0.10566000000E+00  0.10566000000E+00 0.  1.
     999900   -1    0    0    0    0 -0.00000000000E+00 -0.00000000000E+00 -0.74505805969E-08  0.93827000000E+00  0.93827000000E+00 0.  1.
     999902    2    1    2    0    0 -0.39795170564E-02 -0.63471295075E-02  0.96818141231E-02  0.10316882626E+01  0.10316156315E+01 0.  0.
     999903    2    3    3    0    0  0.42422467088E-01 -0.70282733364E-01 -0.10496245791E+00  0.14074257704E+00  0.45299305712E-01 0.  0.
         14    1    1    2    0    0  0.39795170564E-02  0.63471295075E-02 -0.96818141231E-02  0.12241737364E-01  0.00000000000E+00 0. -1.
     999901    1    3    3    0    0 -0.46401984145E-01  0.63935603857E-01  0.11464427203E+00  0.89094568560E+00  0.88000000000E+00 0. -1.
        -11    1    4    4    0    0  0.46890183632E-01 -0.59412496127E-01 -0.67287921154E-01  0.10127417969E+00  0.51100000000E-03 0. -1.
         11    1    4    4    0    0 -0.44677165439E-02 -0.10870237237E-01 -0.37674536756E-01  0.39468397352E-01  0.51100000000E-03 0.  1.
</event>
<event>
 8    1  0.2025822E+004  0.1043930E+01  0.7957747E-01            NaN
         13   -1    0    0    0    0  0.00000000000E+00  0.00000000000E+00  0.74505805969E-08  0.10566000000E+00  0.10566000000E+00 0. -1.
     999900   -1    0    0    0    0 -0.00000000000E+00 -0.00000000000E+00 -0.74505805969E-08  0.93827000000E+00  0.93827000000E+00 0. -1.
     999902    2    1    2    0    0 -0.12473034657E-01 -0.19691768034E-02 -0.75648863588E-02  0.10292098860E+01  0.10291046145E+01 0.  0.
     999903    2    3    3    0    0 -0.90408310004E-01  0.95591689018E-01  0.11411588878E-01  0.14019237419E+00  0.47034496828E-01 0.  0.
         14    1    1    2    0    0  0.12473034657E-01  0.19691768034E-02  0.75648863588E-02  0.14720114010E-01  0.00000000000E+00 0. -1.
     999901    1    3    3    0    0  0.77935275347E-01 -0.97560865822E-01 -0.18976475237E-01  0.88901751180E+00  0.88000000000E+00 0. -1.
        -11    1    4    4    0    0 -0.27998668827E-01  0.63784828925E-01  0.67710850203E-02  0.69989560438E-01  0.51100000000E-03 0. -1.
         11    1    4    4    0    0 -0.62409641177E-01  0.31806860094E-01  0.46405038582E-02  0.70202813747E-01  0.51100000000E-03 0.  1.
</event>
<event>
 8    1  0.2025822E+004  0.1043930E+01  0.7957747E-01            NaN
         13   -1    0    0    0    0  0.00000000000E+00  0.00000000000E+00  0.74505805969E-08  0.10566000000E+00  0.10566000000E+00 0.  1.
     999900   -1    0    0    0    0 -0.00000000000E+00 -0.00000000000E+00 -0.74505805969E-08  0.93827000000E+00  0.93827000000E+00 0. -1.
     999902    2    1    2    0    0 -0.40176708070E-02  0.13839667542E-01  0.47065799047E-02  0.10287698558E+01  0.10286581484E+01 0.  0.
     999903    2    3    3    0    0 -0.18087954837E-01 -0.12763778248E+00 -0.11086471020E-01  0.13721881288E+00  0.45689332896E-01 0.  0.
         14    1    1    2    0    0  0.40176708070E-02 -0.13839667542E-01 -0.47065799047E-02  0.15160144155E-01  0.00000000000E+00 0. -1.
     999901    1    3    3    0    0  0.14070284030E-01  0.14147745003E+00  0.15793050925E-01  0.89155104297E+00  0.88000000000E+00 0.  1.
        -11    1    4    4    0    0  0.11661336707E-01 -0.67197575206E-01 -0.14643321366E-01  0.69758073862E-01  0.51100000000E-03 0. -1.
         11    1    4    4    0    0 -0.29749291544E-01 -0.60440207278E-01  0.35568503464E-02  0.67460739016E-01  0.51100000000E-03 0.  1.
</event>
<event>
 8    1  0.2025822E+004  0.1043930E+01  0.7957747E-01            NaN
         13   -1    0    0    0    0  0.00000000000E+00  0.00000000000E+00  0.74505805969E-08  0.10566000000E+00  0.10566000000E+00 0.  1.
     999900   -1    0    0    0    0 -0.00000000000E+00 -0.00000000000E+00 -0.74505805969E-08  0.93827000000E+00  0.93827000000E+00 0.  1.
     999902    2    1    2    0    0 -0.16425157976E-02 -0.12703312973E-01 -0.31490864042E-02  0.10307395200E+01  0.10306551165E+01 0.  0.
     999903    2    3    3    0    0 -0.72701505038E-02 -0.99079525435E-01  0.89584011344E-01  0.14164337905E+00  0.46561188684E-01 0.  0.
         14    1    1    2    0    0  0.16425157976E-02  0.12703312973E-01  0.31490864042E-02  0.13190480045E-01  0.00000000000E+00 0.  1.
     999901    1    3    3    0    0  0.56276347062E-02  0.86376212462E-01 -0.92733097748E-01  0.88909614090E+00  0.88000000000E+00 0.  1.
        -11    1    4    4    0    0 -0.86308280166E-02 -0.73995276829E-01  0.36600459881E-01  0.83003897317E-01  0.51100000000E-03 0.  1.
         11    1    4    4    0    0  0.13606775128E-02 -0.25084248606E-01  0.52983551463E-01  0.58639481734E-01  0.51100000000E-03 0. -1.
</event>
<event>
 8    1  0.2025822E+004  0.1043930E+01  0.7957747E-01            NaN
         13   -1    0    0    0    0  0.00000000000E+00  0.00000000000E+00  0.74505805969E-08  0.10566000000E+00  0.10566000000E+00 0.  1.
     999900   -1    0    0    0    0 -0.00000000000E+00 -0.00000000000E+00 -0.74505805969E-08  0.93827000000E+00  0.93827000000E+00 0. -1.
     999902    2    1    2    0    0  0.25906861176E-02  0.11467886648E-01  0.69492091071E-02  0.10302729291E+01  0.10301824075E+01 0.  0.
     999903    2    3    3    0    0  0.16861057898E-01 -0.12638148142E+00  0.33217757159E-01  0.13904000308E+00  0.44408658451E-01 0.  0.
         14    1    1    2    0    0 -0.25906861176E-02 -0.11467886648E-01 -0.69492091071E-02  0.13657070914E-01  0.00000000000E+00 0.  1.
     999901    1    3    3    0    0 -0.14270371781E-01  0.13784936807E+00 -0.26268548052E-01  0.89123292601E+00  0.88000000000E+00 0. -1.
        -11    1    4    4    0    0  0.10476933985E-01 -0.23686547212E-01 -0.95525652157E-02  0.27610347476E-01  0.51100000000E-03 0. -1.
         11    1    4    4    0    0  0.63841239131E-02 -0.10269493421E+00  0.42770322374E-01  0.11142965560E+00  0.51100000000E-03 0.  1.
</event>
<event>
 8    1  0.2025822E+004  0.1043930E+01  0.7957747E-01            NaN
         13   -1    0    0    0    0  0.00000000000E+00  0.00000000000E+00  0.74505805969E-08  0.10566000000E+00  0.10566000000E+00 0. -1.
     999900   -1    0    0    0    0 -0.00000000000E+00 -0.00000000000E+00 -0.74505805969E-08  0.93827000000E+00  0.93827000000E+00 0.  1.
     999902    2    1    2    0    0  0.11623987963E-01  0.68174052575E-02 -0.50411802183E-02  0.10295422410E+01  0.10294417023E+01 0.  0.
     999903    2    3    3    0    0 -0.12657201254E+00 -0.24434528376E-01 -0.20662321925E-01  0.13807219778E+00  0.44938621690E-01 0.  0.
         14    1    1    2    0    0 -0.11623987963E-01 -0.68174052575E-02  0.50411802183E-02  0.14387758985E-01  0.00000000000E+00 0. -1.
     999901    1    3    3    0    0  0.13819600050E+00  0.31251933633E-01  0.15621141707E-01  0.89147004323E+00  0.88000000000E+00 0.  1.
        -11    1    4    4    0    0 -0.27658852414E-01 -0.24517491878E-01 -0.11606915934E-01  0.38744046554E-01  0.51100000000E-03 0. -1.
         11    1    4    4    0    0 -0.98913160122E-01  0.82963502364E-04 -0.90554059903E-02  0.99328151231E-01  0.51100000000E-03 0.  1.
</event>
<event>
 8    1  0.2025822E+004  0.1043930E+01  0.7957747E-01            NaN
         13   -1    0    0    0    0  0.00000000000E+00  0.00000000000E+00  0.74505805969E-08  0.10566000000E+00  0.10566000000E+00 0. -1.
     999900   -1    0    0    0    0 -0.00000000000E+00 -0.00000000000E+00 -0.74505805969E-08  0.93827000000E+00  0.93827000000E+00 0. -1.
     999902    2    1    2    0    0 -0.23409052249E-02  0.92669230533E-02 -0.64507128625E-02  0.10323988510E+01  0.10323344517E+01 0.  0.
     999903    2    3    3    0    0  0.90011133312E-01 -0.96916122237E-01  0.17724006119E-01  0.14088993062E+00  0.45178460444E-01 0.  0.
         14    1    1    2    0    0  0.23409052249E-02 -0.92669230533E-02  0.64507128625E-02  0.11531148971E-01  0.00000000000E+00 0. -1.
     999901    1    3    3    0    0 -0.92352038537E-01  0.10618304529E+00 -0.24174718982E-01  0.89150892041E+00  0.88000000000E+00 0. -1.
        -11    1    4    4    0    0  0.22861595548E-01 -0.24958313260E-02 -0.29639380692E-02  0.23193270035E-01  0.51100000000E-03 0. -1.
         11    1    4    4    0    0  0.67149537764E-01 -0.94420290911E-01  0.20687944188E-01  0.11769666059E+00  0.51100000000E-03 0.  1.
</event>
<event>
 8    1  0.2025822E+004  0.1043930E+01  0.7957747E-01            NaN
         13   -1    0    0    0    0  0.00000000000E+00  0.00000000000E+00  0.74505805969E-08  0.10566000000E+00  0.10566000000E+00 0. -1.
     999900   -1    0    0    0    0 -0.00000000000E+00 -0.00000000000E+00 -0.74505805969E-08  0.93827000000E+00  0.93827000000E+00 0. -1.
     999902    2    1    2    0    0  0.76009693556E-02  0.10978473049E-01  0.13197783938E-02  0.10305119740E+01  0.10304246140E+01 0.  0.
     999903    2    3    3    0    0  0.57757518503E-01 -0.10136199084E+00  0.61251728564E-01  0.13993469053E+00  0.47114320870E-01 0.  0.
         14    1    1    2    0    0 -0.76009693556E-02 -0.10978473049E-01 -0.13197783938E-02  0.13418025959E-01  0.00000000000E+00 0. -1.
     999901    1    3    3    0    0 -0.50156549147E-01  0.11234046389E+00 -0.59931950170E-01  0.89057728351E+00  0.88000000000E+00 0. -1.
        -11    1    4    4    0    0  0.16585900256E-01 -0.17634134160E-01  0.35802301513E-01  0.43221761759E-01  0.51100000000E-03 0.  1.
         11    1    4    4    0    0  0.41171618247E-01 -0.83727856683E-01  0.25449427050E-01  0.96712928774E-01  0.51100000000E-03 0. -1.
</event>
<event>
 8    1  0.2025822E+004  0.1043930E+01  0.7957747E-01            NaN
         13   -1    0    0    0    0  0.00000000000E+00  0.00000000000E+00  0.74505805969E-08  0.10566000000E+00  0.10566000000E+00 0. -1.
     999900   -1    0    0    0    0 -0.00000000000E+00 -0.00000000000E+00 -0.74505805969E-08  0.93827000000E+00  0.93827000000E+00 0.  1.
     999902    2    1    2    0    0  0.14187673844E-01  0.49891512768E-02  0.96321395774E-02  0.10260705534E+01  0.10259151138E+01 0.  0.
     999903    2    3    3    0    0 -0.59806686300E-01  0.11322605286E+00  0.15738211286E-01  0.13633594337E+00  0.44077424929E-01 0.  0.
         14    1    1    2    0    0 -0.14187673844E-01 -0.49891512768E-02 -0.96321395774E-02  0.17859446587E-01  0.00000000000E+00 0.  1.
     999901    1    3    3    0    0  0.73994360144E-01 -0.10823690158E+00 -0.61060717087E-02  0.88973461004E+00  0.88000000000E+00 0.  1.
        -11    1    4    4    0    0 -0.72183187075E-02  0.32653389615E-01 -0.13054454540E-01  0.35903034449E-01  0.51100000000E-03 0.  1.
         11    1    4    4    0    0 -0.52588367593E-01  0.80572663242E-01  0.28792665826E-01  0.10043290892E+00  0.51100000000E-03 0. -1.
</event>
<event>
 8    1  0.2025822E+004  0.1043930E+01  0.7957747E-01            NaN
         13   -1    0    0    0    0  0.00000000000E+00  0.00000000000E+00  0.74505805969E-08  0.10566000000E+00  0.10566000000E+00 0.  1.
     999900   -1    0    0    0    0 -0.00000000000E+00 -0.00000000000E+00 -0.74505805969E-08  0.93827000000E+00  0.93827000000E+00 0.  1.
     999902    2    1    2    0    0  0.10677428183E-01  0.72015567964E-02 -0.52566039945E-02  0.10300195083E+01  0.10299255729E+01 0.  0.
     999903    2    3    3    0    0 -0.10431983173E-01 -0.10485231779E+00 -0.79908249718E-01  0.13952832574E+00  0.44497084092E-01 0.  0.
         14    1    1    2    0    0 -0.10677428183E-01 -0.72015567964E-02  0.52566039945E-02  0.13910491668E-01  0.00000000000E+00 0. -1.
     999901    1    3    3    0    0  0.21109411356E-01  0.11205387459E+00  0.74651645724E-01  0.89049118259E+00  0.88000000000E+00 0.  1.
        -11    1    4    4    0    0 -0.13484879599E-01 -0.11134647206E-01 -0.19844208019E-02  0.17607424375E-01  0.51100000000E-03 0.  1.
         11    1    4    4    0    0  0.30528964265E-02 -0.93717670585E-01 -0.77923828916E-01  0.12192090137E+00  0.51100000000E-03 0. -1.
</event>
<event>
 8    1  0.2025822E+004  0.1043930E+01  0.7957747E-01            NaN
         13   -1    0    0    0    0  0.00000000000E+00  0.00000000000E+00  0.74505805969E-08  0.10566000000E+00  0.10566000000E+00 0.  1.
     999900   -1    0    0    0    0 -0.00000000000E+00 -0.00000000000E+00 -0.74505805969E-08  0.93827000000E+00  0.93827000000E+00 0. -1.
     999902    2    1    2    0    0  0.14406510230E-01  0.58645297117E-02  0.67753500077E-03  0.10283608221E+01  0.10282429583E+01 0.  0.
     999903    2    3    3    0    0  0.18521906449E-01 -0.12228669848E+00  0.44069246320E-01  0.13801116364E+00  0.42519233002E-01 0.  0.
         14    1    1    2    0    0 -0.14406510230E-01 -0.58645297117E-02 -0.67753500077E-03  0.15569177866E-01  0.00000000000E+00 0. -1.
     999901    1    3    3    0    0 -0.41153962192E-02  0.12815122819E+00 -0.43391711320E-01  0.89034965850E+00  0.88000000000E+00 0. -1.
        -11    1    4    4    0    0  0.24549213899E-01 -0.55427332936E-01  0.35714652232E-01  0.70360860175E-01  0.51100000000E-03 0. -1.
         11    1    4    4    0    0 -0.60273074494E-02 -0.66859365539E-01  0.83545940884E-02  0.67650303464E-01  0.51100000000E-03 0.  1.
</event>
<event>
 8    1  0.2025822E+004  0.1043930E+01  0.7957747E-01            NaN
         13   -1    0    0    0    0  0.00000000000E+00  0.00000000000E+00  0.74505805969E-08  0.10566000000E+00  0.10566000000E+00 0. -1.
     999900   -1    0    0    0    0 -0.00000000000E+00 -0.00000000000E+00 -0.74505805969E-08  0.93827000000E+00  0.93827000000E+00 0. -1.
     999902    2    1    2    0    0 -0.15342197924E-01  0.12231975757E-02  0.15422399366E-02  0.10284620411E+01  0.10283457163E+01 0.  0.
     999903    2    3    3    0    0 -0.62264730456E-01 -0.26978028256E-01  0.11410247604E+00  0.13960499972E+00  0.43191089853E-01 0.  0.
         14    1    1    2    0    0  0.15342197924E-01 -0.12231975757E-02 -0.15422399366E-02  0.15467958931E-01  0.00000000000E+00 0. -1.
     999901    1    3    3    0    0  0.46922532532E-01  0.28201225832E-01 -0.11256023610E+00  0.88885704135E+00  0.88000000000E+00 0. -1.
        -11    1    4    4    0    0 -0.12928691013E-01 -0.27603985351E-01  0.35444893515E-01  0.46751819813E-01  0.51100000000E-03 0. -1.
         11    1    4    4    0    0 -0.49336039443E-01  0.62595709492E-03  0.78657582523E-01  0.92853179911E-01  0.51100000000E-03 0.  1.
</event>
<event>
 8    1  0.2450255E+004  0.1043930E+01  0.7957747E-01            NaN
         13   -1    0    0    0    0  0.00000000000E+00  0.00000000000E+00  0.74505805969E-08  0.10566000000E+00  0.10566000000E+00 0.  1.
     999900   -1    0    0    0    0 -0.00000000000E+00 -0.00000000000E+00 -0.74505805969E-08  0.93827000000E+00  0.93827000000E+00 0.  1.
     999902    2    1    2    0    0 -0.14848282231E-01  0.48214563962E-02  0.86693133411E-02  0.10260729308E+01  0.10259175329E+01 0.  0.
     999903    2    3    3    0    0 -0.12361195322E+00  0.39830081932E-01 -0.16009446299E-01  0.13834314016E+00  0.44901800109E-01 0.  0.
         14    1    1    2    0    0  0.14848282231E-01 -0.48214563962E-02 -0.86693133411E-02  0.17857069211E-01  0.00000000000E+00 0. -1.
     999901    1    3    3    0    0  0.10876367099E+00 -0.35008625536E-01  0.24678759641E-01  0.88772979063E+00  0.88000000000E+00 0. -1.
        -11    1    4    4    0    0 -0.65623376339E-01  0.44348512692E-01 -0.10915810765E-01  0.79953950158E-01  0.51100000000E-03 0. -1.
         11    1    4    4    0    0 -0.57988576883E-01 -0.45184307597E-02 -0.50936355347E-02  0.58389190005E-01  0.51100000000E-03 0.  1.
</event>
<event>
 8    1  0.2025822E+004  0.1043930E+01  0.7957747E-01            NaN
         13   -1    0    0    0    0  0.00000000000E+00  0.00000000000E+00  0.74505805969E-08  0.10566000000E+00  0.10566000000E+00 0. -1.
     999900   -1    0    0    0    0 -0.00000000000E+00 -0.00000000000E+00 -0.74505805969E-08  0.93827000000E+00  0.93827000000E+00 0.  1.
     999902    2    1    2    0    0 -0.68776499190E-02 -0.12496437926E-01 -0.18781071939E-02  0.10295428420E+01  0.10294423117E+01 0.  0.
     999903    2    3    3    0    0  0.28177724703E-01 -0.18124701147E-01  0.12751237739E+00  0.13937294014E+00  0.45198684657E-01 0.  0.
         14    1    1    2    0    0  0.68776499190E-02  0.12496437926E-01  0.18781071939E-02  0.14387158020E-01  0.00000000000E+00 0. -1.
     999901    1    3    3    0    0 -0.35055374622E-01  0.56282632213E-02 -0.12939048459E+00  0.89016990184E+00  0.88000000000E+00 0.  1.
        -11    1    4    4    0    0  0.43899281334E-02  0.14893589014E-01  0.33273657542E-01  0.36721762893E-01  0.51100000000E-03 0.  1.
         11    1    4    4    0    0  0.23787796570E-01 -0.33018290161E-01  0.94238719850E-01  0.10265117725E+00  0.51100000000E-03 0. -1.
</event>
<event>
 8    1  0.2025822E+004  0.1043930E+01  0.7957747E-01            NaN
         13   -1    0    0    0    0  0.00000000000E+00  0.00000000000E+00  0.74505805969E-08  0.10566000000E+00  0.10566000000E+00 0.  1.
     999900   -1    0    0    0    0 -0.00000000000E+00 -0.00000000000E+00 -0.74505805969E-08  0.93827000000E+00  0.93827000000E+00 0. -1.
     999902    2    1    2    0    0  0.11186302661E-01  0.10034781542E-02  0.88279113400E-02  0.10296446105E+01  0.10295455073E+01 0.  0.
     999903    2    3    3    0    0 -0.11293720686E+00 -0.30203737662E-01  0.61326905182E-01  0.13883785235E+00  0.42986992033E-01 0.  0.
         14    1    1    2    0    0 -0.11186302661E-01 -0.10034781542E-02 -0.88279113400E-02  0.14285389538E-01  0.00000000000E+00 0. -1.
     999901    1    3    3    0    0  0.12412350953E+00  0.31207215816E-01 -0.52498993842E-01  0.89080675811E+00  0.88000000000E+00 0. -1.
        -11    1    4    4    0    0 -0.11254943004E+00 -0.21730275576E-01  0.61984586304E-01  0.13031473109E+00  0.51100000000E-03 0.  1.
         11    1    4    4    0    0 -0.38777682308E-03 -0.84734620866E-02 -0.65768112199E-03  0.85231212625E-02  0.51100000000E-03 0. -1.
</event>
<event>
 8    1  0.2025822E+004  0.1043930E+01  0.7957747E-01            NaN
         13   -1    0    0    0    0  0.00000000000E+00  0.00000000000E+00  0.74505805969E-08  0.10566000000E+00  0.10566000000E+00 0.  1.
     999900   -1    0    0    0    0 -0.00000000000E+00 -0.00000000000E+00 -0.74505805969E-08  0.93827000000E+00  0.93827000000E+00 0.  1.
     999902    2    1    2    0    0 -0.99044192969E-02 -0.66161674792E-02 -0.42131951771E-02  0.10312958318E+01  0.10312184397E+01 0.  0.
     999903    2    3    3    0    0  0.99067831193E-01 -0.85076957141E-01  0.26765455635E-01  0.14057100124E+00  0.44623905696E-01 0.  0.
         14    1    1    2    0    0  0.99044192969E-02  0.66161674792E-02  0.42131951771E-02  0.12634168248E-01  0.00000000000E+00 0. -1.
     999901    1    3    3    0    0 -0.10897225049E+00  0.78460789662E-01 -0.30978650812E-01  0.89072483052E+00  0.88000000000E+00 0. -1.
        -11    1    4    4    0    0  0.25383394587E-01 -0.41816199676E-01 -0.55151179406E-02  0.49229959608E-01  0.51100000000E-03 0. -1.
         11    1    4    4    0    0  0.73684436605E-01 -0.43260757465E-01  0.32280573575E-01  0.91341041628E-01  0.51100000000E-03 0.  1.
</event>
<event>
 8    1  0.2025822E+004  0.1043930E+01  0.7957747E-01            NaN
         13   -1    0    0    0    0  0.00000000000E+00  0.00000000000E+00  0.74505805969E-08  0.10566000000E+00  0.10566000000E+00 0. -1.
     999900   -1    0    0    0    0 -0.00000000000E+00 -0.00000000000E+00 -0.74505805969E-08  0.93827000000E+00  0.93827000000E+00 0. -1.
     999902    2    1    2    0    0 -0.14350692187E-01 -0.17833672388E-01 -0.55990318856E-02  0.10203645296E+01  0.10200923693E+01 0.  0.
     999903    2    3    3    0    0  0.26168001787E-01  0.73574984578E-01 -0.93744688812E-01  0.13032691019E+00  0.45814781090E-01 0.  0.
         14    1    1    2    0    0  0.14350692187E-01  0.17833672388E-01  0.55990318856E-02  0.23565470400E-01  0.00000000000E+00 0. -1.
     999901    1    3    3    0    0 -0.40518693974E-01 -0.91408656966E-01  0.88145656926E-01  0.89003761941E+00  0.88000000000E+00 0. -1.
        -11    1    4    4    0    0  0.30357224121E-01  0.72185744061E-01 -0.66542719500E-01  0.10276447510E+00  0.51100000000E-03 0. -1.
         11    1    4    4    0    0 -0.41892223347E-02  0.13892405162E-02 -0.27201969311E-01  0.27562435095E-01  0.51100000000E-03 0.  1.
</event>
<event>
 8    1  0.2025822E+004  0.1043930E+01  0.7957747E-01            NaN
         13   -1    0    0    0    0  0.00000000000E+00  0.00000000000E+00  0.74505805969E-08  0.10566000000E+00  0.10566000000E+00 0. -1.
     999900   -1    0    0    0    0 -0.00000000000E+00 -0.00000000000E+00 -0.74505805969E-08  0.93827000000E+00  0.93827000000E+00 0.  1.
     999902    2    1    2    0    0  0.12665729435E-01 -0.11345643299E-01  0.78460382542E-02  0.10252028902E+01  0.10250318344E+01 0.  0.
     999903    2    3    3    0    0 -0.75906388412E-02  0.10747546170E+00  0.68840192339E-01  0.13489448171E+00  0.42999493604E-01 0.  0.
         14    1    1    2    0    0 -0.12665729435E-01  0.11345643299E-01 -0.78460382542E-02  0.18727109768E-01  0.00000000000E+00 0. -1.
     999901    1    3    3    0    0  0.20256368276E-01 -0.11882110500E+00 -0.60994154085E-01  0.89030840852E+00  0.88000000000E+00 0.  1.
        -11    1    4    4    0    0  0.41455586829E-02  0.91945734956E-01  0.40613426976E-01  0.10060276043E+00  0.51100000000E-03 0.  1.
         11    1    4    4    0    0 -0.11736197524E-01  0.15529726740E-01  0.28226765363E-01  0.34291721287E-01  0.51100000000E-03 0. -1.
</event>
<event>
 8    1  0.2025822E+004  0.1043930E+01  0.7957747E-01            NaN
         13   -1    0    0    0    0  0.00000000000E+00  0.00000000000E+00  0.74505805969E-08  0.10566000000E+00  0.10566000000E+00 0.  1.
     999900   -1    0    0    0    0 -0.00000000000E+00 -0.00000000000E+00 -0.74505805969E-08  0.93827000000E+00  0.93827000000E+00 0.  1.
     999902    2    1    2    0    0 -0.21948936876E-02  0.10751765810E-01 -0.75622140882E-02  0.10306031433E+01  0.10305169741E+01 0.  0.
     999903    2    3    3    0    0 -0.90147710932E-01  0.23175781614E-01  0.94782235073E-01  0.14022994041E+00  0.44911440223E-01 0.  0.
         14    1    1    2    0    0  0.21948936876E-02 -0.10751765810E-01  0.75622140882E-02  0.13326856653E-01  0.00000000000E+00 0.  1.
     999901    1    3    3    0    0  0.87952817245E-01 -0.12424015803E-01 -0.10234444916E+00  0.89037320293E+00  0.88000000000E+00 0.  1.
        -11    1    4    4    0    0 -0.60523430581E-01  0.19975289415E-01  0.33312468907E-01  0.71917171400E-01  0.51100000000E-03 0.  1.
         11    1    4    4    0    0 -0.29624280351E-01  0.32004921983E-02  0.61469766166E-01  0.68312769012E-01  0.51100000000E-03 0. -1.
</event>
<event>
 8    1  0.2076396E+004  0.1043930E+01  0.7957747E-01            NaN
         13   -1    0    0    0    0  0.00000000000E+00  0.00000000000E+00  0.74505805969E-08  0.10566000000E+00  0.10566000000E+00 0.  1.
     999900   -1    0    0    0    0 -0.00000000000E+00 -0.00000000000E+00 -0.74505805969E-08  0.93827000000E+00  0.93827000000E+00 0.  1.
     999902    2    1    2    0    0 -0.24394148365E-02  0.58243761018E-02 -0.13242186668E-01  0.10292592942E+01  0.10291547333E+01 0.  0.
     999903    2    3    3    0    0  0.46904332317E-01  0.79756342930E-01  0.92748766550E-01  0.13845357839E+00  0.44788045788E-01 0.  0.
         14    1    1    2    0    0  0.24394148365E-02 -0.58243761018E-02  0.13242186668E-01  0.14670705827E-01  0.00000000000E+00 0.  1.
     999901    1    3    3    0    0 -0.49343747154E-01 -0.73931966828E-01 -0.10599095322E+00  0.89080571578E+00  0.88000000000E+00 0.  1.
        -11    1    4    4    0    0  0.36112789458E-01  0.19692358755E-01  0.44976632306E-01  0.60951465367E-01  0.51100000000E-03 0.  1.
         11    1    4    4    0    0  0.10791542859E-01  0.60063984175E-01  0.47772134244E-01  0.77502113026E-01  0.51100000000E-03 0. -1.
</event>
<event>
 8    1  0.2025822E+004  0.1043930E+01  0.7957747E-01            NaN
         13   -1    0    0    0    0  0.00000000000E+00  0.00000000000E+00  0.74505805969E-08  0.10566000000E+00  0.10566000000E+00 0.  1.
     999900   -1    0    0    0    0 -0.00000000000E+00 -0.00000000000E+00 -0.74505805969E-08  0.93827000000E+00  0.93827000000E+00 0. -1.
     999902    2    1    2    0    0  0.79972371662E-02 -0.29586586082E-02 -0.10483179041E-01  0.10304168025E+01  0.10303281906E+01 0.  0.
     999903    2    3    3    0    0  0.35412082476E-01 -0.12273484741E+00  0.37269876323E-01  0.14059757176E+00  0.45395761385E-01 0.  0.
         14    1    1    2    0    0 -0.79972371662E-02  0.29586586082E-02  0.10483179041E-01  0.13513197470E-01  0.00000000000E+00 0.  1.
     999901    1    3    3    0    0 -0.27414845310E-01  0.11977618880E+00 -0.47753055364E-01  0.88981923077E+00  0.88000000000E+00 0.  1.
        -11    1    4    4    0    0  0.25690896603E-01 -0.52114230686E-01  0.37780070629E-01  0.69307359393E-01  0.51100000000E-03 0.  1.
         11    1    4    4    0    0  0.97211858730E-02 -0.70620616719E-01 -0.51019430611E-03  0.71290212370E-01  0.51100000000E-03 0. -1.
</event>
<event>
 8    1  0.2025822E+004  0.1043930E+01  0.7957747E-01            NaN
         13   -1    0    0    0    0  0.00000000000E+00  0.00000000000E+00  0.74505805969E-08  0.10566000000E+00  0.10566000000E+00 0. -1.
     999900   -1    0    0    0    0 -0.00000000000E+00 -0.00000000000E+00 -0.74505805969E-08  0.93827000000E+00  0.93827000000E+00 0. -1.
     999902    2    1    2    0    0  0.74626834724E-02  0.88225171992E-02 -0.82579210720E-02  0.10297271230E+01  0.10296291692E+01 0.  0.
     999903    2    3    3    0    0  0.10957522452E+00  0.34652773806E-01  0.60057915417E-01  0.14081698880E+00  0.54908346983E-01 0.  0.
         14    1    1    2    0    0 -0.74626834724E-02 -0.88225171992E-02  0.82579210720E-02  0.14202876989E-01  0.00000000000E+00 0. -1.
     999901    1    3    3    0    0 -0.10211254105E+00 -0.25830256607E-01 -0.68315836489E-01  0.88891013422E+00  0.88000000000E+00 0. -1.
        -11    1    4    4    0    0  0.43179597471E-01  0.34356235100E-01  0.66044575298E-02  0.55576150535E-01  0.51100000000E-03 0. -1.
         11    1    4    4    0    0  0.66395627047E-01  0.29653870628E-03  0.53453457887E-01  0.85240838260E-01  0.51100000000E-03 0.  1.
</event>
<event>
 8    1  0.2025822E+004  0.1043930E+01  0.7957747E-01            NaN
         13   -1    0    0    0    0  0.00000000000E+00  0.00000000000E+00  0.74505805969E-08  0.10566000000E+00  0.10566000000E+00 0.  1.
     999900   -1    0    0    0    0 -0.00000000000E+00 -0.00000000000E+00 -0.74505805969E-08  0.93827000000E+00  0.93827000000E+00 0.  1.
     999902    2    1    2    0    0 -0.77860490679E-03  0.21540819513E-01 -0.11743323123E-01  0.10193837423E+01  0.10190881685E+01 0.  0.
     999903    2    3    3    0    0  0.68209296418E-02  0.11110734273E+00  0.55964235415E-01  0.13221733821E+00  0.44249996461E-01 0.  0.
         14    1    1    2    0    0  0.77860490679E-03 -0.21540819513E-01  0.11743323123E-01  0.24546257737E-01  0.00000000000E+00 0. -1.
     999901    1    3    3    0    0 -0.75995345486E-02 -0.89566523217E-01 -0.67707558538E-01  0.88716640406E+00  0.88000000000E+00 0.  1.
        -11    1    4    4    0    0  0.13312135750E-02  0.11064452292E+00  0.59514673331E-01  0.12564330481E+00  0.51100000000E-03 0.  1.
         11    1    4    4    0    0  0.54897160668E-02  0.46281981248E-03 -0.35504379155E-02  0.65740333940E-02  0.51100000000E-03 0. -1.
</event>
<event>
 8    1  0.2025822E+004  0.1043930E+01  0.7957747E-01            NaN
         13   -1    0    0    0    0  0.00000000000E+00  0.00000000000E+00  0.74505805969E-08  0.10566000000E+00  0.10566000000E+00 0. -1.
     999900   -1    0    0    0    0 -0.00000000000E+00 -0.00000000000E+00 -0.74505805969E-08  0.93827000000E+00  0.93827000000E+00 0. -1.
     999902    2    1    2    0    0 -0.14627586643E-01  0.32540850018E-02  0.78799816612E-02  0.10269992743E+01  0.10268597081E+01 0.  0.
     999903    2    3    3    0    0 -0.12259102617E+00  0.45245451435E-01  0.18666153474E-01  0.13934184007E+00  0.44631967619E-01 0.  0.
         14    1    1    2    0    0  0.14627586643E-01 -0.32540850018E-02 -0.78799816612E-02  0.16930725654E-01  0.00000000000E+00 0.  1.
     999901    1    3    3    0    0  0.10796343953E+00 -0.41991366434E-01 -0.10786171813E-01  0.88765743428E+00  0.88000000000E+00 0.  1.
        -11    1    4    4    0    0 -0.11626544308E-01  0.23470362639E-02  0.16532462948E-01  0.20353588477E-01  0.51100000000E-03 0.  1.
         11    1    4    4    0    0 -0.11096448187E+00  0.42898415172E-01  0.21336905260E-02  0.11898825159E+00  0.51100000000E-03 0. -1.
</event>
<event>
 8    1  0.2025822E+004  0.1043930E+01  0.7957747E-01            NaN
         13   -1    0    0    0    0  0.00000000000E+00  0.00000000000E+00  0.74505805969E-08  0.10566000000E+00  0.10566000000E+00 0.  1.
     999900   -1    0    0    0    0 -0.00000000000E+00 -0.00000000000E+00 -0.74505805969E-08  0.93827000000E+00  0.93827000000E+00 0. -1.
     999902    2    1    2    0    0 -0.10299917614E-01 -0.47834760714E-02  0.83036194025E-02  0.10298615942E+01  0.10297654991E+01 0.  0.
     999903    2    3    3    0    0 -0.88948232771E-01 -0.92831823917E-01  0.38151037609E-01  0.14147601497E+00  0.45060242966E-01 0.  0.
         14    1    1    2    0    0  0.10299917614E-01  0.47834760714E-02 -0.83036194025E-02  0.14068405786E-01  0.00000000000E+00 0. -1.
     999901    1    3    3    0    0  0.78648315157E-01  0.88048347846E-01 -0.29847418206E-01  0.88838557924E+00  0.88000000000E+00 0. -1.
        -11    1    4    4    0    0 -0.50694099697E-01 -0.81812729055E-01  0.23703224570E-01  0.99122743886E-01  0.51100000000E-03 0.  1.
         11    1    4    4    0    0 -0.38254133074E-01 -0.11019094862E-01  0.14447813038E-01  0.42353271083E-01  0.51100000000E-03 0. -1.
</event>
<event>
 8    1  0.2025822E+004  0.1043930E+01  0.7957747E-01            NaN
         13   -1    0    0    0    0  0.00000000000E+00  0.00000000000E+00  0.74505805969E-08  0.10566000000E+00  0.10566000000E+00 0. -1.
     999900   -1    0    0    0    0 -0.00000000000E+00 -0.00000000000E+00 -0.74505805969E-08  0.93827000000E+00  0.93827000000E+00 0.  1.
     999902    2    1    2    0    0 -0.14985609124E-02 -0.10193697310E-01 -0.87013114228E-02  0.10304440825E+01  0.10303558304E+01 0.  0.
     999903    2    3    3    0    0 -0.97263524575E-01 -0.27600941815E-02  0.89430696869E-01  0.13979483744E+00  0.45573410008E-01 0.  0.
         14    1    1    2    0    0  0.14985609124E-02  0.10193697310E-01  0.87013114228E-02  0.13485917475E-01  0.00000000000E+00 0. -1.
     999901    1    3    3    0    0  0.95764963662E-01 -0.74336031286E-02 -0.98132008291E-01  0.89064924509E+00  0.88000000000E+00 0.  1.
        -11    1    4    4    0    0 -0.39221619169E-01  0.19870600082E-01  0.27009988134E-01  0.51604038000E-01  0.51100000000E-03 0.  1.
         11    1    4    4    0    0 -0.58041905406E-01 -0.22630694263E-01  0.62420708734E-01  0.88190799440E-01  0.51100000000E-03 0. -1.
</event>
<event>
 8    1  0.2025822E+004  0.1043930E+01  0.7957747E-01            NaN
         13   -1    0    0    0    0  0.00000000000E+00  0.00000000000E+00  0.74505805969E-08  0.10566000000E+00  0.10566000000E+00 0.  1.
     999900   -1    0    0    0    0 -0.00000000000E+00 -0.00000000000E+00 -0.74505805969E-08  0.93827000000E+00  0.93827000000E+00 0.  1.
     999902    2    1    2    0    0  0.32233628032E-02  0.11694086785E-01 -0.65822233995E-02  0.10301290073E+01  0.10300365549E+01 0.  0.
     999903    2    3    3    0    0 -0.78940576576E-01 -0.11857137589E-01 -0.10633685312E+00  0.14037816623E+00  0.45014407473E-01 0.  0.
         14    1    1    2    0    0 -0.32233628032E-02 -0.11694086785E-01  0.65822233995E-02  0.13800992659E-01  0.00000000000E+00 0.  1.
     999901    1    3    3    0    0  0.82163939379E-01  0.23551224374E-01  0.99754629725E-01  0.88975084111E+00  0.88000000000E+00 0. -1.
        -11    1    4    4    0    0 -0.51520834457E-01 -0.89742068080E-02 -0.98804486335E-01  0.11179230927E+00  0.51100000000E-03 0. -1.
         11    1    4    4    0    0 -0.27419742119E-01 -0.28829307805E-02 -0.75323667891E-02  0.28585856962E-01  0.51100000000E-03 0.  1.
</event>
<event>
 8    1  0.2025822E+004  0.1043930E+01  0.7957747E-01            NaN
         13   -1    0    0    0    0  0.00000000000E+00  0.00000000000E+00  0.74505805969E-08  0.10566000000E+00  0.10566000000E+00 0.  1.
     999900   -1    0    0    0    0 -0.00000000000E+00 -0.00000000000E+00 -0.74505805969E-08  0.93827000000E+00  0.93827000000E+00 0.  1.
     999902    2    1    2    0    0  0.46051748741E-02 -0.13139417959E-01  0.64393137342E-02  0.10285899641E+01  0.10284755697E+01 0.  0.
     999903    2    3    3    0    0 -0.96994285446E-01 -0.73925734042E-01 -0.50533159589E-01  0.13883534103E+00  0.42997048025E-01 0.  0.
         14    1    1    2    0    0 -0.46051748741E-02  0.13139417959E-01 -0.64393137342E-02  0.15340035896E-01  0.00000000000E+00 0.  1.
     999901    1    3    3    0    0  0.10159946032E+00  0.60786316083E-01  0.56972473323E-01  0.88975462307E+00  0.88000000000E+00 0.  1.
        -11    1    4    4    0    0 -0.31084548907E-01 -0.47406730365E-01 -0.11763478244E-01  0.57898944775E-01  0.51100000000E-03 0.  1.
         11    1    4    4    0    0 -0.65909736539E-01 -0.26519003677E-01 -0.38769681345E-01  0.80936396258E-01  0.51100000000E-03 0. -1.
</event>
<event>
 8    1  0.2025822E+004  0.1043930E+01  0.7957747E-01            NaN
         13   -1    0    0    0    0  0.00000000000E+00  0.00000000000E+00  0.74505805969E-08  0.10566000000E+00  0.10566000000E+00 0.  1.
     999900   -1    0    0    0    0 -0.00000000000E+00 -0.00000000000E+00 -0.74505805969E-08  0.93827000000E+00  0.93827000000E+00 0. -1.
     999902    2    1    2    0    0  0.81698222514E-02 -0.66123487958E-02 -0.93306389411E-02  0.10298754642E+01  0.10297795598E+01 0.  0.
     999903    2    3    3    0    0 -0.13938438858E-01  0.12801159876E+00 -0.26778026642E-01  0.13919213455E+00  0.45564658615E-01 0.  0.
         14    1    1    2    0    0 -0.81698222514E-02  0.66123487958E-02  0.93306389411E-02  0.14054535754E-01  0.00000000000E+00 0.  1.
     999901    1    3    3    0    0  0.22108261109E-01 -0.13462394755E+00  0.17447387701E-01  0.89068332970E+00  0.88000000000E+00 0. -1.
        -11    1    4    4    0    0  0.16023682451E-01  0.29366593390E-01 -0.51495668751E-02  0.33851652347E-01  0.51100000000E-03 0. -1.
         11    1    4    4    0    0 -0.29962121308E-01  0.98645005369E-01 -0.21628459767E-01  0.10534048220E+00  0.51100000000E-03 0.  1.
</event>
<event>
 8    1  0.2025822E+004  0.1043930E+01  0.7957747E-01            NaN
         13   -1    0    0    0    0  0.00000000000E+00  0.00000000000E+00  0.74505805969E-08  0.10566000000E+00  0.10566000000E+00 0. -1.
     999900   -1    0    0    0    0 -0.00000000000E+00 -0.00000000000E+00 -0.74505805969E-08  0.93827000000E+00  0.93827000000E+00 0.  1.
     999902    2    1    2    0    0  0.48105166711E-02  0.41949128455E-02 -0.10690579445E-01  0.10314790220E+01  0.10314038714E+01 0.  0.
     999903    2    3    3    0    0  0.73147679715E-01  0.92609669486E-01 -0.65865145493E-01  0.14269818861E+00  0.45797616894E-01 0.  0.
         14    1    1    2    0    0 -0.48105166711E-02 -0.41949128455E-02  0.10690579445E-01  0.12450978005E-01  0.00000000000E+00 0. -1.
     999901    1    3    3    0    0 -0.68337163044E-01 -0.88414756640E-01  0.55174566048E-01  0.88878083338E+00  0.88000000000E+00 0. -1.
        -11    1    4    4    0    0  0.17126504001E-01  0.13689031339E-01  0.53052865754E-02  0.22563552578E-01  0.51100000000E-03 0.  1.
         11    1    4    4    0    0  0.56021175714E-01  0.78920638147E-01 -0.71170432069E-01  0.12013463604E+00  0.51100000000E-03 0. -1.
</event>
<event>
 8    1  0.2025822E+004  0.1043930E+01  0.7957747E-01            NaN
         13   -1    0    0    0    0  0.00000000000E+00  0.00000000000E+00  0.74505805969E-08  0.10566000000E+00  0.10566000000E+00 0. -1.
     999900   -1    0    0    0    0 -0.00000000000E+00 -0.00000000000E+00 -0.74505805969E-08  0.93827000000E+00  0.93827000000E+00 0.  1.
     999902    2    1    2    0    0 -0.85071525564E-02  0.47155375554E-02  0.94834503349E-02  0.10303453112E+01  0.10302557530E+01 0.  0.
     999903    2    3    3    0    0 -0.12921788024E+00  0.14681812439E-01 -0.31417225156E-01  0.14110784481E+00  0.44850480937E-01 0.  0.
         14    1    1    2    0    0  0.85071525564E-02 -0.47155375554E-02 -0.94834503349E-02  0.13584688782E-01  0.00000000000E+00 0. -1.
     999901    1    3    3    0    0  0.12071072768E+00 -0.99662748839E-02  0.40900675491E-01  0.88923746641E+00  0.88000000000E+00 0. -1.
        -11    1    4    4    0    0 -0.12388606882E-01  0.11339811068E-01  0.68198152896E-02  0.18133943232E-01  0.51100000000E-03 0. -1.
         11    1    4    4    0    0 -0.11682927335E+00  0.33420013714E-02 -0.38237040446E-01  0.12297390158E+00  0.51100000000E-03 0.  1.
</event>
<event>
 8    1  0.2025822E+004  0.1043930E+01  0.7957747E-01            NaN
         13   -1    0    0    0    0  0.00000000000E+00  0.00000000000E+00  0.74505805969E-08  0.10566000000E+00  0.10566000000E+00 0.  1.
     999900   -1    0    0    0    0 -0.00000000000E+00 -0.00000000000E+00 -0.74505805969E-08  0.93827000000E+00  0.93827000000E+00 0. -1.
     999902    2    1    2    0    0  0.65049629910E-02 -0.11473601984E-01 -0.42815362750E-02  0.10300631460E+01  0.10299698030E+01 0.  0.
     999903    2    3    3    0    0 -0.76291553616E-02  0.12800757306E+00  0.29695380761E-01  0.13831811387E+00  0.42496378844E-01 0.  0.
         14    1    1    2    0    0 -0.65049629910E-02  0.11473601984E-01  0.42815362750E-02  0.13866853965E-01  0.00000000000E+00 0.  1.
     999901    1    3    3    0    0  0.14134118353E-01 -0.13948117504E+00 -0.33976917036E-01  0.89174503216E+00  0.88000000000E+00 0.  1.
        -11    1    4    4    0    0 -0.25191134256E-01  0.84328607329E-01  0.19516746804E-01  0.90150273355E-01  0.51100000000E-03 0. -1.
         11    1    4    4    0    0  0.17561978895E-01  0.43678965731E-01  0.10178633957E-01  0.48167840519E-01  0.51100000000E-03 0.  1.
</event>
<event>
 8    1  0.2025822E+004  0.1043930E+01  0.7957747E-01            NaN
         13   -1    0    0    0    0  0.00000000000E+00  0.00000000000E+00  0.74505805969E-08  0.10566000000E+00  0.10566000000E+00 0. -1.
     999900   -1    0    0    0    0 -0.00000000000E+00 -0.00000000000E+00 -0.74505805969E-08  0.93827000000E+00  0.93827000000E+00 0. -1.
     999902    2    1    2    0    0  0.97072037193E-02 -0.12078534293E-01  0.21894110590E-02  0.10282802615E+01  0.10281611653E+01 0.  0.
     999903    2    3    3    0    0  0.63998843705E-01 -0.70478409754E-01 -0.90183249404E-01  0.13985984523E+00  0.48628176987E-01 0.  0.
         14    1    1    2    0    0 -0.97072037193E-02  0.12078534293E-01 -0.21894110590E-02  0.15649738512E-01  0.00000000000E+00 0.  1.
     999901    1    3    3    0    0 -0.54291639985E-01  0.58399875461E-01  0.92372660463E-01  0.88842041626E+00  0.88000000000E+00 0. -1.
        -11    1    4    4    0    0  0.27196707669E-01 -0.72317318698E-03 -0.15901339022E-01  0.31516624045E-01  0.51100000000E-03 0.  1.
         11    1    4    4    0    0  0.36802136036E-01 -0.69755236567E-01 -0.74281910382E-01  0.10834322118E+00  0.51100000000E-03 0. -1.
</event>
<event>
 8    1  0.2025822E+004  0.1043930E+01  0.7957747E-01            NaN
         13   -1    0    0    0    0  0.00000000000E+00  0.00000000000E+00  0.74505805969E-08  0.10566000000E+00  0.10566000000E+00 0. -1.
     999900   -1    0    0    0    0 -0.00000000000E+00 -0.00000000000E+00 -0.74505805969E-08  0.93827000000E+00  0.93827000000E+00 0.  1.
     999902    2    1    2    0    0  0.26021504150E-02 -0.12324568788E-01 -0.14980640760E-01  0.10243574228E+01  0.10241704173E+01 0.  0.
     999903    2    3    3    0    0 -0.97968748934E-01 -0.42024020677E-01 -0.71467026123E-01  0.13633305655E+00  0.45992090659E-01 0.  0.
         14    1    1    2    0    0 -0.26021504150E-02  0.12324568788E-01  0.14980640760E-01  0.19572577249E-01  0.00000000000E+00 0. -1.
     999901    1    3    3    0    0  0.10057089935E+00  0.29699451889E-01  0.56486385363E-01  0.88802436620E+00  0.88000000000E+00 0. -1.
        -11    1    4    4    0    0 -0.56255001069E-01 -0.45113296418E-01 -0.32253997256E-01  0.78996304464E-01  0.51100000000E-03 0. -1.
         11    1    4    4    0    0 -0.41713747866E-01  0.30892757413E-02 -0.39213028868E-01  0.57336752084E-01  0.51100000000E-03 0.  1.
</event>
<event>
 8    1  0.2025822E+004  0.1043930E+01  0.7957747E-01            NaN
         13   -1    0    0    0    0  0.00000000000E+00  0.00000000000E+00  0.74505805969E-08  0.10566000000E+00  0.10566000000E+00 0. -1.
     999900   -1    0    0    0    0 -0.00000000000E+00 -0.00000000000E+00 -0.74505805969E-08  0.93827000000E+00  0.93827000000E+00 0. -1.
     999902    2    1    2    0    0  0.84269366898E-02 -0.66746530817E-02 -0.80285231622E-02  0.10305127931E+01  0.10304254439E+01 0.  0.
     999903    2    3    3    0    0  0.12352276477E+00 -0.30362374584E-01  0.42321819383E-01  0.14127530249E+00  0.44585059046E-01 0.  0.
         14    1    1    2    0    0 -0.84269366898E-02  0.66746530817E-02  0.80285231622E-02  0.13417206859E-01  0.00000000000E+00 0. -1.
     999901    1    3    3    0    0 -0.11509582808E+00  0.23687721502E-01 -0.50350342545E-01  0.88923749065E+00  0.88000000000E+00 0. -1.
        -11    1    4    4    0    0  0.74869056501E-01 -0.14456432841E-01  0.22853962093E-02  0.76287929770E-01  0.51100000000E-03 0. -1.
         11    1    4    4    0    0  0.48653708268E-01 -0.15905941743E-01  0.40036423174E-01  0.64987372716E-01  0.51100000000E-03 0.  1.
</event>
<event>
 8    1  0.2025822E+004  0.1043930E+01  0.7957747E-01            NaN
         13   -1    0    0    0    0  0.00000000000E+00  0.00000000000E+00  0.74505805969E-08  0.10566000000E+00  0.10566000000E+00 0.  1.
     999900   -1    0    0    0    0 -0.00000000000E+00 -0.00000000000E+00 -0.74505805969E-08  0.93827000000E+00  0.93827000000E+00 0. -1.
     999902    2    1    2    0    0  0.25001410427E-02  0.51433405490E-02 -0.14437151282E-01  0.10284014458E+01  0.10282842009E+01 0.  0.
     999903    2    3    3    0    0  0.11891517449E+00 -0.18646473971E-02 -0.57377061039E-01  0.13966897329E+00  0.45508233681E-01 0.  0.
         14    1    1    2    0    0 -0.25001410427E-02 -0.51433405490E-02  0.14437151282E-01  0.15528554163E-01  0.00000000000E+00 0.  1.
     999901    1    3    3    0    0 -0.11641503345E+00  0.70079879461E-02  0.42939909757E-01  0.88873247255E+00  0.88000000000E+00 0. -1.
        -11    1    4    4    0    0  0.72551576249E-01 -0.77795827266E-03 -0.58611679324E-01  0.93273396580E-01  0.51100000000E-03 0. -1.
         11    1    4    4    0    0  0.46363598241E-01 -0.10866891245E-02  0.12346182847E-02  0.46395576712E-01  0.51100000000E-03 0.  1.
</event>
<event>
 8    1  0.2025822E+004  0.1043930E+01  0.7957747E-01            NaN
         13   -1    0    0    0    0  0.00000000000E+00  0.00000000000E+00  0.74505805969E-08  0.10566000000E+00  0.10566000000E+00 0.  1.
     999900   -1    0    0    0    0 -0.00000000000E+00 -0.00000000000E+00 -0.74505805969E-08  0.93827000000E+00  0.93827000000E+00 0.  1.
     999902    2    1    2    0    0 -0.62598249799E-02 -0.11303204902E-01 -0.64575038957E-02  0.10294853745E+01  0.10293840338E+01 0.  0.
     999903    2    3    3    0    0  0.11889807879E+00  0.35114854842E-01  0.40856445014E-01  0.13816178178E+00  0.45272758636E-01 0.  0.
         14    1    1    2    0    0  0.62598249799E-02  0.11303204902E-01  0.64575038957E-02  0.14444625519E-01  0.00000000000E+00 0.  1.
     999901    1    3    3    0    0 -0.12515790377E+00 -0.46418059744E-01 -0.47313948910E-01  0.89132359270E+00  0.88000000000E+00 0.  1.
        -11    1    4    4    0    0  0.83179281428E-01  0.79683083967E-02  0.11032108962E-01  0.84286744786E-01  0.51100000000E-03 0.  1.
         11    1    4    4    0    0  0.35718797362E-01  0.27146546446E-01  0.29824336053E-01  0.53875036992E-01  0.51100000000E-03 0. -1.
</event>
<event>
 8    1  0.2025822E+004  0.1043930E+01  0.7957747E-01            NaN
         13   -1    0    0    0    0  0.00000000000E+00  0.00000000000E+00  0.74505805969E-08  0.10566000000E+00  0.10566000000E+00 0. -1.
     999900   -1    0    0    0    0 -0.00000000000E+00 -0.00000000000E+00 -0.74505805969E-08  0.93827000000E+00  0.93827000000E+00 0.  1.
     999902    2    1    2    0    0 -0.28288284016E-02 -0.14516592801E-01 -0.44009899184E-02  0.10284994313E+01  0.10283836725E+01 0.  0.
     999903    2    3    3    0    0 -0.66022782570E-01  0.10673586252E+00 -0.33412984447E-01  0.13746782159E+00  0.45049109604E-01 0.  0.
         14    1    1    2    0    0  0.28288284016E-02  0.14516592801E-01  0.44009899184E-02  0.15430568653E-01  0.00000000000E+00 0.  1.
     999901    1    3    3    0    0  0.63193954169E-01 -0.12125245532E+00  0.29011994529E-01  0.89103160976E+00  0.88000000000E+00 0. -1.
        -11    1    4    4    0    0 -0.39519699640E-01  0.23641018706E-01 -0.94212901947E-02  0.47007725482E-01  0.51100000000E-03 0.  1.
         11    1    4    4    0    0 -0.26503082931E-01  0.83094843814E-01 -0.23991694253E-01  0.90460096105E-01  0.51100000000E-03 0. -1.
</event>
<event>
 8    1  0.2025822E+004  0.1043930E+01  0.7957747E-01            NaN
         13   -1    0    0    0    0  0.00000000000E+00  0.00000000000E+00  0.74505805969E-08  0.10566000000E+00  0.10566000000E+00 0.  1.
     999900   -1    0    0    0    0 -0.00000000000E+00 -0.00000000000E+00 -0.74505805969E-08  0.93827000000E+00  0.93827000000E+00 0.  1.
     999902    2    1    2    0    0  0.81436998838E-02  0.10167552572E-01 -0.79028841002E-02  0.10286933813E+01  0.10285805356E+01 0.  0.
     999903    2    3    3    0    0  0.21521114076E-01 -0.90309785731E-01 -0.93065652822E-01  0.13879038212E+00  0.44525708132E-01 0.  0.
         14    1    1    2    0    0 -0.81436998838E-02 -0.10167552572E-01  0.79028841002E-02  0.15236618726E-01  0.00000000000E+00 0.  1.
     999901    1    3    3    0    0 -0.13377414192E-01  0.10047733830E+00  0.85162768721E-01  0.88990299915E+00  0.88000000000E+00 0. -1.
        -11    1    4    4    0    0  0.32892385247E-01 -0.51189968012E-01 -0.44421864709E-01  0.75338469705E-01  0.51100000000E-03 0. -1.
         11    1    4    4    0    0 -0.11371271171E-01 -0.39119817720E-01 -0.48643788113E-01  0.63451912418E-01  0.51100000000E-03 0.  1.
</event>
<event>
 8    1  0.2025822E+004  0.1043930E+01  0.7957747E-01            NaN
         13   -1    0    0    0    0  0.00000000000E+00  0.00000000000E+00  0.74505805969E-08  0.10566000000E+00  0.10566000000E+00 0. -1.
     999900   -1    0    0    0    0 -0.00000000000E+00 -0.00000000000E+00 -0.74505805969E-08  0.93827000000E+00  0.93827000000E+00 0. -1.
     999902    2    1    2    0    0 -0.13380591530E-02 -0.90413654255E-02  0.12370209660E-01  0.10285495326E+01  0.10284345299E+01 0.  0.
     999903    2    3    3    0    0  0.73591738506E-01 -0.67349304762E-01 -0.83863923704E-01  0.13822638967E+00  0.46061961261E-01 0.  0.
         14    1    1    2    0    0  0.13380591530E-02  0.90413654255E-02 -0.12370209660E-01  0.15380467421E-01  0.00000000000E+00 0.  1.
     999901    1    3    3    0    0 -0.74929797659E-01  0.58307939336E-01  0.96234133364E-01  0.89032314290E+00  0.88000000000E+00 0. -1.
        -11    1    4    4    0    0  0.34797743947E-02 -0.14580974709E-01 -0.34319235062E-01  0.37453767094E-01  0.51100000000E-03 0.  1.
         11    1    4    4    0    0  0.70111964112E-01 -0.52768330053E-01 -0.49544688642E-01  0.10077262258E+00  0.51100000000E-03 0. -1.
</event>
<event>
 8    1  0.2025822E+004  0.1043930E+01  0.7957747E-01            NaN
         13   -1    0    0    0    0  0.00000000000E+00  0.00000000000E+00  0.74505805969E-08  0.10566000000E+00  0.10566000000E+00 0.  1.
     999900   -1    0    0    0    0 -0.00000000000E+00 -0.00000000000E+00 -0.74505805969E-08  0.93827000000E+00  0.93827000000E+00 0.  1.
     999902    2    1    2    0    0 -0.47059681500E-02  0.10985639893E-02 -0.70723978000E-02  0.10353642665E+01  0.10353288331E+01 0.  0.
     999903    2    3    3    0    0  0.40579358180E-01 -0.12964624213E+00 -0.19249169617E-01  0.14446963816E+00  0.45233985116E-01 0.  0.
         14    1    1    2    0    0  0.47059681500E-02 -0.10985639893E-02  0.70723978000E-02  0.85657334601E-02  0.00000000000E+00 0.  1.
     999901    1    3    3    0    0 -0.45285326330E-01  0.13074480612E+00  0.12176771817E-01  0.89089462838E+00  0.88000000000E+00 0. -1.
        -11    1    4    4    0    0  0.36405686880E-01 -0.44438687563E-01 -0.13185956437E-01  0.58943206205E-01  0.51100000000E-03 0.  1.
         11    1    4    4    0    0  0.41736713004E-02 -0.85207554568E-01 -0.60632131799E-02  0.85526431953E-01  0.51100000000E-03 0. -1.
</event>
<event>
 8    1  0.2025822E+004  0.1043930E+01  0.7957747E-01            NaN
         13   -1    0    0    0    0  0.00000000000E+00  0.00000000000E+00  0.74505805969E-08  0.10566000000E+00  0.10566000000E+00 0.  1.
     999900   -1    0    0    0    0 -0.00000000000E+00 -0.00000000000E+00 -0.74505805969E-08  0.93827000000E+00  0.93827000000E+00 0. -1.
     999902    2    1    2    0    0  0.38740059704E-02 -0.12420412462E-01  0.38766735316E-02  0.10303541698E+01  0.10302647291E+01 0.  0.
     999903    2    3    3    0    0  0.12491934404E+00  0.45591667026E-01 -0.25377301792E-02  0.14015277696E+00  0.44191834075E-01 0.  0.
         14    1    1    2    0    0 -0.38740059704E-02  0.12420412462E-01 -0.38766735316E-02  0.13575830201E-01  0.00000000000E+00 0. -1.
     999901    1    3    3    0    0 -0.12104533807E+00 -0.58012079488E-01  0.64144037109E-02  0.89020139284E+00  0.88000000000E+00 0. -1.
        -11    1    4    4    0    0  0.42903496638E-01  0.27600401094E-01  0.17305570000E-01  0.53872405165E-01  0.51100000000E-03 0.  1.
         11    1    4    4    0    0  0.82015847398E-01  0.17991265933E-01 -0.19843300179E-01  0.86280371796E-01  0.51100000000E-03 0. -1.
</event>
<event>
 8    1  0.2025822E+004  0.1043930E+01  0.7957747E-01            NaN
         13   -1    0    0    0    0  0.00000000000E+00  0.00000000000E+00  0.74505805969E-08  0.10566000000E+00  0.10566000000E+00 0. -1.
     999900   -1    0    0    0    0 -0.00000000000E+00 -0.00000000000E+00 -0.74505805969E-08  0.93827000000E+00  0.93827000000E+00 0.  1.
     999902    2    1    2    0    0  0.25713904067E-02  0.16789332554E-01  0.50547059928E-02  0.10262087193E+01  0.10260556963E+01 0.  0.
     999903    2    3    3    0    0 -0.21582941553E-02  0.80137060464E-01 -0.10205241096E+00  0.13744146123E+00  0.45264268346E-01 0.  0.
         14    1    1    2    0    0 -0.25713904067E-02 -0.16789332554E-01 -0.50547059928E-02  0.17721280679E-01  0.00000000000E+00 0. -1.
     999901    1    3    3    0    0  0.47296845620E-02 -0.63347727910E-01  0.10710711696E+00  0.88876725809E+00  0.88000000000E+00 0. -1.
        -11    1    4    4    0    0 -0.23592901352E-01  0.41900585236E-01 -0.49652154935E-01  0.69122222534E-01  0.51100000000E-03 0. -1.
         11    1    4    4    0    0  0.21434607197E-01  0.38236475228E-01 -0.52400256028E-01  0.68319238699E-01  0.51100000000E-03 0.  1.
</event>
<event>
 8    1  0.2025822E+004  0.1043930E+01  0.7957747E-01            NaN
         13   -1    0    0    0    0  0.00000000000E+00  0.00000000000E+00  0.74505805969E-08  0.10566000000E+00  0.10566000000E+00 0.  1.
     999900   -1    0    0    0    0 -0.00000000000E+00 -0.00000000000E+00 -0.74505805969E-08  0.93827000000E+00  0.93827000000E+00 0.  1.
     999902    2    1    2    0    0  0.63005071789E-03 -0.12103900793E-02 -0.12903953726E-01  0.10309540981E+01  0.10308724356E+01 0.  0.
     999903    2    3    3    0    0  0.16806891690E-01  0.95679286737E-01 -0.92741960901E-01  0.14189650321E+00  0.45788085714E-01 0.  0.
         14    1    1    2    0    0 -0.63005071789E-03  0.12103900793E-02  0.12903953726E-01  0.12975901889E-01  0.00000000000E+00 0.  1.
     999901    1    3    3    0    0 -0.16176840972E-01 -0.96889676817E-01  0.79838007175E-01  0.88905759490E+00  0.88000000000E+00 0. -1.
        -11    1    4    4    0    0  0.23711470928E-01  0.29360843226E-01 -0.18259831613E-01  0.41928218899E-01  0.51100000000E-03 0.  1.
         11    1    4    4    0    0 -0.69045792388E-02  0.66318443511E-01 -0.74482129289E-01  0.99968284313E-01  0.51100000000E-03 0. -1.
</event>
<event>
 8    1  0.2025822E+004  0.1043930E+01  0.7957747E-01            NaN
         13   -1    0    0    0    0  0.00000000000E+00  0.00000000000E+00  0.74505805969E-08  0.10566000000E+00  0.10566000000E+00 0.  1.
     999900   -1    0    0    0    0 -0.00000000000E+00 -0.00000000000E+00 -0.74505805969E-08  0.93827000000E+00  0.93827000000E+00 0.  1.
     999902    2    1    2    0    0  0.10505351181E-02 -0.66687387981E-02  0.11925713035E-01  0.10302260468E+01  0.10301348986E+01 0.  0.
     999903    2    3    3    0    0  0.81543704295E-01 -0.87276186129E-01  0.61506694332E-01  0.14149943838E+00  0.44412940002E-01 0.  0.
         14    1    1    2    0    0 -0.10505351181E-02  0.66687387981E-02 -0.11925713035E-01  0.13703953173E-01  0.00000000000E+00 0. -1.
     999901    1    3    3    0    0 -0.80493169177E-01  0.80607447331E-01 -0.49580981298E-01  0.88872660844E+00  0.88000000000E+00 0. -1.
        -11    1    4    4    0    0  0.31006319870E-01 -0.12573024853E-01  0.32777019523E-01  0.46840868434E-01  0.51100000000E-03 0.  1.
         11    1    4    4    0    0  0.50537384425E-01 -0.74703161277E-01  0.28729674810E-01  0.94658569949E-01  0.51100000000E-03 0. -1.
</event>
<event>
 8    1  0.2025822E+004  0.1043930E+01  0.7957747E-01            NaN
         13   -1    0    0    0    0  0.00000000000E+00  0.00000000000E+00  0.74505805969E-08  0.10566000000E+00  0.10566000000E+00 0. -1.
     999900   -1    0    0    0    0 -0.00000000000E+00 -0.00000000000E+00 -0.74505805969E-08  0.93827000000E+00  0.93827000000E+00 0.  1.
     999902    2    1    2    0    0 -0.70451956129E-02 -0.18412908531E-01  0.21880633993E-02  0.10240942342E+01  0.10239021159E+01 0.  0.
     999903    2    3    3    0    0  0.32630155730E-01  0.49212461476E-02 -0.12249557302E+00  0.13411410779E+00  0.43502675471E-01 0.  0.
         14    1    1    2    0    0  0.70451956129E-02  0.18412908531E-01 -0.21880633993E-02  0.19835765758E-01  0.00000000000E+00 0. -1.
     999901    1    3    3    0    0 -0.39675351343E-01 -0.23334154678E-01  0.12468363642E+00  0.88998012645E+00  0.88000000000E+00 0. -1.
        -11    1    4    4    0    0  0.43251540324E-01  0.32345414120E-02 -0.90545805493E-01  0.10039901400E+00  0.51100000000E-03 0.  1.
         11    1    4    4    0    0 -0.10621384594E-01  0.16867047356E-02 -0.31949767528E-01  0.33715093796E-01  0.51100000000E-03 0. -1.
</event>
<event>
 8    1  0.2025822E+004  0.1043930E+01  0.7957747E-01            NaN
         13   -1    0    0    0    0  0.00000000000E+00  0.00000000000E+00  0.74505805969E-08  0.10566000000E+00  0.10566000000E+00 0. -1.
     999900   -1    0    0    0    0 -0.00000000000E+00 -0.00000000000E+00 -0.74505805969E-08  0.93827000000E+00  0.93827000000E+00 0. -1.
     999902    2    1    2    0    0 -0.10886105427E-01  0.13381760566E-01  0.16447270422E-03  0.10266787433E+01  0.10265337968E+01 0.  0.
     999903    2    3    3    0    0 -0.88007596564E-01 -0.83906062720E-02 -0.95222001867E-01  0.13790411499E+00  0.46201471467E-01 0.  0.
         14    1    1    2    0    0  0.10886105427E-01 -0.13381760566E-01 -0.16447270422E-03  0.17251256722E-01  0.00000000000E+00 0.  1.
     999901    1    3    3    0    0  0.77121491137E-01  0.21772366838E-01  0.95386474572E-01  0.88877462829E+00  0.88000000000E+00 0.  1.
        -11    1    4    4    0    0 -0.39500988147E-01 -0.18588347078E-01 -0.69455474608E-01  0.82037666872E-01  0.51100000000E-03 0.  1.
         11    1    4    4    0    0 -0.48506608417E-01  0.10197740806E-01 -0.25766527259E-01  0.55866448121E-01  0.51100000000E-03 0. -1.
</event>
<event>
 8    1  0.2025822E+004  0.1043930E+01  0.7957747E-01            NaN
         13   -1    0    0    0    0  0.00000000000E+00  0.00000000000E+00  0.74505805969E-08  0.10566000000E+00  0.10566000000E+00 0. -1.
     999900   -1    0    0    0    0 -0.00000000000E+00 -0.00000000000E+00 -0.74505805969E-08  0.93827000000E+00  0.93827000000E+00 0. -1.
     999902    2    1    2    0    0 -0.23551057846E-02 -0.54082339030E-02 -0.12789887825E-01  0.10298453719E+01  0.10297490536E+01 0.  0.
     999903    2    3    3    0    0 -0.12145377270E+00 -0.49867584066E-01  0.21577177463E-01  0.14004639382E+00  0.43699233292E-01 0.  0.
         14    1    1    2    0    0  0.23551057846E-02  0.54082339030E-02  0.12789887825E-01  0.14084628067E-01  0.00000000000E+00 0. -1.
     999901    1    3    3    0    0  0.11909866692E+00  0.44459350163E-01 -0.34367065289E-01  0.88979897812E+00  0.88000000000E+00 0.  1.
        -11    1    4    4    0    0 -0.10503980622E-01 -0.11662216564E-01 -0.98867898165E-02  0.18556687150E-01  0.51100000000E-03 0. -1.
         11    1    4    4    0    0 -0.11094979208E+00 -0.38205367502E-01  0.31463967280E-01  0.12148970667E+00  0.51100000000E-03 0.  1.
</event>
<event>
 7    1  0.2025822E+004  0.1043930E+01  0.7957747E-01            NaN
         13   -1    0    0    0    0  0.00000000000E+00  0.00000000000E+00  0.74505805969E-08  0.10566000000E+00  0.10566000000E+00 0.  1.
     999900   -1    0    0    0    0 -0.00000000000E+00 -0.00000000000E+00 -0.74505805969E-08  0.93827000000E+00  0.93827000000E+00 0. -1.
     999903    2    1    2    0    0  0.23350523055E-01  0.15751003567E-01 -0.61427482984E-01  0.81189331347E-01  0.45000342427E-01 0.  0.
         14    1    1    2    0    0 -0.70060438913E-01  0.36576990583E-02  0.40569282184E-01  0.81041412377E-01  0.00000000000E+00 0.  1.
     999901    1    1    2    0    0  0.46709915858E-01 -0.19408702626E-01  0.20858200799E-01  0.88169925628E+00  0.88000000000E+00 0.  1.
        -11    1    3    3    0    0 -0.12492808163E-01  0.74598437741E-02 -0.27619452611E-01  0.31222024413E-01  0.51100000000E-03 0. -1.
         11    1    3    3    0    0  0.35843331218E-01  0.82911597932E-02 -0.33808030373E-01  0.49967306934E-01  0.51100000000E-03 0.  1.
</event>
<event>
 8    1  0.2025822E+004  0.1043930E+01  0.7957747E-01            NaN
         13   -1    0    0    0    0  0.00000000000E+00  0.00000000000E+00  0.74505805969E-08  0.10566000000E+00  0.10566000000E+00 0.  1.
     999900   -1    0    0    0    0 -0.00000000000E+00 -0.00000000000E+00 -0.74505805969E-08  0.93827000000E+00  0.93827000000E+00 0. -1.
     999902    2    1    2    0    0 -0.11112796740E-02  0.11213901422E-01 -0.70741414962E-02  0.10306247377E+01  0.10305388493E+01 0.  0.
     999903    2    3    3    0    0 -0.25975829660E-01 -0.12424430732E+00 -0.34369178109E-01  0.13949501020E+00  0.46542731324E-01 0.  0.
         14    1    1    2    0    0  0.11112796740E-02 -0.11213901422E-01  0.70741414962E-02  0.13305262324E-01  0.00000000000E+00 0.  1.
     999901    1    3    3    0    0  0.24864549986E-01  0.13545820874E+00  0.27295036613E-01  0.89112972747E+00  0.88000000000E+00 0.  1.
        -11    1    4    4    0    0 -0.27499369021E-01 -0.31681016051E-01 -0.43833980844E-02  0.42182666752E-01  0.51100000000E-03 0. -1.
         11    1    4    4    0    0  0.15235393606E-02 -0.92563291271E-01 -0.29985780025E-01  0.97312343451E-01  0.51100000000E-03 0.  1.
</event>
<event>
 8    1  0.2025822E+004  0.1043930E+01  0.7957747E-01            NaN
         13   -1    0    0    0    0  0.00000000000E+00  0.00000000000E+00  0.74505805969E-08  0.10566000000E+00  0.10566000000E+00 0.  1.
     999900   -1    0    0    0    0 -0.00000000000E+00 -0.00000000000E+00 -0.74505805969E-08  0.93827000000E+00  0.93827000000E+00 0.  1.
     999902    2    1    2    0    0  0.95309732747E-02  0.82192590141E-02 -0.53609889376E-02  0.10302502386E+01  0.10301594140E+01 0.  0.
     999903    2    3    3    0    0  0.24494501270E-01 -0.90457123739E-01  0.93045318476E-01  0.13915835946E+00  0.43876484472E-01 0.  0.
         14    1    1    2    0    0 -0.95309732747E-02 -0.82192590141E-02  0.53609889376E-02  0.13679761427E-01  0.00000000000E+00 0.  1.
     999901    1    3    3    0    0 -0.14963527995E-01  0.98676382753E-01 -0.98406307413E-01  0.89109187911E+00  0.88000000000E+00 0.  1.
        -11    1    4    4    0    0  0.22965520048E-01 -0.90808637977E-01  0.72245678124E-01  0.11829337670E+00  0.51100000000E-03 0. -1.
         11    1    4    4    0    0  0.15289812223E-02  0.35151423775E-03  0.20799640352E-01  0.20864982761E-01  0.51100000000E-03 0.  1.
</event>
<event>
 8    1  0.2025822E+004  0.1043930E+01  0.7957747E-01            NaN
         13   -1    0    0    0    0  0.00000000000E+00  0.00000000000E+00  0.74505805969E-08  0.10566000000E+00  0.10566000000E+00 0.  1.
     999900   -1    0    0    0    0 -0.00000000000E+00 -0.00000000000E+00 -0.74505805969E-08  0.93827000000E+00  0.93827000000E+00 0. -1.
     999902    2    1    2    0    0 -0.23774879445E-02  0.31976054600E-02  0.12988852372E-01  0.10303437049E+01  0.10302541253E+01 0.  0.
     999903    2    3    3    0    0 -0.51489024680E-01  0.37624044277E-01 -0.11473991509E+00  0.13910200882E+00  0.46015566620E-01 0.  0.
         14    1    1    2    0    0  0.23774879445E-02 -0.31976054600E-02 -0.12988852372E-01  0.13586295137E-01  0.00000000000E+00 0. -1.
     999901    1    3    3    0    0  0.49111536736E-01 -0.34426438817E-01  0.12772876747E+00  0.89124169604E+00  0.88000000000E+00 0.  1.
        -11    1    4    4    0    0 -0.28402920923E-01  0.69817882323E-02 -0.16387434483E-01  0.33530290989E-01  0.51100000000E-03 0.  1.
         11    1    4    4    0    0 -0.23086103757E-01  0.30642256045E-01 -0.98352480611E-01  0.10557171783E+00  0.51100000000E-03 0. -1.
</event>
<event>
 8    1  0.2025822E+004  0.1043930E+01  0.7957747E-01            NaN
         13   -1    0    0    0    0  0.00000000000E+00  0.00000000000E+00  0.74505805969E-08  0.10566000000E+00  0.10566000000E+00 0. -1.
     999900   -1    0    0    0    0 -0.00000000000E+00 -0.00000000000E+00 -0.74505805969E-08  0.93827000000E+00  0.93827000000E+00 0.  1.
     999902    2    1    2    0    0  0.11123769852E-01  0.78881925634E-02 -0.18325252015E-02  0.10301706400E+01  0.10300787483E+01 0.  0.
     999903    2    3    3    0    0  0.38928510639E-01 -0.12489294641E+00 -0.17074614717E-01  0.13964480900E+00  0.45776120503E-01 0.  0.
         14    1    1    2    0    0 -0.11123769852E-01 -0.78881925634E-02  0.18325252015E-02  0.13759359951E-01  0.00000000000E+00 0. -1.
     999901    1    3    3    0    0 -0.27804740787E-01  0.13278113897E+00  0.15242089515E-01  0.89052583105E+00  0.88000000000E+00 0. -1.
        -11    1    4    4    0    0  0.48217042039E-01 -0.87724575427E-01 -0.91674023111E-02  0.10052256793E+00  0.51100000000E-03 0. -1.
         11    1    4    4    0    0 -0.92885314001E-02 -0.37168370984E-01 -0.79072124058E-02  0.39122241069E-01  0.51100000000E-03 0.  1.
</event>
<event>
 8    1  0.2025822E+004  0.1043930E+01  0.7957747E-01            NaN
         13   -1    0    0    0    0  0.00000000000E+00  0.00000000000E+00  0.74505805969E-08  0.10566000000E+00  0.10566000000E+00 0. -1.
     999900   -1    0    0    0    0 -0.00000000000E+00 -0.00000000000E+00 -0.74505805969E-08  0.93827000000E+00  0.93827000000E+00 0.  1.
     999902    2    1    2    0    0  0.91295845198E-02 -0.10671890954E-01 -0.71305290791E-03  0.10298677450E+01  0.10297717345E+01 0.  0.
     999903    2    3    3    0    0 -0.29653391890E-01  0.53960736329E-01  0.11588142907E+00  0.13898292140E+00  0.45789323218E-01 0.  0.
         14    1    1    2    0    0 -0.91295845198E-02  0.10671890954E-01  0.71305290791E-03  0.14062254957E-01  0.00000000000E+00 0.  1.
     999901    1    3    3    0    0  0.38782976410E-01 -0.64632627283E-01 -0.11659448198E+00  0.89088482364E+00  0.88000000000E+00 0.  1.
        -11    1    4    4    0    0  0.11701545149E-01  0.20164771959E-01  0.35648848115E-01  0.42598658195E-01  0.51100000000E-03 0. -1.
         11    1    4    4    0    0 -0.41354937040E-01  0.33795964370E-01  0.80232580958E-01  0.96384263205E-01  0.51100000000E-03 0.  1.
</event>
<event>
 8    1  0.2025822E+004  0.1043930E+01  0.7957747E-01            NaN
         13   -1    0    0    0    0  0.00000000000E+00  0.00000000000E+00  0.74505805969E-08  0.10566000000E+00  0.10566000000E+00 0.  1.
     999900   -1    0    0    0    0 -0.00000000000E+00 -0.00000000000E+00 -0.74505805969E-08  0.93827000000E+00  0.93827000000E+00 0.  1.
     999902    2    1    2    0    0  0.95934482640E-02 -0.10184612134E-02 -0.69847410608E-02  0.10320195793E+01  0.10319508486E+01 0.  0.
     999903    2    3    3    0    0  0.76039138941E-01 -0.99544190824E-01  0.50569035184E-01  0.14216858823E+00  0.44313469530E-01 0.  0.
         14    1    1    2    0    0 -0.95934482640E-02  0.10184612134E-02  0.69847410608E-02  0.11910420669E-01  0.00000000000E+00 0.  1.
     999901    1    3    3    0    0 -0.66445690677E-01  0.98525729611E-01 -0.57553776245E-01  0.88985099110E+00  0.88000000000E+00 0.  1.
        -11    1    4    4    0    0  0.63612661056E-01 -0.90717016817E-01  0.26910104718E-01  0.11402000984E+00  0.51100000000E-03 0. -1.
         11    1    4    4    0    0  0.12426477885E-01 -0.88271740072E-02  0.23658930465E-01  0.28148578389E-01  0.51100000000E-03 0.  1.
</event>
<event>
 8    1  0.2025822E+004  0.1043930E+01  0.7957747E-01            NaN
         13   -1    0    0    0    0  0.00000000000E+00  0.00000000000E+00  0.74505805969E-08  0.10566000000E+00  0.10566000000E+00 0. -1.
     999900   -1    0    0    0    0 -0.00000000000E+00 -0.00000000000E+00 -0.74505805969E-08  0.93827000000E+00  0.93827000000E+00 0. -1.
     999902    2    1    2    0    0 -0.54838687066E-02 -0.71342733924E-02 -0.10872146943E-01  0.10298170892E+01  0.10297203809E+01 0.  0.
     999903    2    3    3    0    0  0.16961141149E-02 -0.12331786992E+00  0.49667618121E-01  0.14008946602E+00  0.44136292933E-01 0.  0.
         14    1    1    2    0    0  0.54838687066E-02  0.71342733924E-02  0.10872146943E-01  0.14112910826E-01  0.00000000000E+00 0. -1.
     999901    1    3    3    0    0 -0.71799828215E-02  0.11618359653E+00 -0.60539765064E-01  0.88972762316E+00  0.88000000000E+00 0. -1.
        -11    1    4    4    0    0  0.20816873043E-01 -0.70562775622E-01  0.37875636164E-01  0.82748247369E-01  0.51100000000E-03 0.  1.
         11    1    4    4    0    0 -0.19120758928E-01 -0.52755094299E-01  0.11791981957E-01  0.57341218647E-01  0.51100000000E-03 0. -1.
</event>
<event>
 8    1  0.2025822E+004  0.1043930E+01  0.7957747E-01            NaN
         13   -1    0    0    0    0  0.00000000000E+00  0.00000000000E+00  0.74505805969E-08  0.10566000000E+00  0.10566000000E+00 0.  1.
     999900   -1    0    0    0    0 -0.00000000000E+00 -0.00000000000E+00 -0.74505805969E-08  0.93827000000E+00  0.93827000000E+00 0. -1.
     999902    2    1    2    0    0  0.11421160528E-02  0.12609607457E-01  0.51540625986E-02  0.10302599235E+01  0.10301692284E+01 0.  0.
     999903    2    3    3    0    0  0.13067863083E-02  0.37507901790E-01  0.12862036362E+00  0.14129205029E+00  0.44851924691E-01 0.  0.
         14    1    1    2    0    0 -0.11421160528E-02 -0.12609607457E-01 -0.51540625986E-02  0.13670076465E-01  0.00000000000E+00 0. -1.
     999901    1    3    3    0    0 -0.16467025546E-03 -0.24898294333E-01 -0.12346630103E+00  0.88896787325E+00  0.88000000000E+00 0. -1.
        -11    1    4    4    0    0 -0.14026090072E-01  0.16566168950E-01  0.19689273323E-01  0.29310369519E-01  0.51100000000E-03 0.  1.
         11    1    4    4    0    0  0.15332876380E-01  0.20941732840E-01  0.10893109030E+00  0.11198168077E+00  0.51100000000E-03 0. -1.
</event>
<event>
 8    1  0.2025822E+004  0.1043930E+01  0.7957747E-01            NaN
         13   -1    0    0    0    0  0.00000000000E+00  0.00000000000E+00  0.74505805969E-08  0.10566000000E+00  0.10566000000E+00 0. -1.
     999900   -1    0    0    0    0 -0.00000000000E+00 -0.00000000000E+00 -0.74505805969E-08  0.93827000000E+00  0.93827000000E+00 0. -1.
     999902    2    1    2    0    0 -0.14416049365E-02  0.83799949457E-02  0.13275479147E-01  0.10281648204E+01  0.10280439471E+01 0.  0.
     999903    2    3    3    0    0  0.90292973300E-01 -0.90015101451E-01 -0.23582646728E-01  0.13717921490E+00  0.44793484528E-01 0.  0.
         14    1    1    2    0    0  0.14416049365E-02 -0.83799949457E-02 -0.13275479147E-01  0.15765179563E-01  0.00000000000E+00 0.  1.
     999901    1    3    3    0    0 -0.91734578236E-01  0.98395096396E-01  0.36858125875E-01  0.89098560554E+00  0.88000000000E+00 0.  1.
        -11    1    4    4    0    0  0.87596211393E-01 -0.90211116431E-01 -0.13195635013E-01  0.12643388661E+00  0.51100000000E-03 0. -1.
         11    1    4    4    0    0  0.26967619067E-02  0.19601498046E-03 -0.10387011715E-01  0.10745328288E-01  0.51100000000E-03 0.  1.
</event>
<event>
 8    1  0.2025822E+004  0.1043930E+01  0.7957747E-01            NaN
         13   -1    0    0    0    0  0.00000000000E+00  0.00000000000E+00  0.74505805969E-08  0.10566000000E+00  0.10566000000E+00 0. -1.
     999900   -1    0    0    0    0 -0.00000000000E+00 -0.00000000000E+00 -0.74505805969E-08  0.93827000000E+00  0.93827000000E+00 0. -1.
     999902    2    1    2    0    0  0.35601838777E-02 -0.16035436504E-02  0.13421650537E-01  0.10299519113E+01  0.10298570544E+01 0.  0.
     999903    2    3    3    0    0 -0.26323219181E-02 -0.13204867477E+00  0.16494390702E-01  0.14030944314E+00  0.44394743875E-01 0.  0.
         14    1    1    2    0    0 -0.35601838777E-02  0.16035436504E-02 -0.13421650537E-01  0.13978088733E-01  0.00000000000E+00 0.  1.
     999901    1    3    3    0    0  0.61925057959E-02  0.13044513112E+00 -0.30727401644E-02  0.88964246813E+00  0.88000000000E+00 0. -1.
        -11    1    4    4    0    0  0.17386587925E-01 -0.67237475613E-01  0.20333939432E-01  0.72366440981E-01  0.51100000000E-03 0. -1.
         11    1    4    4    0    0 -0.20018909843E-01 -0.64811199154E-01 -0.38395487301E-02  0.67943002161E-01  0.51100000000E-03 0.  1.
</event>
<event>
 8    1  0.2025822E+004  0.1043930E+01  0.7957747E-01            NaN
         13   -1    0    0    0    0  0.00000000000E+00  0.00000000000E+00  0.74505805969E-08  0.10566000000E+00  0.10566000000E+00 0. -1.
     999900   -1    0    0    0    0 -0.00000000000E+00 -0.00000000000E+00 -0.74505805969E-08  0.93827000000E+00  0.93827000000E+00 0.  1.
     999902    2    1    2    0    0 -0.26181713177E-02  0.73943795207E-02 -0.10579377242E-01  0.10307597725E+01  0.10306756297E+01 0.  0.
     999903    2    3    3    0    0  0.32614291911E-01  0.64225767776E-01  0.11151731985E+00  0.13981716122E+00  0.43864389445E-01 0.  0.
         14    1    1    2    0    0  0.26181713177E-02 -0.73943795207E-02  0.10579377242E-01  0.13170227499E-01  0.00000000000E+00 0. -1.
     999901    1    3    3    0    0 -0.35232463228E-01 -0.56831388255E-01 -0.12209669709E+00  0.89094261128E+00  0.88000000000E+00 0.  1.
        -11    1    4    4    0    0  0.38046524029E-01  0.27136274321E-01  0.58265780965E-01  0.74693224105E-01  0.51100000000E-03 0. -1.
         11    1    4    4    0    0 -0.54322321186E-02  0.37089493455E-01  0.53251538886E-01  0.65123937114E-01  0.51100000000E-03 0.  1.
</event>
<event>
 8    1  0.2025822E+004  0.1043930E+01  0.7957747E-01            NaN
         13   -1    0    0    0    0  0.00000000000E+00  0.00000000000E+00  0.74505805969E-08  0.10566000000E+00  0.10566000000E+00 0. -1.
     999900   -1    0    0    0    0 -0.00000000000E+00 -0.00000000000E+00 -0.74505805969E-08  0.93827000000E+00  0.93827000000E+00 0. -1.
     999902    2    1    2    0    0  0.11734591665E-01  0.84894864324E-02  0.80352682597E-03  0.10294242192E+01  0.10293220125E+01 0.  0.
     999903    2    3    3    0    0 -0.31691678087E-01 -0.68023136797E-01  0.10830732032E+00  0.13852743054E+00  0.42753523567E-01 0.  0.
         14    1    1    2    0    0 -0.11734591665E-01 -0.84894864324E-02 -0.80352682597E-03  0.14505780806E-01  0.00000000000E+00 0.  1.
     999901    1    3    3    0    0  0.43426269752E-01  0.76512623229E-01 -0.10750379349E+00  0.89089678865E+00  0.88000000000E+00 0. -1.
        -11    1    4    4    0    0 -0.16432496147E-01 -0.67595577649E-01  0.77506445868E-01  0.10414748830E+00  0.51100000000E-03 0. -1.
         11    1    4    4    0    0 -0.15259181940E-01 -0.42755914738E-03  0.30800874452E-01  0.34379942239E-01  0.51100000000E-03 0.  1.
</event>
<event>
 8    1  0.2025822E+004  0.1043930E+01  0.7957747E-01            NaN
         13   -1    0    0    0    0  0.00000000000E+00  0.00000000000E+00  0.74505805969E-08  0.10566000000E+00  0.10566000000E+00 0. -1.
     999900   -1    0    0    0    0 -0.00000000000E+00 -0.00000000000E+00 -0.74505805969E-08  0.93827000000E+00  0.93827000000E+00 0.  1.
     999902    2    1    2    0    0  0.84051363766E-04 -0.72449398494E-02 -0.11683536636E-01  0.10301822276E+01  0.10300904916E+01 0.  0.
     999903    2    3    3    0    0  0.36581596481E-01 -0.12842956819E+00 -0.12034074084E-01  0.14112772542E+00  0.44043714157E-01 0.  0.
         14    1    1    2    0    0 -0.84051363766E-04  0.72449398494E-02  0.11683536636E-01  0.13747772415E-01  0.00000000000E+00 0. -1.
     999901    1    3    3    0    0 -0.36497545117E-01  0.12118462834E+00  0.35053744829E-03  0.88905450217E+00  0.88000000000E+00 0. -1.
        -11    1    4    4    0    0  0.21804203924E-01 -0.32790284996E-01  0.12451073785E-01  0.41302741534E-01  0.51100000000E-03 0. -1.
         11    1    4    4    0    0  0.14777392557E-01 -0.95639283193E-01 -0.24485147869E-01  0.99824983885E-01  0.51100000000E-03 0.  1.
</event>
<event>
 7    1  0.2025822E+004  0.1043930E+01  0.7957747E-01            NaN
         13   -1    0    0    0    0  0.00000000000E+00  0.00000000000E+00  0.74505805969E-08  0.10566000000E+00  0.10566000000E+00 0. -1.
     999900   -1    0    0    0    0 -0.00000000000E+00 -0.00000000000E+00 -0.74505805969E-08  0.93827000000E+00  0.93827000000E+00 0.  1.
     999903    2    1    2    0    0  0.14881437247E-03  0.21970896005E-01  0.97859541976E-01  0.11011353956E+00  0.45450624006E-01 0.  0.
         14    1    1    2    0    0  0.27653774003E-01  0.36810101942E-01 -0.94426018899E-02  0.46998697344E-01  0.00000000000E+00 0.  1.
     999901    1    1    2    0    0 -0.27802588376E-01 -0.58780997947E-01 -0.88416940087E-01  0.88681776309E+00  0.88000000000E+00 0.  1.
        -11    1    3    3    0    0  0.35730017540E-02  0.33802866484E-01  0.87966506468E-01  0.94306773379E-01  0.51100000000E-03 0. -1.
         11    1    3    3    0    0 -0.34241873816E-02 -0.11831970479E-01  0.98930355088E-02  0.15806766185E-01  0.51100000000E-03 0.  1.
</event>
<event>
 8    1  0.2025822E+004  0.1043930E+01  0.7957747E-01            NaN
         13   -1    0    0    0    0  0.00000000000E+00  0.00000000000E+00  0.74505805969E-08  0.10566000000E+00  0.10566000000E+00 0.  1.
     999900   -1    0    0    0    0 -0.00000000000E+00 -0.00000000000E+00 -0.74505805969E-08  0.93827000000E+00  0.93827000000E+00 0. -1.
     999902    2    1    2    0    0  0.53656212214E-02  0.53117778133E-03 -0.13067510206E-01  0.10297938101E+01  0.10296967804E+01 0.  0.
     999903    2    3    3    0    0 -0.57974751323E-01  0.41900492708E-01  0.10920562449E+00  0.13812450906E+00  0.45119713020E-01 0.  0.
         14    1    1    2    0    0 -0.53656212214E-02 -0.53117778133E-03  0.13067510206E-01  0.14136189866E-01  0.00000000000E+00 0.  1.
     999901    1    3    3    0    0  0.63340372544E-01 -0.41369314927E-01 -0.12227313469E+00  0.89166930107E+00  0.88000000000E+00 0. -1.
        -11    1    4    4    0    0 -0.47641489402E-01  0.41125038267E-01  0.11099392773E+00  0.12759660419E+00  0.51100000000E-03 0. -1.
         11    1    4    4    0    0 -0.10333261921E-01  0.77545444128E-03 -0.17883032468E-02  0.10527904873E-01  0.51100000000E-03 0.  1.
</event>
<event>
 8    1  0.2025822E+004  0.1043930E+01  0.7957747E-01            NaN
         13   -1    0    0    0    0  0.00000000000E+00  0.00000000000E+00  0.74505805969E-08  0.10566000000E+00  0.10566000000E+00 0.  1.
     999900   -1    0    0    0    0 -0.00000000000E+00 -0.00000000000E+00 -0.74505805969E-08  0.93827000000E+00  0.93827000000E+00 0. -1.
     999902    2    1    2    0    0 -0.77921331002E-02  0.80839643831E-02  0.82044867810E-02  0.10300238351E+01  0.10299299585E+01 0.  0.
     999903    2    3    3    0    0 -0.44217250578E-01 -0.66407715838E-01 -0.10432002584E+00  0.13899209295E+00  0.45508066771E-01 0.  0.
         14    1    1    2    0    0  0.77921331002E-02 -0.80839643831E-02 -0.82044867810E-02  0.13906164882E-01  0.00000000000E+00 0. -1.
     999901    1    3    3    0    0  0.36425117478E-01  0.74491680221E-01  0.11252451262E+00  0.89103174216E+00  0.88000000000E+00 0.  1.
        -11    1    4    4    0    0 -0.16702319711E-01 -0.57176255865E-01 -0.51599637757E-01  0.78809107698E-01  0.51100000000E-03 0. -1.
         11    1    4    4    0    0 -0.27514930867E-01 -0.92314599724E-02 -0.52720388080E-01  0.60182985254E-01  0.51100000000E-03 0.  1.
</event>
<event>
 8    1  0.2025822E+004  0.1043930E+01  0.7957747E-01            NaN
         13   -1    0    0    0    0  0.00000000000E+00  0.00000000000E+00  0.74505805969E-08  0.10566000000E+00  0.10566000000E+00 0.  1.
     999900   -1    0    0    0    0 -0.00000000000E+00 -0.00000000000E+00 -0.74505805969E-08  0.93827000000E+00  0.93827000000E+00 0.  1.
     999902    2    1    2    0    0 -0.56076963674E-02  0.12730163846E-01 -0.12307320929E-02  0.10299651143E+01  0.10298704378E+01 0.  0.
     999903    2    3    3    0    0 -0.12138256630E+00 -0.14366465332E-01  0.52364458656E-01  0.14035256255E+00  0.44907488874E-01 0.  0.
         14    1    1    2    0    0  0.56076963674E-02 -0.12730163846E-01  0.12307320929E-02  0.13964885663E-01  0.00000000000E+00 0. -1.
     999901    1    3    3    0    0  0.11577486993E+00  0.27096629179E-01 -0.53595190749E-01  0.88961255178E+00  0.88000000000E+00 0. -1.
        -11    1    4    4    0    0 -0.64380293953E-01  0.14463022240E-01  0.21453175200E-01  0.69386606121E-01  0.51100000000E-03 0.  1.
         11    1    4    4    0    0 -0.57002272347E-01 -0.28829487572E-01  0.30911283456E-01  0.70965956432E-01  0.51100000000E-03 0. -1.
</event>
<event>
 8    1  0.2025822E+004  0.1043930E+01  0.7957747E-01            NaN
         13   -1    0    0    0    0  0.00000000000E+00  0.00000000000E+00  0.74505805969E-08  0.10566000000E+00  0.10566000000E+00 0.  1.
     999900   -1    0    0    0    0 -0.00000000000E+00 -0.00000000000E+00 -0.74505805969E-08  0.93827000000E+00  0.93827000000E+00 0. -1.
     999902    2    1    2    0    0  0.13624302551E-01  0.45344638822E-02  0.61250243219E-03  0.10295578693E+01  0.10294575504E+01 0.  0.
     999903    2    3    3    0    0 -0.97910924180E-01 -0.10169330413E-01 -0.86110522339E-01  0.13816727508E+00  0.44555689774E-01 0.  0.
         14    1    1    2    0    0 -0.13624302551E-01 -0.45344638822E-02 -0.61250243219E-03  0.14372130737E-01  0.00000000000E+00 0.  1.
     999901    1    3    3    0    0  0.11153522673E+00  0.14703794295E-01  0.86723024771E-01  0.89139059418E+00  0.88000000000E+00 0. -1.
        -11    1    4    4    0    0 -0.28248494299E-01  0.17109792486E-01 -0.30376915084E-01  0.44874720279E-01  0.51100000000E-03 0. -1.
         11    1    4    4    0    0 -0.69662429880E-01 -0.27279122899E-01 -0.55733607255E-01  0.93292554803E-01  0.51100000000E-03 0.  1.
</event>
<event>
 8    1  0.2025822E+004  0.1043930E+01  0.7957747E-01            NaN
         13   -1    0    0    0    0  0.00000000000E+00  0.00000000000E+00  0.74505805969E-08  0.10566000000E+00  0.10566000000E+00 0.  1.
     999900   -1    0    0    0    0 -0.00000000000E+00 -0.00000000000E+00 -0.74505805969E-08  0.93827000000E+00  0.93827000000E+00 0.  1.
     999902    2    1    2    0    0  0.96087715333E-03 -0.12554132011E-01  0.53208356471E-02  0.10302610276E+01  0.10301703471E+01 0.  0.
     999903    2    3    3    0    0 -0.79839595909E-01  0.83112573186E-01  0.65132753899E-01  0.13938600799E+00  0.43636254395E-01 0.  0.
         14    1    1    2    0    0 -0.96087715333E-03  0.12554132011E-01 -0.53208356471E-02  0.13668972435E-01  0.00000000000E+00 0. -1.
     999901    1    3    3    0    0  0.80800473062E-01 -0.95666705197E-01 -0.59811918252E-01  0.89087501957E+00  0.88000000000E+00 0.  1.
        -11    1    4    4    0    0 -0.30746577372E-01  0.61311740376E-01  0.28016827541E-01  0.74092410370E-01  0.51100000000E-03 0.  1.
         11    1    4    4    0    0 -0.49093018537E-01  0.21800832811E-01  0.37115926357E-01  0.65293597624E-01  0.51100000000E-03 0. -1.
</event>
<event>
 8    1  0.2025822E+004  0.1043930E+01  0.7957747E-01            NaN
         13   -1    0    0    0    0  0.00000000000E+00  0.00000000000E+00  0.74505805969E-08  0.10566000000E+00  0.10566000000E+00 0.  1.
     999900   -1    0    0    0    0 -0.00000000000E+00 -0.00000000000E+00 -0.74505805969E-08  0.93827000000E+00  0.93827000000E+00 0. -1.
     999902    2    1    2    0    0 -0.98441911002E-02 -0.58531568667E-02 -0.82617523249E-02  0.10298082404E+01  0.10297114100E+01 0.  0.
     999903    2    3    3    0    0 -0.84919710603E-01 -0.78945480353E-01 -0.66530592802E-01  0.14167870074E+00  0.46933872075E-01 0.  0.
         14    1    1    2    0    0  0.98441911002E-02  0.58531568667E-02  0.82617523249E-02  0.14121759635E-01  0.00000000000E+00 0.  1.
     999901    1    3    3    0    0  0.75075519503E-01  0.73092323486E-01  0.58268840477E-01  0.88812953962E+00  0.88000000000E+00 0.  1.
        -11    1    4    4    0    0 -0.14708521044E-01 -0.38862987176E-01 -0.36890089609E-01  0.55568086127E-01  0.51100000000E-03 0.  1.
         11    1    4    4    0    0 -0.70211189559E-01 -0.40082493177E-01 -0.29640503193E-01  0.86110614614E-01  0.51100000000E-03 0. -1.
</event>
<event>
 8    1  0.2025822E+004  0.1043930E+01  0.7957747E-01            NaN
         13   -1    0    0    0    0  0.00000000000E+00  0.00000000000E+00  0.74505805969E-08  0.10566000000E+00  0.10566000000E+00 0.  1.
     999900   -1    0    0    0    0 -0.00000000000E+00 -0.00000000000E+00 -0.74505805969E-08  0.93827000000E+00  0.93827000000E+00 0.  1.
     999902    2    1    2    0    0 -0.19217596848E-02 -0.13386342773E-01 -0.25186017531E-02  0.10301738854E+01  0.10300820373E+01 0.  0.
     999903    2    3    3    0    0  0.85983299335E-01 -0.21617478569E-01  0.98844488320E-01  0.13996631019E+00  0.44270667176E-01 0.  0.
         14    1    1    2    0    0  0.19217596848E-02  0.13386342773E-01  0.25186017531E-02  0.13756114564E-01  0.00000000000E+00 0.  1.
     999901    1    3    3    0    0 -0.87905059020E-01  0.82311357956E-02 -0.10136309007E+00  0.89020757525E+00  0.88000000000E+00 0.  1.
        -11    1    4    4    0    0  0.95003088636E-02 -0.12187891548E-01  0.40368409391E-01  0.43228117778E-01  0.51100000000E-03 0. -1.
         11    1    4    4    0    0  0.76482990472E-01 -0.94295870209E-02  0.58476078930E-01  0.96738192411E-01  0.51100000000E-03 0.  1.
</event>
<event>
 8    1  0.2996948E+004  0.1043930E+01  0.7957747E-01            NaN
         13   -1    0    0    0    0  0.00000000000E+00  0.00000000000E+00  0.74505805969E-08  0.10566000000E+00  0.10566000000E+00 0.  1.
     999900   -1    0    0    0    0 -0.00000000000E+00 -0.00000000000E+00 -0.74505805969E-08  0.93827000000E+00  0.93827000000E+00 0.  1.
     999902    2    1    2    0    0 -0.13310791721E-01 -0.89356367917E-02 -0.68583076037E-03  0.10278834071E+01  0.10277581454E+01 0.  0.
     999903    2    3    3    0    0  0.71879743468E-01  0.48776730768E-01 -0.95279452157E-01  0.13685248848E+00  0.45875512149E-01 0.  0.
         14    1    1    2    0    0  0.13310791721E-01  0.89356367917E-02  0.68583076037E-03  0.16046592939E-01  0.00000000000E+00 0. -1.
     999901    1    3    3    0    0 -0.85190535189E-01 -0.57712367560E-01  0.94593621397E-01  0.89103091858E+00  0.88000000000E+00 0. -1.
        -11    1    4    4    0    0  0.45665248581E-01  0.34782739557E-01 -0.29218144052E-01  0.64413624039E-01  0.51100000000E-03 0. -1.
         11    1    4    4    0    0  0.26214494887E-01  0.13993991211E-01 -0.66061308105E-01  0.72438864443E-01  0.51100000000E-03 0.  1.
</event>
<event>
 8    1  0.2025822E+004  0.1043930E+01  0.7957747E-01            NaN
         13   -1    0    0    0    0  0.00000000000E+00  0.00000000000E+00  0.74505805969E-08  0.10566000000E+00  0.10566000000E+00 0. -1.
     999900   -1    0    0    0    0 -0.00000000000E+00 -0.00000000000E+00 -0.74505805969E-08  0.93827000000E+00  0.93827000000E+00 0. -1.
     999902    2    1    2    0    0  0.79561602901E-02  0.34544845046E-02 -0.11927308436E-01  0.10291823006E+01  0.10290766314E+01 0.  0.
     999903    2    3    3    0    0 -0.39901950624E-01 -0.34050493238E-01  0.11870117295E+00  0.13746439554E+00  0.45330892655E-01 0.  0.
         14    1    1    2    0    0 -0.79561602901E-02 -0.34544845046E-02  0.11927308436E-01  0.14747699355E-01  0.00000000000E+00 0. -1.
     999901    1    3    3    0    0  0.47858110914E-01  0.37504977742E-01 -0.13062848138E+00  0.89171790510E+00  0.88000000000E+00 0. -1.
        -11    1    4    4    0    0 -0.15486189731E-01  0.10244701755E-01  0.36317832804E-01  0.40792426834E-01  0.51100000000E-03 0. -1.
         11    1    4    4    0    0 -0.24415760893E-01 -0.44295194993E-01  0.82383340143E-01  0.96671968706E-01  0.51100000000E-03 0.  1.
</event>
<event>
 8    1  0.2025822E+004  0.1043930E+01  0.7957747E-01            NaN
         13   -1    0    0    0    0  0.00000000000E+00  0.00000000000E+00  0.74505805969E-08  0.10566000000E+00  0.10566000000E+00 0.  1.
     999900   -1    0    0    0    0 -0.00000000000E+00 -0.00000000000E+00 -0.74505805969E-08  0.93827000000E+00  0.93827000000E+00 0.  1.
     999902    2    1    2    0    0 -0.46631142960E-02 -0.11934430111E-01  0.15410389898E-02  0.10310245725E+01  0.10309438002E+01 0.  0.
     999903    2    3    3    0    0 -0.42477188408E-01  0.56127964446E-01 -0.11352307811E+00  0.14012494586E+00  0.42342074373E-01 0.  0.
         14    1    1    2    0    0  0.46631142960E-02  0.11934430111E-01 -0.15410389898E-02  0.12905427470E-01  0.00000000000E+00 0. -1.
     999901    1    3    3    0    0  0.37814074112E-01 -0.68062394557E-01  0.11506411710E+00  0.89089962667E+00  0.88000000000E+00 0. -1.
        -11    1    4    4    0    0 -0.48657720113E-01  0.40448535015E-01 -0.10074662318E+00  0.11896974790E+00  0.51100000000E-03 0.  1.
         11    1    4    4    0    0  0.61805317044E-02  0.15679429432E-01 -0.12776454924E-01  0.21155197964E-01  0.51100000000E-03 0. -1.
</event>
<event>
 8    1  0.2025822E+004  0.1043930E+01  0.7957747E-01            NaN
         13   -1    0    0    0    0  0.00000000000E+00  0.00000000000E+00  0.74505805969E-08  0.10566000000E+00  0.10566000000E+00 0.  1.
     999900   -1    0    0    0    0 -0.00000000000E+00 -0.00000000000E+00 -0.74505805969E-08  0.93827000000E+00  0.93827000000E+00 0. -1.
     999902    2    1    2    0    0  0.96758245901E-02 -0.10650473853E-01 -0.17393250117E-02  0.10294358830E+01  0.10293338418E+01 0.  0.
     999903    2    3    3    0    0  0.37709574351E-01 -0.12808968405E+00  0.72349924163E-02  0.14114629198E+00  0.45176890851E-01 0.  0.
         14    1    1    2    0    0 -0.96758245901E-02  0.10650473853E-01  0.17393250117E-02  0.14494116954E-01  0.00000000000E+00 0. -1.
     999901    1    3    3    0    0 -0.28033749760E-01  0.11743921020E+00 -0.89743174280E-02  0.88828959106E+00  0.88000000000E+00 0.  1.
        -11    1    4    4    0    0  0.80055583115E-02 -0.92360325470E-01  0.15367419408E-01  0.93973067339E-01  0.51100000000E-03 0. -1.
         11    1    4    4    0    0  0.29704016039E-01 -0.35729358582E-01 -0.81324269915E-02  0.47173224644E-01  0.51100000000E-03 0.  1.
</event>
<event>
 8    1  0.2025822E+004  0.1043930E+01  0.7957747E-01            NaN
         13   -1    0    0    0    0  0.00000000000E+00  0.00000000000E+00  0.74505805969E-08  0.10566000000E+00  0.10566000000E+00 0. -1.
     999900   -1    0    0    0    0 -0.00000000000E+00 -0.00000000000E+00 -0.74505805969E-08  0.93827000000E+00  0.93827000000E+00 0. -1.
     999902    2    1    2    0    0 -0.21529110474E-02 -0.37387888567E-02  0.13137844425E-01  0.10301018937E+01  0.10300090751E+01 0.  0.
     999903    2    3    3    0    0 -0.10865831547E+00 -0.62194578453E-01  0.46916264720E-01  0.14111288240E+00  0.45132189990E-01 0.  0.
         14    1    1    2    0    0  0.21529110474E-02  0.37387888567E-02 -0.13137844425E-01  0.13828106314E-01  0.00000000000E+00 0.  1.
     999901    1    3    3    0    0  0.10650540443E+00  0.58455789597E-01 -0.33778420295E-01  0.88898901129E+00  0.88000000000E+00 0.  1.
        -11    1    4    4    0    0 -0.64803660089E-01 -0.29703006113E-01  0.35087481189E-02  0.71374753012E-01  0.51100000000E-03 0.  1.
         11    1    4    4    0    0 -0.43854655385E-01 -0.32491572340E-01  0.43407516602E-01  0.69738129388E-01  0.51100000000E-03 0. -1.
</event>
<event>
 8    1  0.2025822E+004  0.1043930E+01  0.7957747E-01            NaN
         13   -1    0    0    0    0  0.00000000000E+00  0.00000000000E+00  0.74505805969E-08  0.10566000000E+00  0.10566000000E+00 0. -1.
     999900   -1    0    0    0    0 -0.00000000000E+00 -0.00000000000E+00 -0.74505805969E-08  0.93827000000E+00  0.93827000000E+00 0.  1.
     999902    2    1    2    0    0  0.78184388898E-02 -0.97453228191E-02 -0.24492637128E-02  0.10311982210E+01  0.10311196210E+01 0.  0.
     999903    2    3    3    0    0  0.12160096869E-02 -0.10597061448E+00  0.82774597490E-01  0.14183552484E+00  0.45104681604E-01 0.  0.
         14    1    1    2    0    0 -0.78184388898E-02  0.97453228191E-02  0.24492637128E-02  0.12731778990E-01  0.00000000000E+00 0.  1.
     999901    1    3    3    0    0  0.66024292029E-02  0.96225291663E-01 -0.85223861203E-01  0.88936269617E+00  0.88000000000E+00 0.  1.
        -11    1    4    4    0    0  0.15261137259E-01 -0.10544826433E-01  0.10643133914E-01  0.21392360680E-01  0.51100000000E-03 0. -1.
         11    1    4    4    0    0 -0.14045127572E-01 -0.95425788049E-01  0.72131463576E-01  0.12044316416E+00  0.51100000000E-03 0.  1.
</event>
<event>
 8    1  0.2025822E+004  0.1043930E+01  0.7957747E-01            NaN
         13   -1    0    0    0    0  0.00000000000E+00  0.00000000000E+00  0.74505805969E-08  0.10566000000E+00  0.10566000000E+00 0.  1.
     999900   -1    0    0    0    0 -0.00000000000E+00 -0.00000000000E+00 -0.74505805969E-08  0.93827000000E+00  0.93827000000E+00 0. -1.
     999902    2    1    2    0    0  0.78013843699E-02  0.10992038777E-01 -0.22038018630E-02  0.10302719160E+01  0.10301813810E+01 0.  0.
     999903    2    3    3    0    0  0.11570403696E+00 -0.65897500822E-01  0.43263247891E-02  0.14032943123E+00  0.44087723915E-01 0.  0.
         14    1    1    2    0    0 -0.78013843699E-02 -0.10992038777E-01  0.22038018630E-02  0.13658083951E-01  0.00000000000E+00 0.  1.
     999901    1    3    3    0    0 -0.10790265259E+00  0.76889539599E-01 -0.65301266521E-02  0.88994248482E+00  0.88000000000E+00 0.  1.
        -11    1    4    4    0    0  0.86495045968E-01 -0.40251235901E-01  0.21556409142E-01  0.97808460087E-01  0.51100000000E-03 0.  1.
         11    1    4    4    0    0  0.29208990988E-01 -0.25646264921E-01 -0.17230084352E-01  0.42520971141E-01  0.51100000000E-03 0. -1.
</event>
<event>
 8    1  0.2025822E+004  0.1043930E+01  0.7957747E-01            NaN
         13   -1    0    0    0    0  0.00000000000E+00  0.00000000000E+00  0.74505805969E-08  0.10566000000E+00  0.10566000000E+00 0.  1.
     999900   -1    0    0    0    0 -0.00000000000E+00 -0.00000000000E+00 -0.74505805969E-08  0.93827000000E+00  0.93827000000E+00 0.  1.
     999902    2    1    2    0    0 -0.16572362504E-03  0.12923917679E-01 -0.45005872809E-02  0.10302438611E+01  0.10301529512E+01 0.  0.
     999903    2    3    3    0    0  0.46693222239E-01  0.12623658461E+00 -0.10460969058E-02  0.14173530468E+00  0.44405742622E-01 0.  0.
         14    1    1    2    0    0  0.16572362504E-03 -0.12923917679E-01  0.45005872809E-02  0.13686138914E-01  0.00000000000E+00 0. -1.
     999901    1    3    3    0    0 -0.46858945864E-01 -0.11331266693E+00 -0.34544903751E-02  0.88850855640E+00  0.88000000000E+00 0. -1.
        -11    1    4    4    0    0  0.30004295548E-01  0.90648167609E-01  0.19382566584E-01  0.97433531449E-01  0.51100000000E-03 0.  1.
         11    1    4    4    0    0  0.16688926691E-01  0.35588417003E-01 -0.20428663490E-01  0.44301773236E-01  0.51100000000E-03 0. -1.
</event>
<event>
 8    1  0.2025822E+004  0.1043930E+01  0.7957747E-01            NaN
         13   -1    0    0    0    0  0.00000000000E+00  0.00000000000E+00  0.74505805969E-08  0.10566000000E+00  0.10566000000E+00 0. -1.
     999900   -1    0    0    0    0 -0.00000000000E+00 -0.00000000000E+00 -0.74505805969E-08  0.93827000000E+00  0.93827000000E+00 0. -1.
     999902    2    1    2    0    0 -0.11032711896E-01 -0.43584711440E-03 -0.85353272826E-02  0.10299742662E+01  0.10298797146E+01 0.  0.
     999903    2    3    3    0    0  0.12001209633E+00 -0.55408327771E-02  0.51348426401E-01  0.13824287917E+00  0.45175531584E-01 0.  0.
         14    1    1    2    0    0  0.11032711896E-01  0.43584711440E-03  0.85353272826E-02  0.13955733815E-01  0.00000000000E+00 0.  1.
     999901    1    3    3    0    0 -0.13104480822E+00  0.51049856627E-02 -0.59883753683E-01  0.89173138702E+00  0.88000000000E+00 0. -1.
        -11    1    4    4    0    0  0.84837943683E-01 -0.19654130857E-01  0.20735060820E-01  0.89520754109E-01  0.51100000000E-03 0.  1.
         11    1    4    4    0    0  0.35174152643E-01  0.14113298080E-01  0.30613365581E-01  0.48722125057E-01  0.51100000000E-03 0. -1.
</event>
<event>
 8    1  0.2025822E+004  0.1043930E+01  0.7957747E-01            NaN
         13   -1    0    0    0    0  0.00000000000E+00  0.00000000000E+00  0.74505805969E-08  0.10566000000E+00  0.10566000000E+00 0. -1.
     999900   -1    0    0    0    0 -0.00000000000E+00 -0.00000000000E+00 -0.74505805969E-08  0.93827000000E+00  0.93827000000E+00 0.  1.
     999902    2    1    2    0    0  0.11330025374E-01  0.46296326800E-02 -0.51983340885E-02  0.10306324194E+01  0.10305466308E+01 0.  0.
     999903    2    3    3    0    0 -0.60820205686E-01  0.86006084851E-01 -0.81619195306E-01  0.14065043592E+00  0.44996755783E-01 0.  0.
         14    1    1    2    0    0 -0.11330025374E-01 -0.46296326800E-02  0.51983340885E-02  0.13297580645E-01  0.00000000000E+00 0. -1.
     999901    1    3    3    0    0  0.72150231059E-01 -0.81376452171E-01  0.76420861218E-01  0.88998198344E+00  0.88000000000E+00 0. -1.
        -11    1    4    4    0    0 -0.36482533529E-01  0.17047309978E-01 -0.38721539760E-01  0.55867743757E-01  0.51100000000E-03 0. -1.
         11    1    4    4    0    0 -0.24337672157E-01  0.68958774873E-01 -0.42897655547E-01  0.84782692163E-01  0.51100000000E-03 0.  1.
</event>
<event>
 8    1  0.2025822E+004  0.1043930E+01  0.7957747E-01            NaN
         13   -1    0    0    0    0  0.00000000000E+00  0.00000000000E+00  0.74505805969E-08  0.10566000000E+00  0.10566000000E+00 0. -1.
     999900   -1    0    0    0    0 -0.00000000000E+00 -0.00000000000E+00 -0.74505805969E-08  0.93827000000E+00  0.93827000000E+00 0. -1.
     999902    2    1    2    0    0  0.95000272345E-02 -0.19613670121E-03 -0.10542018406E-01  0.10297376380E+01  0.10296398302E+01 0.  0.
     999903    2    3    3    0    0 -0.51078012997E-01  0.26685383981E-01  0.11675196689E+00  0.13811211470E+00  0.46074519255E-01 0.  0.
         14    1    1    2    0    0 -0.95000272345E-02  0.19613670121E-03  0.10542018406E-01  0.14192362000E-01  0.00000000000E+00 0. -1.
     999901    1    3    3    0    0  0.60578040231E-01 -0.26881520683E-01 -0.12729398529E+00  0.89162552330E+00  0.88000000000E+00 0. -1.
        -11    1    4    4    0    0 -0.74891327217E-02 -0.51317918039E-02  0.56487563201E-01  0.57214756081E-01  0.51100000000E-03 0.  1.
         11    1    4    4    0    0 -0.43588880275E-01  0.31817175785E-01  0.60264403685E-01  0.80897358617E-01  0.51100000000E-03 0. -1.
</event>
<event>
 8    1  0.2025822E+004  0.1043930E+01  0.7957747E-01            NaN
         13   -1    0    0    0    0  0.00000000000E+00  0.00000000000E+00  0.74505805969E-08  0.10566000000E+00  0.10566000000E+00 0.  1.
     999900   -1    0    0    0    0 -0.00000000000E+00 -0.00000000000E+00 -0.74505805969E-08  0.93827000000E+00  0.93827000000E+00 0.  1.
     999902    2    1    2    0    0  0.92477499395E-02  0.99178847807E-02 -0.34842954739E-02  0.10299290846E+01  0.10298339156E+01 0.  0.
     999903    2    3    3    0    0  0.69233300626E-01  0.71326143237E-01 -0.90240212699E-01  0.14150585793E+00  0.44720724664E-01 0.  0.
         14    1    1    2    0    0 -0.92477499395E-02 -0.99178847807E-02  0.34842954739E-02  0.14000915413E-01  0.00000000000E+00 0.  1.
     999901    1    3    3    0    0 -0.59985550687E-01 -0.61408258456E-01  0.86755917225E-01  0.88842322666E+00  0.88000000000E+00 0. -1.
        -11    1    4    4    0    0  0.49731355533E-01  0.23751550272E-01 -0.61567373377E-01  0.82632599191E-01  0.51100000000E-03 0.  1.
         11    1    4    4    0    0  0.19501945093E-01  0.47574592965E-01 -0.28672839323E-01  0.58873258735E-01  0.51100000000E-03 0. -1.
</event>
<event>
 8    1  0.2025822E+004  0.1043930E+01  0.7957747E-01            NaN
         13   -1    0    0    0    0  0.00000000000E+00  0.00000000000E+00  0.74505805969E-08  0.10566000000E+00  0.10566000000E+00 0. -1.
     999900   -1    0    0    0    0 -0.00000000000E+00 -0.00000000000E+00 -0.74505805969E-08  0.93827000000E+00  0.93827000000E+00 0. -1.
     999902    2    1    2    0    0 -0.12675302663E-01 -0.16697340148E-02  0.32442598773E-02  0.10307399836E+01  0.10306555862E+01 0.  0.
     999903    2    3    3    0    0  0.99147567685E-01 -0.15165362234E-01  0.86322503232E-01  0.13967967097E+00  0.44705788521E-01 0.  0.
         14    1    1    2    0    0  0.12675302663E-01  0.16697340148E-02 -0.32442598773E-02  0.13190016355E-01  0.00000000000E+00 0.  1.
     999901    1    3    3    0    0 -0.11182287035E+00  0.13495628219E-01 -0.83078243355E-01  0.89106031268E+00  0.88000000000E+00 0.  1.
        -11    1    4    4    0    0  0.62054630157E-01 -0.58984305033E-02  0.24479313176E-01  0.66970639096E-01  0.51100000000E-03 0. -1.
         11    1    4    4    0    0  0.37092937528E-01 -0.92669317309E-02  0.61843190056E-01  0.72709031870E-01  0.51100000000E-03 0.  1.
</event>
<event>
 8    1  0.2025822E+004  0.1043930E+01  0.7957747E-01            NaN
         13   -1    0    0    0    0  0.00000000000E+00  0.00000000000E+00  0.74505805969E-08  0.10566000000E+00  0.10566000000E+00 0. -1.
     999900   -1    0    0    0    0 -0.00000000000E+00 -0.00000000000E+00 -0.74505805969E-08  0.93827000000E+00  0.93827000000E+00 0. -1.
     999902    2    1    2    0    0 -0.91003996049E-02  0.14346282243E-01  0.73931463415E-02  0.10254018673E+01  0.10252344599E+01 0.  0.
     999903    2    3    3    0    0 -0.31457826869E-01 -0.60319558163E-01  0.10602226397E+00  0.13646849237E+00  0.52486998244E-01 0.  0.
         14    1    1    2    0    0  0.91003996049E-02 -0.14346282243E-01 -0.73931463415E-02  0.18528132663E-01  0.00000000000E+00 0.  1.
     999901    1    3    3    0    0  0.22357427264E-01  0.74665840406E-01 -0.98629117632E-01  0.88893337496E+00  0.88000000000E+00 0. -1.
        -11    1    4    4    0    0 -0.32487271796E-01 -0.66309163307E-01  0.76505296974E-01  0.10632802807E+00  0.51100000000E-03 0. -1.
         11    1    4    4    0    0  0.10294449271E-02  0.59896051442E-02  0.29516966999E-01  0.30140464304E-01  0.51100000000E-03 0.  1.
</event>
<event>
 8    1  0.2025822E+004  0.1043930E+01  0.7957747E-01            NaN
         13   -1    0    0    0    0  0.00000000000E+00  0.00000000000E+00  0.74505805969E-08  0.10566000000E+00  0.10566000000E+00 0.  1.
     999900   -1    0    0    0    0 -0.00000000000E+00 -0.00000000000E+00 -0.74505805969E-08  0.93827000000E+00  0.93827000000E+00 0. -1.
     999902    2    1    2    0    0  0.50403939436E-03  0.13292266483E-01 -0.49002111601E-02  0.10297542999E+01  0.10296567232E+01 0.  0.
     999903    2    3    3    0    0 -0.46652848068E-01  0.10320817506E+00 -0.71986541630E-01  0.14137981896E+00  0.44472186820E-01 0.  0.
         14    1    1    2    0    0 -0.50403939436E-03 -0.13292266483E-01  0.49002111601E-02  0.14175700102E-01  0.00000000000E+00 0.  1.
     999901    1    3    3    0    0  0.47156887463E-01 -0.89915908578E-01  0.67086330470E-01  0.88837448094E+00  0.88000000000E+00 0.  1.
        -11    1    4    4    0    0 -0.40677834777E-01  0.61984136514E-01 -0.66060646169E-01  0.99302515148E-01  0.51100000000E-03 0.  1.
         11    1    4    4    0    0 -0.59750132917E-02  0.41224038546E-01 -0.59258954613E-02  0.42077303810E-01  0.51100000000E-03 0. -1.
</event>
<event>
 8    1  0.2025822E+004  0.1043930E+01  0.7957747E-01            NaN
         13   -1    0    0    0    0  0.00000000000E+00  0.00000000000E+00  0.74505805969E-08  0.10566000000E+00  0.10566000000E+00 0.  1.
     999900   -1    0    0    0    0 -0.00000000000E+00 -0.00000000000E+00 -0.74505805969E-08  0.93827000000E+00  0.93827000000E+00 0. -1.
     999902    2    1    2    0    0 -0.98193279582E-02 -0.10737755672E-01  0.36051082232E-02  0.10289394895E+01  0.10288302862E+01 0.  0.
     999903    2    3    3    0    0  0.11965160672E+00  0.49733543971E-02  0.51577927213E-01  0.13803491931E+00  0.45300277362E-01 0.  0.
         14    1    1    2    0    0  0.98193279582E-02  0.10737755672E-01 -0.36051082232E-02  0.14990510456E-01  0.00000000000E+00 0. -1.
     999901    1    3    3    0    0 -0.12947093467E+00 -0.15711110069E-01 -0.47972818990E-01  0.89090457024E+00  0.88000000000E+00 0. -1.
        -11    1    4    4    0    0  0.98313515308E-01 -0.80419619524E-02  0.25449556957E-01  0.10187326202E+00  0.51100000000E-03 0.  1.
         11    1    4    4    0    0  0.21338091409E-01  0.13015316349E-01  0.26128370256E-01  0.36161657289E-01  0.51100000000E-03 0. -1.
</event>
<event>
 8    1  0.2025822E+004  0.1043930E+01  0.7957747E-01            NaN
         13   -1    0    0    0    0  0.00000000000E+00  0.00000000000E+00  0.74505805969E-08  0.10566000000E+00  0.10566000000E+00 0. -1.
     999900   -1    0    0    0    0 -0.00000000000E+00 -0.00000000000E+00 -0.74505805969E-08  0.93827000000E+00  0.93827000000E+00 0. -1.
     999902    2    1    2    0    0 -0.26700433743E-02 -0.10659093576E-01 -0.80828763583E-02  0.10302889481E+01  0.10301986402E+01 0.  0.
     999903    2    3    3    0    0  0.30745590078E-01 -0.39400876135E-01 -0.12138124504E+00  0.14193135399E+00  0.53975756100E-01 0.  0.
         14    1    1    2    0    0  0.26700433743E-02  0.10659093576E-01  0.80828763583E-02  0.13641051928E-01  0.00000000000E+00 0. -1.
     999901    1    3    3    0    0 -0.33415633452E-01  0.28741782558E-01  0.11329836868E+00  0.88835759409E+00  0.88000000000E+00 0.  1.
        -11    1    4    4    0    0 -0.42219010017E-02  0.72721275817E-03 -0.62140844300E-01  0.62290440180E-01  0.51100000000E-03 0.  1.
         11    1    4    4    0    0  0.34967491080E-01 -0.40128088893E-01 -0.59240400743E-01  0.79640913805E-01  0.51100000000E-03 0. -1.
</event>
<event>
 8    1  0.2025822E+004  0.1043930E+01  0.7957747E-01            NaN
         13   -1    0    0    0    0  0.00000000000E+00  0.00000000000E+00  0.74505805969E-08  0.10566000000E+00  0.10566000000E+00 0.  1.
     999900   -1    0    0    0    0 -0.00000000000E+00 -0.00000000000E+00 -0.74505805969E-08  0.93827000000E+00  0.93827000000E+00 0. -1.
     999902    2    1    2    0    0  0.10659385464E-01  0.86050074821E-02  0.33157840867E-03  0.10302267669E+01  0.10301356283E+01 0.  0.
     999903    2    3    3    0    0  0.63591588366E-02 -0.11573527715E+00 -0.63420417316E-01  0.13919179832E+00  0.43784861659E-01 0.  0.
         14    1    1    2    0    0 -0.10659385464E-01 -0.86050074821E-02 -0.33157840867E-03  0.13703233067E-01  0.00000000000E+00 0.  1.
     999901    1    3    3    0    0  0.43002266274E-02  0.12434028463E+00  0.63751995724E-01  0.89103496861E+00  0.88000000000E+00 0. -1.
        -11    1    4    4    0    0 -0.17040703948E-01 -0.55940235327E-01 -0.20561377199E-01  0.61989731995E-01  0.51100000000E-03 0. -1.
         11    1    4    4    0    0  0.23399862785E-01 -0.59795041818E-01 -0.42859040116E-01  0.77202066326E-01  0.51100000000E-03 0.  1.
</event>
<event>
 8    1  0.2025822E+004  0.1043930E+01  0.7957747E-01            NaN
         13   -1    0    0    0    0  0.00000000000E+00  0.00000000000E+00  0.74505805969E-08  0.10566000000E+00  0.10566000000E+00 0. -1.
     999900   -1    0    0    0    0 -0.00000000000E+00 -0.00000000000E+00 -0.74505805969E-08  0.93827000000E+00  0.93827000000E+00 0.  1.
     999902    2    1    2    0    0 -0.20551904611E-02  0.66509374373E-02  0.95861980063E-02  0.10320828920E+01  0.10320148942E+01 0.  0.
     999903    2    3    3    0    0  0.50776450543E-01  0.87228662316E-01  0.88922511759E-01  0.14327571225E+00  0.49331827075E-01 0.  0.
         14    1    1    2    0    0  0.20551904611E-02 -0.66509374373E-02 -0.95861980063E-02  0.11847108037E-01  0.00000000000E+00 0. -1.
     999901    1    3    3    0    0 -0.52831641004E-01 -0.80577724879E-01 -0.79336313752E-01  0.88880717972E+00  0.88000000000E+00 0.  1.
        -11    1    4    4    0    0  0.53627556765E-01  0.92045424388E-01  0.82490092444E-01  0.13473363154E+00  0.51100000000E-03 0. -1.
         11    1    4    4    0    0 -0.28511062218E-02 -0.48167620717E-02  0.64324193149E-02  0.85420807059E-02  0.51100000000E-03 0.  1.
</event>
<event>
 8    1  0.2025822E+004  0.1043930E+01  0.7957747E-01            NaN
         13   -1    0    0    0    0  0.00000000000E+00  0.00000000000E+00  0.74505805969E-08  0.10566000000E+00  0.10566000000E+00 0. -1.
     999900   -1    0    0    0    0 -0.00000000000E+00 -0.00000000000E+00 -0.74505805969E-08  0.93827000000E+00  0.93827000000E+00 0.  1.
     999902    2    1    2    0    0  0.95295694415E-02  0.93818154460E-02  0.27657902942E-02  0.10302742045E+01  0.10301837000E+01 0.  0.
     999903    2    3    3    0    0 -0.79845805793E-01 -0.79068070788E-01  0.67982958900E-01  0.13894675673E+00  0.45358637358E-01 0.  0.
         14    1    1    2    0    0 -0.95295694415E-02 -0.93818154460E-02 -0.27657902942E-02  0.13655795501E-01  0.00000000000E+00 0.  1.
     999901    1    3    3    0    0  0.89375375235E-01  0.88449886234E-01 -0.65217168606E-01  0.89132744777E+00  0.88000000000E+00 0. -1.
        -11    1    4    4    0    0 -0.14890885893E-01 -0.37433380318E-01  0.40274403584E-01  0.56967404274E-01  0.51100000000E-03 0.  1.
         11    1    4    4    0    0 -0.64954919900E-01 -0.41634690469E-01  0.27708555317E-01  0.81979352452E-01  0.51100000000E-03 0. -1.
</event>
<event>
 8    1  0.2025822E+004  0.1043930E+01  0.7957747E-01            NaN
         13   -1    0    0    0    0  0.00000000000E+00  0.00000000000E+00  0.74505805969E-08  0.10566000000E+00  0.10566000000E+00 0.  1.
     999900   -1    0    0    0    0 -0.00000000000E+00 -0.00000000000E+00 -0.74505805969E-08  0.93827000000E+00  0.93827000000E+00 0.  1.
     999902    2    1    2    0    0  0.46982891804E-02 -0.11042341860E-01  0.88140043291E-02  0.10290406109E+01  0.10289328865E+01 0.  0.
     999903    2    3    3    0    0  0.17064113131E-01 -0.12634225155E+00  0.33470934443E-01  0.14109075480E+00  0.50326426005E-01 0.  0.
         14    1    1    2    0    0 -0.46982891804E-02  0.11042341860E-01 -0.88140043291E-02  0.14889389084E-01  0.00000000000E+00 0. -1.
     999901    1    3    3    0    0 -0.12365823951E-01  0.11529990969E+00 -0.24656930114E-01  0.88794985612E+00  0.88000000000E+00 0.  1.
        -11    1    4    4    0    0 -0.12922123855E-01 -0.56397788021E-01 -0.22436705366E-03  0.57861932565E-01  0.51100000000E-03 0.  1.
         11    1    4    4    0    0  0.29986236986E-01 -0.69944463526E-01  0.33695301497E-01  0.83228822234E-01  0.51100000000E-03 0. -1.
</event>
<event>
 8    1  0.2025822E+004  0.1043930E+01  0.7957747E-01            NaN
         13   -1    0    0    0    0  0.00000000000E+00  0.00000000000E+00  0.74505805969E-08  0.10566000000E+00  0.10566000000E+00 0.  1.
     999900   -1    0    0    0    0 -0.00000000000E+00 -0.00000000000E+00 -0.74505805969E-08  0.93827000000E+00  0.93827000000E+00 0. -1.
     999902    2    1    2    0    0 -0.11533089619E-01  0.71201690450E-02  0.19507403510E-02  0.10302364120E+01  0.10301454025E+01 0.  0.
     999903    2    3    3    0    0 -0.80043280385E-02 -0.42893653491E-01 -0.12484570681E+00  0.13973589344E+00  0.45119116007E-01 0.  0.
         14    1    1    2    0    0  0.11533089619E-01 -0.71201690450E-02 -0.19507403510E-02  0.13693587963E-01  0.00000000000E+00 0. -1.
     999901    1    3    3    0    0 -0.35287615807E-02  0.50013822536E-01  0.12679644716E+00  0.89050051859E+00  0.88000000000E+00 0.  1.
        -11    1    4    4    0    0  0.99156665758E-02  0.27112168387E-02 -0.44094994998E-01  0.45280247849E-01  0.51100000000E-03 0.  1.
         11    1    4    4    0    0 -0.17919994614E-01 -0.45604870330E-01 -0.80750711816E-01  0.94455645594E-01  0.51100000000E-03 0. -1.
</event>
<event>
 8    1  0.2025822E+004  0.1043930E+01  0.7957747E-01            NaN
         13   -1    0    0    0    0  0.00000000000E+00  0.00000000000E+00  0.74505805969E-08  0.10566000000E+00  0.10566000000E+00 0.  1.
     999900   -1    0    0    0    0 -0.00000000000E+00 -0.00000000000E+00 -0.74505805969E-08  0.93827000000E+00  0.93827000000E+00 0. -1.
     999902    2    1    2    0    0  0.83116336272E-03  0.60888008240E-02 -0.12297736079E-01  0.10301823224E+01  0.10300905876E+01 0.  0.
     999903    2    3    3    0    0  0.91677527589E-01  0.14555378638E-01  0.93462036357E-01  0.13916611919E+00  0.44893522677E-01 0.  0.
         14    1    1    2    0    0 -0.83116336272E-03 -0.60888008240E-02  0.12297736079E-01  0.13747677647E-01  0.00000000000E+00 0.  1.
     999901    1    3    3    0    0 -0.90846364226E-01 -0.84665778136E-02 -0.10575977244E+00  0.89101620316E+00  0.88000000000E+00 0. -1.
        -11    1    4    4    0    0  0.44667917027E-01 -0.13300205108E-01  0.30045057542E-01  0.55453447784E-01  0.51100000000E-03 0. -1.
         11    1    4    4    0    0  0.47009610562E-01  0.27855583745E-01  0.63416978815E-01  0.83712671406E-01  0.51100000000E-03 0.  1.
</event>
<event>
 8    1  0.2025822E+004  0.1043930E+01  0.7957747E-01            NaN
         13   -1    0    0    0    0  0.00000000000E+00  0.00000000000E+00  0.74505805969E-08  0.10566000000E+00  0.10566000000E+00 0.  1.
     999900   -1    0    0    0    0 -0.00000000000E+00 -0.00000000000E+00 -0.74505805969E-08  0.93827000000E+00  0.93827000000E+00 0. -1.
     999902    2    1    2    0    0 -0.10927948010E-01  0.47912739282E-03  0.81938195639E-02  0.10302629488E+01  0.10301722940E+01 0.  0.
     999903    2    3    3    0    0 -0.98462950741E-01  0.91244562833E-01 -0.66374790213E-02  0.14115063392E+00  0.43115222511E-01 0.  0.
         14    1    1    2    0    0  0.10927948010E-01 -0.47912739282E-03 -0.81938195639E-02  0.13667051248E-01  0.00000000000E+00 0. -1.
     999901    1    3    3    0    0  0.87535002730E-01 -0.90765435440E-01  0.14831298585E-01  0.88911231484E+00  0.88000000000E+00 0.  1.
        -11    1    4    4    0    0 -0.76568382077E-01  0.71489612939E-01  0.13232254652E-01  0.10558804656E+00  0.51100000000E-03 0. -1.
         11    1    4    4    0    0 -0.21894568664E-01  0.19754949893E-01 -0.19869733673E-01  0.35562587357E-01  0.51100000000E-03 0.  1.
</event>
<event>
 8    1  0.2025822E+004  0.1043930E+01  0.7957747E-01            NaN
         13   -1    0    0    0    0  0.00000000000E+00  0.00000000000E+00  0.74505805969E-08  0.10566000000E+00  0.10566000000E+00 0.  1.
     999900   -1    0    0    0    0 -0.00000000000E+00 -0.00000000000E+00 -0.74505805969E-08  0.93827000000E+00  0.93827000000E+00 0. -1.
     999902    2    1    2    0    0 -0.12478936511E-01 -0.58256194256E-02 -0.15554080725E-02  0.10300706713E+01  0.10299774303E+01 0.  0.
     999903    2    3    3    0    0 -0.87495039708E-02  0.10805431186E+00  0.75129251513E-01  0.13941749275E+00  0.45172388919E-01 0.  0.
         14    1    1    2    0    0  0.12478936511E-01  0.58256194255E-02  0.15554080725E-02  0.13859328715E-01  0.00000000000E+00 0.  1.
     999901    1    3    3    0    0 -0.37294325406E-02 -0.11387993129E+00 -0.76684659585E-01  0.89065317853E+00  0.88000000000E+00 0. -1.
        -11    1    4    4    0    0  0.32071831774E-03  0.13677228213E-01  0.32881048613E-01  0.35617325990E-01  0.51100000000E-03 0.  1.
         11    1    4    4    0    0 -0.90702222886E-02  0.94377083648E-01  0.42248202900E-01  0.10380016676E+00  0.51100000000E-03 0. -1.
</event>
<event>
 8    1  0.2025822E+004  0.1043930E+01  0.7957747E-01            NaN
         13   -1    0    0    0    0  0.00000000000E+00  0.00000000000E+00  0.74505805969E-08  0.10566000000E+00  0.10566000000E+00 0.  1.
     999900   -1    0    0    0    0 -0.00000000000E+00 -0.00000000000E+00 -0.74505805969E-08  0.93827000000E+00  0.93827000000E+00 0. -1.
     999902    2    1    2    0    0  0.56179985904E-02  0.13746857650E-01 -0.50271573533E-03  0.10290709715E+01  0.10289636892E+01 0.  0.
     999903    2    3    3    0    0 -0.49568188930E-01 -0.11318810461E+00 -0.39976985706E-01  0.13737807715E+00  0.44788662784E-01 0.  0.
         14    1    1    2    0    0 -0.56179985904E-02 -0.13746857650E-01  0.50271573533E-03  0.14859028452E-01  0.00000000000E+00 0. -1.
     999901    1    3    3    0    0  0.55186187520E-01  0.12693496227E+00  0.39474269971E-01  0.89169289440E+00  0.88000000000E+00 0.  1.
        -11    1    4    4    0    0 -0.29692487807E-01 -0.25450930909E-01 -0.24343617109E-01  0.46068064115E-01  0.51100000000E-03 0.  1.
         11    1    4    4    0    0 -0.19875701123E-01 -0.87737173706E-01 -0.15633368597E-01  0.91310013031E-01  0.51100000000E-03 0. -1.
</event>
<event>
 8    1  0.2025822E+004  0.1043930E+01  0.7957747E-01            NaN
         13   -1    0    0    0    0  0.00000000000E+00  0.00000000000E+00  0.74505805969E-08  0.10566000000E+00  0.10566000000E+00 0. -1.
     999900   -1    0    0    0    0 -0.00000000000E+00 -0.00000000000E+00 -0.74505805969E-08  0.93827000000E+00  0.93827000000E+00 0.  1.
     999902    2    1    2    0    0 -0.22547587527E-03 -0.58354226787E-02  0.12333628818E-01  0.10302837039E+01  0.10301933261E+01 0.  0.
     999903    2    3    3    0    0 -0.16193130070E-01  0.20121397007E-01 -0.12775585470E+00  0.13868189488E+00  0.47371103830E-01 0.  0.
         14    1    1    2    0    0  0.22547587527E-03  0.58354226787E-02 -0.12333628818E-01  0.13646296092E-01  0.00000000000E+00 0.  1.
     999901    1    3    3    0    0  0.15967654195E-01 -0.25956819686E-01  0.14008948352E+00  0.89160180903E+00  0.88000000000E+00 0. -1.
        -11    1    4    4    0    0 -0.21871016643E-01  0.27542455983E-01 -0.54725067790E-01  0.65053996158E-01  0.51100000000E-03 0.  1.
         11    1    4    4    0    0  0.56778865727E-02 -0.74210589754E-02 -0.73030786913E-01  0.73627898723E-01  0.51100000000E-03 0. -1.
</event>
<event>
 7    1  0.2025822E+004  0.1043930E+01  0.7957747E-01            NaN
         13   -1    0    0    0    0  0.00000000000E+00  0.00000000000E+00  0.74505805969E-08  0.10566000000E+00  0.10566000000E+00 0.  1.
     999900   -1    0    0    0    0 -0.00000000000E+00 -0.00000000000E+00 -0.74505805969E-08  0.93827000000E+00  0.93827000000E+00 0. -1.
     999903    2    1    2    0    0 -0.33066836420E-01 -0.14014573355E-01  0.10490747103E+00  0.11842970848E+00  0.41595605976E-01 0.  0.
         14    1    1    2    0    0 -0.54775528204E-02 -0.18068579664E-01  0.28344403329E-01  0.34057045615E-01  0.00000000000E+00 0.  1.
     999901    1    1    2    0    0  0.38544389241E-01  0.32083153019E-01 -0.13325187435E+00  0.89144324590E+00  0.88000000000E+00 0. -1.
        -11    1    3    3    0    0 -0.77725544450E-02 -0.21372144064E-01  0.75932964617E-01  0.79267000581E-01  0.51100000000E-03 0.  1.
         11    1    3    3    0    0 -0.25294281975E-01  0.73575707094E-02  0.28974506408E-01  0.39162707899E-01  0.51100000000E-03 0. -1.
</event>
<event>
 8    1  0.2025822E+004  0.1043930E+01  0.7957747E-01            NaN
         13   -1    0    0    0    0  0.00000000000E+00  0.00000000000E+00  0.74505805969E-08  0.10566000000E+00  0.10566000000E+00 0. -1.
     999900   -1    0    0    0    0 -0.00000000000E+00 -0.00000000000E+00 -0.74505805969E-08  0.93827000000E+00  0.93827000000E+00 0. -1.
     999902    2    1    2    0    0  0.99736463980E-02 -0.81950400486E-02 -0.70740647594E-02  0.10292101258E+01  0.10291048578E+01 0.  0.
     999903    2    3    3    0    0 -0.43420094092E-01 -0.94971936337E-01 -0.82026037027E-01  0.14016630271E+00  0.44870351035E-01 0.  0.
         14    1    1    2    0    0 -0.99736463980E-02  0.81950400486E-02  0.70740647594E-02  0.14719874187E-01  0.00000000000E+00 0. -1.
     999901    1    3    3    0    0  0.53393740490E-01  0.86776896288E-01  0.74951972268E-01  0.88904382310E+00  0.88000000000E+00 0.  1.
        -11    1    4    4    0    0  0.86066594439E-03 -0.38449925582E-01 -0.45587568372E-01  0.59645829982E-01  0.51100000000E-03 0. -1.
         11    1    4    4    0    0 -0.44280760036E-01 -0.56522010755E-01 -0.36438468655E-01  0.80520472727E-01  0.51100000000E-03 0.  1.
</event>
<event>
 8    1  0.2025822E+004  0.1043930E+01  0.7957747E-01            NaN
         13   -1    0    0    0    0  0.00000000000E+00  0.00000000000E+00  0.74505805969E-08  0.10566000000E+00  0.10566000000E+00 0.  1.
     999900   -1    0    0    0    0 -0.00000000000E+00 -0.00000000000E+00 -0.74505805969E-08  0.93827000000E+00  0.93827000000E+00 0.  1.
     999902    2    1    2    0    0  0.29886714753E-03 -0.13772031808E-01 -0.19480198518E-02  0.10300176687E+01  0.10299237082E+01 0.  0.
     999903    2    3    3    0    0 -0.76564059228E-01 -0.10988787293E+00 -0.33367107166E-02  0.14145248095E+00  0.45390207613E-01 0.  0.
         14    1    1    2    0    0 -0.29886714753E-03  0.13772031808E-01  0.19480198518E-02  0.13912331330E-01  0.00000000000E+00 0. -1.
     999901    1    3    3    0    0  0.76862926376E-01  0.96115841117E-01  0.13886908648E-02  0.88856518772E+00  0.88000000000E+00 0.  1.
        -11    1    4    4    0    0 -0.72354154488E-01 -0.96625782466E-01  0.11311005398E-01  0.12124300175E+00  0.51100000000E-03 0. -1.
         11    1    4    4    0    0 -0.42099047405E-02 -0.13262090459E-01 -0.14647716114E-01  0.20209479202E-01  0.51100000000E-03 0.  1.
</event>
<event>
 8    1  0.2025822E+004  0.1043930E+01  0.7957747E-01            NaN
         13   -1    0    0    0    0  0.00000000000E+00  0.00000000000E+00  0.74505805969E-08  0.10566000000E+00  0.10566000000E+00 0. -1.
     999900   -1    0    0    0    0 -0.00000000000E+00 -0.00000000000E+00 -0.74505805969E-08  0.93827000000E+00  0.93827000000E+00 0. -1.
     999902    2    1    2    0    0  0.11799677921E-01 -0.74121588859E-02 -0.14209615576E-02  0.10299231577E+01  0.10298279076E+01 0.  0.
     999903    2    3    3    0    0 -0.41664911445E-01 -0.54327214814E-01  0.11314594947E+00  0.13965069276E+00  0.44865342900E-01 0.  0.
         14    1    1    2    0    0 -0.11799677921E-01  0.74121588859E-02  0.14209615576E-02  0.14006842261E-01  0.00000000000E+00 0.  1.
     999901    1    3    3    0    0  0.53464589366E-01  0.46915055928E-01 -0.11456691103E+00  0.89027246497E+00  0.88000000000E+00 0. -1.
        -11    1    4    4    0    0  0.87179255348E-02 -0.15692040715E-02  0.13476607598E-01  0.16135200662E-01  0.51100000000E-03 0. -1.
         11    1    4    4    0    0 -0.50382836979E-01 -0.52758010743E-01  0.99669341870E-01  0.12351549210E+00  0.51100000000E-03 0.  1.
</event>
<event>
 8    1  0.2025822E+004  0.1043930E+01  0.7957747E-01            NaN
         13   -1    0    0    0    0  0.00000000000E+00  0.00000000000E+00  0.74505805969E-08  0.10566000000E+00  0.10566000000E+00 0. -1.
     999900   -1    0    0    0    0 -0.00000000000E+00 -0.00000000000E+00 -0.74505805969E-08  0.93827000000E+00  0.93827000000E+00 0. -1.
     999902    2    1    2    0    0 -0.69834021236E-02 -0.82876238095E-02  0.82366806207E-02  0.10303176702E+01  0.10302277448E+01 0.  0.
     999903    2    3    3    0    0  0.99018779308E-01 -0.69394052406E-01 -0.51411111626E-01  0.13985244510E+00  0.47909819828E-01 0.  0.
         14    1    1    2    0    0  0.69834021236E-02  0.82876238095E-02 -0.82366806207E-02  0.13612329752E-01  0.00000000000E+00 0. -1.
     999901    1    3    3    0    0 -0.10600218143E+00  0.61106428597E-01  0.59647792247E-01  0.89046522515E+00  0.88000000000E+00 0.  1.
        -11    1    4    4    0    0  0.93499936079E-01 -0.47026039190E-01 -0.51857033523E-01  0.11680367912E+00  0.51100000000E-03 0.  1.
         11    1    4    4    0    0  0.55188432288E-02 -0.22368013216E-01  0.44592189668E-03  0.23048765979E-01  0.51100000000E-03 0. -1.
</event>
<event>
 8    1  0.2025822E+004  0.1043930E+01  0.7957747E-01            NaN
         13   -1    0    0    0    0  0.00000000000E+00  0.00000000000E+00  0.74505805969E-08  0.10566000000E+00  0.10566000000E+00 0.  1.
     999900   -1    0    0    0    0 -0.00000000000E+00 -0.00000000000E+00 -0.74505805969E-08  0.93827000000E+00  0.93827000000E+00 0. -1.
     999902    2    1    2    0    0  0.93127213676E-02  0.97995720952E-02  0.37877113768E-02  0.10298905858E+01  0.10297948891E+01 0.  0.
     999903    2    3    3    0    0 -0.99348783094E-01 -0.83584197430E-01 -0.14425905086E-01  0.13811730367E+00  0.44852915999E-01 0.  0.
         14    1    1    2    0    0 -0.93127213676E-02 -0.97995720952E-02 -0.37877113768E-02  0.14039414161E-01  0.00000000000E+00 0. -1.
     999901    1    3    3    0    0  0.10866150446E+00  0.93383769526E-01  0.18213616463E-01  0.89177328217E+00  0.88000000000E+00 0. -1.
        -11    1    4    4    0    0 -0.74764950867E-01 -0.66900955519E-01 -0.29800665166E-01  0.10466076864E+00  0.51100000000E-03 0.  1.
         11    1    4    4    0    0 -0.24583832227E-01 -0.16683241911E-01  0.15374760080E-01  0.33456535029E-01  0.51100000000E-03 0. -1.
</event>
<event>
 8    1  0.2025822E+004  0.1043930E+01  0.7957747E-01            NaN
         13   -1    0    0    0    0  0.00000000000E+00  0.00000000000E+00  0.74505805969E-08  0.10566000000E+00  0.10566000000E+00 0. -1.
     999900   -1    0    0    0    0 -0.00000000000E+00 -0.00000000000E+00 -0.74505805969E-08  0.93827000000E+00  0.93827000000E+00 0. -1.
     999902    2    1    2    0    0 -0.11118880001E-01 -0.77874832640E-02  0.43916674909E-02  0.10296625149E+01  0.10295636617E+01 0.  0.
     999903    2    3    3    0    0 -0.56558066031E-01  0.68689945650E-01 -0.97406975224E-01  0.13933870839E+00  0.44833395664E-01 0.  0.
         14    1    1    2    0    0  0.11118880001E-01  0.77874832640E-02 -0.43916674909E-02  0.14267485112E-01  0.00000000000E+00 0. -1.
     999901    1    3    3    0    0  0.45439186030E-01 -0.76477428914E-01  0.10179864271E+00  0.89032380650E+00  0.88000000000E+00 0.  1.
        -11    1    4    4    0    0 -0.44562554347E-02  0.17660416530E-01 -0.47748372145E-01  0.51106914288E-01  0.51100000000E-03 0. -1.
         11    1    4    4    0    0 -0.52101810597E-01  0.51029529119E-01 -0.49658603079E-01  0.88231794101E-01  0.51100000000E-03 0.  1.
</event>
<event>
 8    1  0.2025822E+004  0.1043930E+01  0.7957747E-01            NaN
         13   -1    0    0    0    0  0.00000000000E+00  0.00000000000E+00  0.74505805969E-08  0.10566000000E+00  0.10566000000E+00 0.  1.
     999900   -1    0    0    0    0 -0.00000000000E+00 -0.00000000000E+00 -0.74505805969E-08  0.93827000000E+00  0.93827000000E+00 0. -1.
     999902    2    1    2    0    0  0.62835604084E-02 -0.78612905060E-02 -0.11060629069E-01  0.10289760529E+01  0.10288673854E+01 0.  0.
     999903    2    3    3    0    0 -0.56501052769E-01  0.10097878508E+00  0.58967377612E-01  0.13729674311E+00  0.44543911449E-01 0.  0.
         14    1    1    2    0    0 -0.62835604084E-02  0.78612905060E-02  0.11060629069E-01  0.14953947145E-01  0.00000000000E+00 0.  1.
     999901    1    3    3    0    0  0.62784613178E-01 -0.10884007558E+00 -0.70028006680E-01  0.89167930974E+00  0.88000000000E+00 0. -1.
        -11    1    4    4    0    0 -0.21853600133E-02  0.37666227824E-01  0.52976204860E-02  0.38103102508E-01  0.51100000000E-03 0. -1.
         11    1    4    4    0    0 -0.54315692756E-01  0.63312557252E-01  0.53669757126E-01  0.99193640604E-01  0.51100000000E-03 0.  1.
</event>
<event>
 8    1  0.2025822E+004  0.1043930E+01  0.7957747E-01            NaN
         13   -1    0    0    0    0  0.00000000000E+00  0.00000000000E+00  0.74505805969E-08  0.10566000000E+00  0.10566000000E+00 0.  1.
     999900   -1    0    0    0    0 -0.00000000000E+00 -0.00000000000E+00 -0.74505805969E-08  0.93827000000E+00  0.93827000000E+00 0. -1.
     999902    2    1    2    0    0 -0.22537092230E-03  0.14259836508E-01 -0.28708624258E-02  0.10293822998E+01  0.10292794973E+01 0.  0.
     999903    2    3    3    0    0 -0.30967554632E-01  0.45219305135E-01 -0.12097859116E+00  0.14042054241E+00  0.45588750983E-01 0.  0.
         14    1    1    2    0    0  0.22537092230E-03 -0.14259836508E-01  0.28708624258E-02  0.14547700174E-01  0.00000000000E+00 0.  1.
     999901    1    3    3    0    0  0.30742183710E-01 -0.30959468627E-01  0.11810772873E+00  0.88896175741E+00  0.88000000000E+00 0.  1.
        -11    1    4    4    0    0 -0.30471561984E-01  0.26611943066E-01 -0.11324839911E+00  0.12025877359E+00  0.51100000000E-03 0. -1.
         11    1    4    4    0    0 -0.49599264811E-03  0.18607362069E-01 -0.77301920442E-02  0.20161768819E-01  0.51100000000E-03 0.  1.
</event>
<event>
 8    1  0.2025822E+004  0.1043930E+01  0.7957747E-01            NaN
         13   -1    0    0    0    0  0.00000000000E+00  0.00000000000E+00  0.74505805969E-08  0.10566000000E+00  0.10566000000E+00 0. -1.
     999900   -1    0    0    0    0 -0.00000000000E+00 -0.00000000000E+00 -0.74505805969E-08  0.93827000000E+00  0.93827000000E+00 0. -1.
     999902    2    1    2    0    0 -0.46198675755E-03  0.97531925304E-02 -0.98130514786E-02  0.10300868004E+01  0.10299937777E+01 0.  0.
     999903    2    3    3    0    0  0.84522388644E-01  0.87682187458E-02  0.10032321277E+00  0.13915845818E+00  0.45600587955E-01 0.  0.
         14    1    1    2    0    0  0.46198675755E-03 -0.97531925304E-02  0.98130514786E-02  0.13843199616E-01  0.00000000000E+00 0. -1.
     999901    1    3    3    0    0 -0.84984375402E-01  0.98497378460E-03 -0.11013626424E+00  0.89092834220E+00  0.88000000000E+00 0.  1.
        -11    1    4    4    0    0  0.10637644774E-02 -0.21849344362E-02 -0.42459437330E-02  0.49188100733E-02  0.51100000000E-03 0.  1.
         11    1    4    4    0    0  0.83458624167E-01  0.10953153182E-01  0.10456915650E+00  0.13423964811E+00  0.51100000000E-03 0. -1.
</event>
<event>
 8    1  0.2025822E+004  0.1043930E+01  0.7957747E-01            NaN
         13   -1    0    0    0    0  0.00000000000E+00  0.00000000000E+00  0.74505805969E-08  0.10566000000E+00  0.10566000000E+00 0. -1.
     999900   -1    0    0    0    0 -0.00000000000E+00 -0.00000000000E+00 -0.74505805969E-08  0.93827000000E+00  0.93827000000E+00 0.  1.
     999902    2    1    2    0    0  0.12691689712E-01  0.23093353043E-02  0.20211706726E-02  0.10308725443E+01  0.10307898455E+01 0.  0.
     999903    2    3    3    0    0 -0.10939432070E+00 -0.73993248382E-01 -0.12878874536E-01  0.13904908112E+00  0.41553138797E-01 0.  0.
         14    1    1    2    0    0 -0.12691689712E-01 -0.23093353043E-02 -0.20211706726E-02  0.13057455655E-01  0.00000000000E+00 0. -1.
     999901    1    3    3    0    0  0.12208601041E+00  0.76302583687E-01  0.14900045209E-01  0.89182346323E+00  0.88000000000E+00 0.  1.
        -11    1    4    4    0    0 -0.72975386891E-01 -0.30108573444E-01  0.54861680975E-02  0.79134647583E-01  0.51100000000E-03 0. -1.
         11    1    4    4    0    0 -0.36418933805E-01 -0.43884674938E-01 -0.18365042634E-01  0.59914433535E-01  0.51100000000E-03 0.  1.
</event>
<event>
 8    1  0.2025822E+004  0.1043930E+01  0.7957747E-01            NaN
         13   -1    0    0    0    0  0.00000000000E+00  0.00000000000E+00  0.74505805969E-08  0.10566000000E+00  0.10566000000E+00 0. -1.
     999900   -1    0    0    0    0 -0.00000000000E+00 -0.00000000000E+00 -0.74505805969E-08  0.93827000000E+00  0.93827000000E+00 0.  1.
     999902    2    1    2    0    0 -0.65136040480E-02 -0.93344072246E-02  0.17504439883E-02  0.10324138266E+01  0.10323495954E+01 0.  0.
     999903    2    3    3    0    0  0.96920601692E-01  0.91156134297E-01  0.57723815365E-02  0.14066657549E+00  0.45284889530E-01 0.  0.
         14    1    1    2    0    0  0.65136040480E-02  0.93344072246E-02 -0.17504439883E-02  0.11516173413E-01  0.00000000000E+00 0.  1.
     999901    1    3    3    0    0 -0.10343420574E+00 -0.10049054152E+00 -0.40219375481E-02  0.89174725109E+00  0.88000000000E+00 0.  1.
        -11    1    4    4    0    0  0.51670562991E-01  0.75402075706E-01  0.12573393276E-01  0.92269558577E-01  0.51100000000E-03 0. -1.
         11    1    4    4    0    0  0.45250038702E-01  0.15754058591E-01 -0.68010117398E-02  0.48397016915E-01  0.51100000000E-03 0.  1.
</event>
<event>
 8    1  0.2025822E+004  0.1043930E+01  0.7957747E-01            NaN
         13   -1    0    0    0    0  0.00000000000E+00  0.00000000000E+00  0.74505805969E-08  0.10566000000E+00  0.10566000000E+00 0.  1.
     999900   -1    0    0    0    0 -0.00000000000E+00 -0.00000000000E+00 -0.74505805969E-08  0.93827000000E+00  0.93827000000E+00 0.  1.
     999902    2    1    2    0    0 -0.66647341270E-02 -0.14102865239E-01 -0.49738732321E-03  0.10283236909E+01  0.10282052599E+01 0.  0.
     999903    2    3    3    0    0  0.75629391146E-01 -0.55056439665E-01 -0.92024118879E-01  0.13881446618E+00  0.45276939067E-01 0.  0.
         14    1    1    2    0    0  0.66647341270E-02  0.14102865239E-01  0.49738732321E-03  0.15606309079E-01  0.00000000000E+00 0.  1.
     999901    1    3    3    0    0 -0.82294125273E-01  0.40953574427E-01  0.91526731555E-01  0.88950922474E+00  0.88000000000E+00 0. -1.
        -11    1    4    4    0    0  0.24832697073E-01  0.49106866174E-02 -0.23530924814E-01  0.34565057943E-01  0.51100000000E-03 0.  1.
         11    1    4    4    0    0  0.50796694073E-01 -0.59967126283E-01 -0.68493194064E-01  0.10424940824E+00  0.51100000000E-03 0. -1.
</event>
<event>
 8    1  0.2025822E+004  0.1043930E+01  0.7957747E-01            NaN
         13   -1    0    0    0    0  0.00000000000E+00  0.00000000000E+00  0.74505805969E-08  0.10566000000E+00  0.10566000000E+00 0. -1.
     999900   -1    0    0    0    0 -0.00000000000E+00 -0.00000000000E+00 -0.74505805969E-08  0.93827000000E+00  0.93827000000E+00 0.  1.
     999902    2    1    2    0    0  0.14611467765E-02 -0.78048738540E-02  0.11473159953E-01  0.10299770646E+01  0.10298825512E+01 0.  0.
     999903    2    3    3    0    0  0.27659365180E-01 -0.13045388120E+00  0.10198035108E-01  0.14108407244E+00  0.44916143789E-01 0.  0.
         14    1    1    2    0    0 -0.14611467765E-02  0.78048738540E-02 -0.11473159953E-01  0.13952935357E-01  0.00000000000E+00 0.  1.
     999901    1    3    3    0    0 -0.26198218404E-01  0.12264900735E+00  0.12751248448E-02  0.88889299221E+00  0.88000000000E+00 0.  1.
        -11    1    4    4    0    0  0.84321643700E-02 -0.90370081779E-01  0.25138947024E-01  0.94181106678E-01  0.51100000000E-03 0.  1.
         11    1    4    4    0    0  0.19227200810E-01 -0.40083799421E-01 -0.14940911916E-01  0.46902965758E-01  0.51100000000E-03 0. -1.
</event>
<event>
 8    1  0.2025822E+004  0.1043930E+01  0.7957747E-01            NaN
         13   -1    0    0    0    0  0.00000000000E+00  0.00000000000E+00  0.74505805969E-08  0.10566000000E+00  0.10566000000E+00 0. -1.
     999900   -1    0    0    0    0 -0.00000000000E+00 -0.00000000000E+00 -0.74505805969E-08  0.93827000000E+00  0.93827000000E+00 0. -1.
     999902    2    1    2    0    0  0.77849475595E-02 -0.10202397057E-01 -0.69255735369E-02  0.10293472059E+01  0.10292439033E+01 0.  0.
     999903    2    3    3    0    0  0.49902602241E-01 -0.12278572743E+00 -0.17289190359E-01  0.14111508105E+00  0.45254231022E-01 0.  0.
         14    1    1    2    0    0 -0.77849475595E-02  0.10202397057E-01  0.69255735369E-02  0.14582794075E-01  0.00000000000E+00 0. -1.
     999901    1    3    3    0    0 -0.42117654682E-01  0.11258333037E+00  0.10363616822E-01  0.88823212488E+00  0.88000000000E+00 0.  1.
        -11    1    4    4    0    0  0.58257448191E-01 -0.11295792695E+00 -0.16731735071E-01  0.12819374248E+00  0.51100000000E-03 0.  1.
         11    1    4    4    0    0 -0.83548459493E-02 -0.98278004740E-02 -0.55745528732E-03  0.12921338568E-01  0.51100000000E-03 0. -1.
</event>
<event>
 8    1  0.2025822E+004  0.1043930E+01  0.7957747E-01            NaN
         13   -1    0    0    0    0  0.00000000000E+00  0.00000000000E+00  0.74505805969E-08  0.10566000000E+00  0.10566000000E+00 0.  1.
     999900   -1    0    0    0    0 -0.00000000000E+00 -0.00000000000E+00 -0.74505805969E-08  0.93827000000E+00  0.93827000000E+00 0.  1.
     999902    2    1    2    0    0 -0.56324660188E-02 -0.41053681916E-02  0.12401641481E-01  0.10297039875E+01  0.10296057121E+01 0.  0.
     999903    2    3    3    0    0  0.93454402398E-01 -0.87908493928E-01  0.32168965785E-01  0.13996699346E+00  0.45763394396E-01 0.  0.
         14    1    1    2    0    0  0.56324660188E-02  0.41053681916E-02 -0.12401641481E-01  0.14226012542E-01  0.00000000000E+00 0. -1.
     999901    1    3    3    0    0 -0.99086868417E-01  0.83803125736E-01 -0.19767324304E-01  0.88973699400E+00  0.88000000000E+00 0.  1.
        -11    1    4    4    0    0  0.24810388438E-01 -0.27003671668E-01  0.31265726999E-01  0.48192950353E-01  0.51100000000E-03 0. -1.
         11    1    4    4    0    0  0.68644013960E-01 -0.60904822260E-01  0.90323878634E-03  0.91774043108E-01  0.51100000000E-03 0.  1.
</event>
<event>
 8    1  0.2025822E+004  0.1043930E+01  0.7957747E-01            NaN
         13   -1    0    0    0    0  0.00000000000E+00  0.00000000000E+00  0.74505805969E-08  0.10566000000E+00  0.10566000000E+00 0.  1.
     999900   -1    0    0    0    0 -0.00000000000E+00 -0.00000000000E+00 -0.74505805969E-08  0.93827000000E+00  0.93827000000E+00 0. -1.
     999902    2    1    2    0    0 -0.77863541304E-02  0.56865093255E-02 -0.64350260561E-02  0.10323380520E+01  0.10322729679E+01 0.  0.
     999903    2    3    3    0    0 -0.28431625668E-01  0.76801695011E-01  0.10660345369E+00  0.14202277366E+00  0.45818273695E-01 0.  0.
         14    1    1    2    0    0  0.77863541304E-02 -0.56865093255E-02  0.64350260561E-02  0.11591948037E-01  0.00000000000E+00 0.  1.
     999901    1    3    3    0    0  0.20645271538E-01 -0.71115185685E-01 -0.11303847975E+00  0.89031527830E+00  0.88000000000E+00 0. -1.
        -11    1    4    4    0    0 -0.37907345388E-01  0.67746580424E-01  0.75611291579E-01  0.10836925084E+00  0.51100000000E-03 0.  1.
         11    1    4    4    0    0  0.94757197199E-02  0.90551145868E-02  0.30992162116E-01  0.33653522817E-01  0.51100000000E-03 0. -1.
</event>
<event>
 8    1  0.2025822E+004  0.1043930E+01  0.7957747E-01            NaN
         13   -1    0    0    0    0  0.00000000000E+00  0.00000000000E+00  0.74505805969E-08  0.10566000000E+00  0.10566000000E+00 0.  1.
     999900   -1    0    0    0    0 -0.00000000000E+00 -0.00000000000E+00 -0.74505805969E-08  0.93827000000E+00  0.93827000000E+00 0.  1.
     999902    2    1    2    0    0 -0.12896415430E-01 -0.33441686819E-02  0.66071777079E-02  0.10290586923E+01  0.10289512313E+01 0.  0.
     999903    2    3    3    0    0 -0.45065048716E-02 -0.11877456685E+00 -0.55565213993E-01  0.13930593243E+00  0.46807515311E-01 0.  0.
         14    1    1    2    0    0  0.12896415430E-01  0.33441686819E-02 -0.66071777079E-02  0.14871307689E-01  0.00000000000E+00 0. -1.
     999901    1    3    3    0    0 -0.83899105586E-02  0.11543039816E+00  0.62172391701E-01  0.88975275988E+00  0.88000000000E+00 0. -1.
        -11    1    4    4    0    0 -0.35479666084E-02 -0.10156191657E+00 -0.64008595434E-01  0.12010317388E+00  0.51100000000E-03 0.  1.
         11    1    4    4    0    0 -0.95853826322E-03 -0.17212650274E-01  0.84433814406E-02  0.19202758557E-01  0.51100000000E-03 0. -1.
</event>
<event>
 8    1  0.2025822E+004  0.1043930E+01  0.7957747E-01            NaN
         13   -1    0    0    0    0  0.00000000000E+00  0.00000000000E+00  0.74505805969E-08  0.10566000000E+00  0.10566000000E+00 0. -1.
     999900   -1    0    0    0    0 -0.00000000000E+00 -0.00000000000E+00 -0.74505805969E-08  0.93827000000E+00  0.93827000000E+00 0. -1.
     999902    2    1    2    0    0  0.92617165993E-02 -0.42249285372E-02  0.38516794639E-02  0.10330458441E+01  0.10329885048E+01 0.  0.
     999903    2    3    3    0    0 -0.12304497879E+00  0.52707068142E-01  0.36063350448E-02  0.14133604034E+00  0.45219119935E-01 0.  0.
         14    1    1    2    0    0 -0.92617165993E-02  0.42249285372E-02 -0.38516794639E-02  0.10884155925E-01  0.00000000000E+00 0. -1.
     999901    1    3    3    0    0  0.13230669539E+00 -0.56931996679E-01  0.24534441903E-03  0.89170980374E+00  0.88000000000E+00 0.  1.
        -11    1    4    4    0    0 -0.19947499178E-01  0.15409447608E-01  0.17688208209E-01  0.30797526357E-01  0.51100000000E-03 0. -1.
         11    1    4    4    0    0 -0.10309747961E+00  0.37297620534E-01 -0.14081873164E-01  0.11053851398E+00  0.51100000000E-03 0.  1.
</event>
<event>
 8    1  0.2025822E+004  0.1043930E+01  0.7957747E-01            NaN
         13   -1    0    0    0    0  0.00000000000E+00  0.00000000000E+00  0.74505805969E-08  0.10566000000E+00  0.10566000000E+00 0.  1.
     999900   -1    0    0    0    0 -0.00000000000E+00 -0.00000000000E+00 -0.74505805969E-08  0.93827000000E+00  0.93827000000E+00 0.  1.
     999902    2    1    2    0    0 -0.67676176417E-02  0.11574211977E-01  0.29002840370E-02  0.10302123224E+01  0.10301209902E+01 0.  0.
     999903    2    3    3    0    0  0.79575844593E-01 -0.81336666979E-01  0.65814689081E-01  0.13889540498E+00  0.44859690019E-01 0.  0.
         14    1    1    2    0    0  0.67676176417E-02 -0.11574211977E-01 -0.29002840370E-02  0.13717677607E-01  0.00000000000E+00 0. -1.
     999901    1    3    3    0    0 -0.86343462235E-01  0.92910878956E-01 -0.62914405044E-01  0.89131691741E+00  0.88000000000E+00 0.  1.
        -11    1    4    4    0    0  0.19048444538E-01 -0.49196646263E-02 -0.25258736198E-02  0.19841559865E-01  0.51100000000E-03 0.  1.
         11    1    4    4    0    0  0.60527400056E-01 -0.76417002352E-01  0.68340562701E-01  0.11905384512E+00  0.51100000000E-03 0. -1.
</event>
<event>
 8    1  0.2025822E+004  0.1043930E+01  0.7957747E-01            NaN
         13   -1    0    0    0    0  0.00000000000E+00  0.00000000000E+00  0.74505805969E-08  0.10566000000E+00  0.10566000000E+00 0.  1.
     999900   -1    0    0    0    0 -0.00000000000E+00 -0.00000000000E+00 -0.74505805969E-08  0.93827000000E+00  0.93827000000E+00 0.  1.
     999902    2    1    2    0    0  0.19574100779E-01 -0.13578094542E-01 -0.18074698932E-02  0.10200390599E+01  0.10197592396E+01 0.  0.
     999903    2    3    3    0    0 -0.94234589266E-01 -0.69192722377E-01 -0.37648861462E-01  0.13024694364E+00  0.43347882472E-01 0.  0.
         14    1    1    2    0    0 -0.19574100779E-01  0.13578094542E-01  0.18074698932E-02  0.23890940126E-01  0.00000000000E+00 0.  1.
     999901    1    3    3    0    0  0.11380869004E+00  0.55614627834E-01  0.35841391569E-01  0.88979211623E+00  0.88000000000E+00 0. -1.
        -11    1    4    4    0    0 -0.35095161902E-01 -0.16492538648E-01  0.68619436409E-02  0.39383011712E-01  0.51100000000E-03 0. -1.
         11    1    4    4    0    0 -0.59139427364E-01 -0.52700183728E-01 -0.44510805103E-01  0.90863931930E-01  0.51100000000E-03 0.  1.
</event>
<event>
 8    1  0.2025822E+004  0.1043930E+01  0.7957747E-01            NaN
         13   -1    0    0    0    0  0.00000000000E+00  0.00000000000E+00  0.74505805969E-08  0.10566000000E+00  0.10566000000E+00 0. -1.
     999900   -1    0    0    0    0 -0.00000000000E+00 -0.00000000000E+00 -0.74505805969E-08  0.93827000000E+00  0.93827000000E+00 0.  1.
     999902    2    1    2    0    0 -0.38396090438E-02  0.75228611113E-02  0.11621273420E-01  0.10295637189E+01  0.10294634822E+01 0.  0.
     999903    2    3    3    0    0  0.12242299449E+00  0.49095141071E-01 -0.80593178789E-03  0.13949353349E+00  0.45388037010E-01 0.  0.
         14    1    1    2    0    0  0.38396090438E-02 -0.75228611113E-02 -0.11621273420E-01  0.14366281105E-01  0.00000000000E+00 0. -1.
     999901    1    3    3    0    0 -0.12626260353E+00 -0.41572279959E-01  0.12427205207E-01  0.89007018540E+00  0.88000000000E+00 0.  1.
        -11    1    4    4    0    0  0.73798043887E-01  0.94234022845E-02 -0.13099288715E-01  0.75543393345E-01  0.51100000000E-03 0.  1.
         11    1    4    4    0    0  0.48624950602E-01  0.39671738786E-01  0.12293356927E-01  0.63950140148E-01  0.51100000000E-03 0. -1.
</event>
<event>
 8    1  0.2025822E+004  0.1043930E+01  0.7957747E-01            NaN
         13   -1    0    0    0    0  0.00000000000E+00  0.00000000000E+00  0.74505805969E-08  0.10566000000E+00  0.10566000000E+00 0. -1.
     999900   -1    0    0    0    0 -0.00000000000E+00 -0.00000000000E+00 -0.74505805969E-08  0.93827000000E+00  0.93827000000E+00 0. -1.
     999902    2    1    2    0    0  0.17168065042E-02 -0.12958515614E-01  0.42859111291E-02  0.10301735620E+01  0.10300817095E+01 0.  0.
     999903    2    3    3    0    0 -0.64186792337E-01  0.10716874245E+00 -0.28890896993E-01  0.13895274592E+00  0.53554626315E-01 0.  0.
         14    1    1    2    0    0 -0.17168065042E-02  0.12958515614E-01 -0.42859111291E-02  0.13756437973E-01  0.00000000000E+00 0.  1.
     999901    1    3    3    0    0  0.65903598841E-01 -0.12012725807E+00  0.33176808122E-01  0.89122081611E+00  0.88000000000E+00 0.  1.
        -11    1    4    4    0    0 -0.51067066776E-01  0.10037960714E+00 -0.73966329800E-02  0.11286665645E+00  0.51100000000E-03 0.  1.
         11    1    4    4    0    0 -0.13119725561E-01  0.67891353127E-02 -0.21494264013E-01  0.26086089464E-01  0.51100000000E-03 0. -1.
</event>
<event>
 8    1  0.2084311E+004  0.1043930E+01  0.7957747E-01            NaN
         13   -1    0    0    0    0  0.00000000000E+00  0.00000000000E+00  0.74505805969E-08  0.10566000000E+00  0.10566000000E+00 0.  1.
     999900   -1    0    0    0    0 -0.00000000000E+00 -0.00000000000E+00 -0.74505805969E-08  0.93827000000E+00  0.93827000000E+00 0.  1.
     999902    2    1    2    0    0  0.97980313322E-02 -0.42567032960E-02  0.88544832211E-02  0.10300547409E+01  0.10299612840E+01 0.  0.
     999903    2    3    3    0    0 -0.82257119352E-02  0.12990289785E+00  0.21345798355E-01  0.13961682235E+00  0.45768862448E-01 0.  0.
         14    1    1    2    0    0 -0.97980313322E-02  0.42567032960E-02 -0.88544832211E-02  0.13875259062E-01  0.00000000000E+00 0. -1.
     999901    1    3    3    0    0  0.18023743267E-01 -0.13415960115E+00 -0.12491315134E-01  0.89043791859E+00  0.88000000000E+00 0.  1.
        -11    1    4    4    0    0  0.18052150659E-01  0.66996631318E-01  0.53803768062E-02  0.69596252248E-01  0.51100000000E-03 0. -1.
         11    1    4    4    0    0 -0.26277862594E-01  0.62906266532E-01  0.15965421549E-01  0.70020570104E-01  0.51100000000E-03 0.  1.
</event>
<event>
 7    1  0.2025822E+004  0.1043930E+01  0.7957747E-01            NaN
         13   -1    0    0    0    0  0.00000000000E+00  0.00000000000E+00  0.74505805969E-08  0.10566000000E+00  0.10566000000E+00 0. -1.
     999900   -1    0    0    0    0 -0.00000000000E+00 -0.00000000000E+00 -0.74505805969E-08  0.93827000000E+00  0.93827000000E+00 0. -1.
     999903    2    1    2    0    0  0.92771667529E-01  0.57552259751E-01 -0.18628528845E-01  0.11955489151E+00  0.45027825820E-01 0.  0.
         14    1    1    2    0    0 -0.14408684721E-01 -0.15038896764E-01  0.33844805868E-01  0.39739772212E-01  0.00000000000E+00 0. -1.
     999901    1    1    2    0    0 -0.78362982809E-01 -0.42513362986E-01 -0.15216277022E-01  0.88463533628E+00  0.88000000000E+00 0. -1.
        -11    1    3    3    0    0  0.16338431085E-01 -0.72240399672E-02 -0.18264092907E-02  0.17964631242E-01  0.51100000000E-03 0. -1.
         11    1    3    3    0    0  0.76433236445E-01  0.64776299718E-01 -0.16802119555E-01  0.10159026027E+00  0.51100000000E-03 0.  1.
</event>
<event>
 8    1  0.2025822E+004  0.1043930E+01  0.7957747E-01            NaN
         13   -1    0    0    0    0  0.00000000000E+00  0.00000000000E+00  0.74505805969E-08  0.10566000000E+00  0.10566000000E+00 0.  1.
     999900   -1    0    0    0    0 -0.00000000000E+00 -0.00000000000E+00 -0.74505805969E-08  0.93827000000E+00  0.93827000000E+00 0.  1.
     999902    2    1    2    0    0 -0.84968698073E-02  0.14596269288E-01  0.86953363654E-02  0.10249337702E+01  0.10247577160E+01 0.  0.
     999903    2    3    3    0    0 -0.10894946793E+00  0.19870367441E-01  0.68499053864E-01  0.13718660728E+00  0.43165110591E-01 0.  0.
         14    1    1    2    0    0  0.84968698073E-02 -0.14596269288E-01 -0.86953363654E-02  0.18996229841E-01  0.00000000000E+00 0.  1.
     999901    1    3    3    0    0  0.10045259812E+00 -0.52740981532E-02 -0.59803717498E-01  0.88774716288E+00  0.88000000000E+00 0.  1.
        -11    1    4    4    0    0 -0.94358359184E-01  0.17170458658E-01  0.74221796718E-01  0.12127432056E+00  0.51100000000E-03 0. -1.
         11    1    4    4    0    0 -0.14591108742E-01  0.26999087834E-02 -0.57227428543E-02  0.15912286716E-01  0.51100000000E-03 0.  1.
</event>
<event>
 8    1  0.2025822E+004  0.1043930E+01  0.7957747E-01            NaN
         13   -1    0    0    0    0  0.00000000000E+00  0.00000000000E+00  0.74505805969E-08  0.10566000000E+00  0.10566000000E+00 0.  1.
     999900   -1    0    0    0    0 -0.00000000000E+00 -0.00000000000E+00 -0.74505805969E-08  0.93827000000E+00  0.93827000000E+00 0.  1.
     999902    2    1    2    0    0 -0.17047306063E-02 -0.43509216943E-02 -0.13424885991E-01  0.10297150716E+01  0.10296169504E+01 0.  0.
     999903    2    3    3    0    0  0.10219241981E+00 -0.16100164659E-01  0.82371999360E-01  0.13836233231E+00  0.40699910976E-01 0.  0.
         14    1    1    2    0    0  0.17047306063E-02  0.43509216943E-02  0.13424885991E-01  0.14214928417E-01  0.00000000000E+00 0.  1.
     999901    1    3    3    0    0 -0.10389715042E+00  0.11749242965E-01 -0.95796885350E-01  0.89135273928E+00  0.88000000000E+00 0.  1.
        -11    1    4    4    0    0  0.51842420441E-01 -0.57861045332E-02  0.16302411778E-01  0.54654783081E-01  0.51100000000E-03 0. -1.
         11    1    4    4    0    0  0.50349999371E-01 -0.10314060126E-01  0.66069587582E-01  0.83707549225E-01  0.51100000000E-03 0.  1.
</event>
<event>
 8    1  0.2025822E+004  0.1043930E+01  0.7957747E-01            NaN
         13   -1    0    0    0    0  0.00000000000E+00  0.00000000000E+00  0.74505805969E-08  0.10566000000E+00  0.10566000000E+00 0.  1.
     999900   -1    0    0    0    0 -0.00000000000E+00 -0.00000000000E+00 -0.74505805969E-08  0.93827000000E+00  0.93827000000E+00 0.  1.
     999902    2    1    2    0    0 -0.10169527090E-01 -0.60425713640E-02 -0.68125433304E-02  0.10302792602E+01  0.10301888231E+01 0.  0.
     999903    2    3    3    0    0  0.81692798882E-01  0.52837628003E-01  0.91399440420E-01  0.13811831142E+00  0.35458171390E-01 0.  0.
         14    1    1    2    0    0  0.10169527090E-01  0.60425713640E-02  0.68125433304E-02  0.13650739780E-01  0.00000000000E+00 0.  1.
     999901    1    3    3    0    0 -0.91862325972E-01 -0.58880199367E-01 -0.98211983750E-01  0.89216094880E+00  0.88000000000E+00 0.  1.
        -11    1    4    4    0    0  0.65181404814E-01  0.53236369358E-01  0.86941641950E-01  0.12100345773E+00  0.51100000000E-03 0.  1.
         11    1    4    4    0    0  0.16511394069E-01 -0.39874135440E-03  0.44577984704E-02  0.17114853694E-01  0.51100000000E-03 0. -1.
</event>
<event>
 8    1  0.2025822E+004  0.1043930E+01  0.7957747E-01            NaN
         13   -1    0    0    0    0  0.00000000000E+00  0.00000000000E+00  0.74505805969E-08  0.10566000000E+00  0.10566000000E+00 0. -1.
     999900   -1    0    0    0    0 -0.00000000000E+00 -0.00000000000E+00 -0.74505805969E-08  0.93827000000E+00  0.93827000000E+00 0. -1.
     999902    2    1    2    0    0 -0.76485354287E-02  0.11241588013E-01 -0.14399946179E-02  0.10302571444E+01  0.10301664121E+01 0.  0.
     999903    2    3    3    0    0  0.11822761744E+00  0.16552214899E-01 -0.56861123972E-01  0.13955825579E+00  0.44627054554E-01 0.  0.
         14    1    1    2    0    0  0.76485354287E-02 -0.11241588013E-01  0.14399946179E-02  0.13672855582E-01  0.00000000000E+00 0.  1.
     999901    1    3    3    0    0 -0.12587615287E+00 -0.53106268856E-02  0.55421129354E-01  0.89069888862E+00  0.88000000000E+00 0.  1.
        -11    1    4    4    0    0  0.85204378918E-01  0.85532257822E-02 -0.17225506340E-01  0.87349430724E-01  0.51100000000E-03 0. -1.
         11    1    4    4    0    0  0.33023238518E-01  0.79989891167E-02 -0.39635617632E-01  0.52208825069E-01  0.51100000000E-03 0.  1.
</event>
<event>
 8    1  0.2025822E+004  0.1043930E+01  0.7957747E-01            NaN
         13   -1    0    0    0    0  0.00000000000E+00  0.00000000000E+00  0.74505805969E-08  0.10566000000E+00  0.10566000000E+00 0. -1.
     999900   -1    0    0    0    0 -0.00000000000E+00 -0.00000000000E+00 -0.74505805969E-08  0.93827000000E+00  0.93827000000E+00 0.  1.
     999902    2    1    2    0    0 -0.52350585627E-02  0.84189568695E-02 -0.10141142302E-01  0.10297480594E+01  0.10296503962E+01 0.  0.
     999903    2    3    3    0    0  0.52407573108E-01  0.12042139889E+00  0.19326915635E-01  0.14029002975E+00  0.45386074418E-01 0.  0.
         14    1    1    2    0    0  0.52350585627E-02 -0.84189568695E-02  0.10141142302E-01  0.14181940633E-01  0.00000000000E+00 0. -1.
     999901    1    3    3    0    0 -0.57642631671E-01 -0.11200244202E+00 -0.29468057937E-01  0.88945802961E+00  0.88000000000E+00 0. -1.
        -11    1    4    4    0    0  0.31142874789E-01  0.25010914263E-01 -0.28691768609E-02  0.40048942299E-01  0.51100000000E-03 0.  1.
         11    1    4    4    0    0  0.21264698319E-01  0.95410484626E-01  0.22196092496E-01  0.10024108746E+00  0.51100000000E-03 0. -1.
</event>
<event>
 8    1  0.2025822E+004  0.1043930E+01  0.7957747E-01            NaN
         13   -1    0    0    0    0  0.00000000000E+00  0.00000000000E+00  0.74505805969E-08  0.10566000000E+00  0.10566000000E+00 0. -1.
     999900   -1    0    0    0    0 -0.00000000000E+00 -0.00000000000E+00 -0.74505805969E-08  0.93827000000E+00  0.93827000000E+00 0. -1.
     999902    2    1    2    0    0 -0.14223882811E-02 -0.91770882841E-02  0.10365804396E-01  0.10300126713E+01  0.10299186429E+01 0.  0.
     999903    2    3    3    0    0 -0.73379936265E-01 -0.11145181672E+00  0.13568380351E-01  0.14116607863E+00  0.44018613267E-01 0.  0.
         14    1    1    2    0    0  0.14223882811E-02  0.91770882841E-02 -0.10365804396E-01  0.13917328715E-01  0.00000000000E+00 0.  1.
     999901    1    3    3    0    0  0.71957547984E-01  0.10227472843E+00 -0.32025759554E-02  0.88884659266E+00  0.88000000000E+00 0.  1.
        -11    1    4    4    0    0 -0.25769850001E-01 -0.55690901159E-01  0.26266956854E-01  0.66751597617E-01  0.51100000000E-03 0. -1.
         11    1    4    4    0    0 -0.47610086264E-01 -0.55760915556E-01 -0.12698576503E-01  0.74414481010E-01  0.51100000000E-03 0.  1.
</event>
<event>
 8    1  0.2025822E+004  0.1043930E+01  0.7957747E-01            NaN
         13   -1    0    0    0    0  0.00000000000E+00  0.00000000000E+00  0.74505805969E-08  0.10566000000E+00  0.10566000000E+00 0.  1.
     999900   -1    0    0    0    0 -0.00000000000E+00 -0.00000000000E+00 -0.74505805969E-08  0.93827000000E+00  0.93827000000E+00 0. -1.
     999902    2    1    2    0    0  0.91323127980E-02  0.91389296396E-02 -0.51720732911E-02  0.10300134805E+01  0.10299194631E+01 0.  0.
     999903    2    3    3    0    0  0.96697003608E-01  0.90295070027E-01  0.22172889649E-01  0.14153070569E+00  0.45119767714E-01 0.  0.
         14    1    1    2    0    0 -0.91323127980E-02 -0.91389296396E-02  0.51720732911E-02  0.13916519469E-01  0.00000000000E+00 0.  1.
     999901    1    3    3    0    0 -0.87564690810E-01 -0.81156140387E-01 -0.27344962940E-01  0.88848277485E+00  0.88000000000E+00 0. -1.
        -11    1    4    4    0    0  0.96444494312E-01  0.81346003665E-01  0.29932378572E-01  0.12967236098E+00  0.51100000000E-03 0.  1.
         11    1    4    4    0    0  0.25250929595E-03  0.89490663619E-02 -0.77594889234E-02  0.11858344701E-01  0.51100000000E-03 0. -1.
</event>
<event>
 8    1  0.2025822E+004  0.1043930E+01  0.7957747E-01            NaN
         13   -1    0    0    0    0  0.00000000000E+00  0.00000000000E+00  0.74505805969E-08  0.10566000000E+00  0.10566000000E+00 0. -1.
     999900   -1    0    0    0    0 -0.00000000000E+00 -0.00000000000E+00 -0.74505805969E-08  0.93827000000E+00  0.93827000000E+00 0.  1.
     999902    2    1    2    0    0 -0.35484060223E-04  0.91544493058E-02 -0.11006087284E-01  0.10296143038E+01  0.10295147767E+01 0.  0.
     999903    2    3    3    0    0 -0.76147146630E-01 -0.88368854670E-01 -0.62117564449E-01  0.13949287211E+00  0.44634371756E-01 0.  0.
         14    1    1    2    0    0  0.35484060223E-04 -0.91544493058E-02  0.11006087284E-01  0.14315696228E-01  0.00000000000E+00 0.  1.
     999901    1    3    3    0    0  0.76111662570E-01  0.97523303976E-01  0.51111477165E-01  0.89012143166E+00  0.88000000000E+00 0. -1.
        -11    1    4    4    0    0 -0.59740338318E-02 -0.17995746938E-01 -0.29162879993E-01  0.34788944775E-01  0.51100000000E-03 0.  1.
         11    1    4    4    0    0 -0.70173112798E-01 -0.70373107733E-01 -0.32954684456E-01  0.10470392734E+00  0.51100000000E-03 0. -1.
</event>
<event>
 8    1  0.2025822E+004  0.1043930E+01  0.7957747E-01            NaN
         13   -1    0    0    0    0  0.00000000000E+00  0.00000000000E+00  0.74505805969E-08  0.10566000000E+00  0.10566000000E+00 0. -1.
     999900   -1    0    0    0    0 -0.00000000000E+00 -0.00000000000E+00 -0.74505805969E-08  0.93827000000E+00  0.93827000000E+00 0. -1.
     999902    2    1    2    0    0 -0.12785825249E-01 -0.13492564977E-02 -0.36059839059E-02  0.10305770625E+01  0.10304905535E+01 0.  0.
     999903    2    3    3    0    0  0.58518263248E-01  0.73107664257E-02 -0.11872899026E+00  0.14017682909E+00  0.45553658982E-01 0.  0.
         14    1    1    2    0    0  0.12785825249E-01  0.13492564977E-02  0.36059839059E-02  0.13352937516E-01  0.00000000000E+00 0. -1.
     999901    1    3    3    0    0 -0.71304088497E-01 -0.86600229234E-02  0.11512300635E+00  0.89040023339E+00  0.88000000000E+00 0.  1.
        -11    1    4    4    0    0  0.40455320980E-02  0.15214123009E-01 -0.48209206742E-01  0.50717103669E-01  0.51100000000E-03 0.  1.
         11    1    4    4    0    0  0.54472731150E-01 -0.79033565830E-02 -0.70519783517E-01  0.89459725422E-01  0.51100000000E-03 0. -1.
</event>
<event>
 8    1  0.2025822E+004  0.1043930E+01  0.7957747E-01            NaN
         13   -1    0    0    0    0  0.00000000000E+00  0.00000000000E+00  0.74505805969E-08  0.10566000000E+00  0.10566000000E+00 0. -1.
     999900   -1    0    0    0    0 -0.00000000000E+00 -0.00000000000E+00 -0.74505805969E-08  0.93827000000E+00  0.93827000000E+00 0.  1.
     999902    2    1    2    0    0  0.16265883274E-02 -0.66656664540E-02 -0.12050138048E-01  0.10300633953E+01  0.10299700557E+01 0.  0.
     999903    2    3    3    0    0  0.99591056076E-01  0.54992089100E-01 -0.69629954019E-01  0.14061741551E+00  0.44524361130E-01 0.  0.
         14    1    1    2    0    0 -0.16265883274E-02  0.66656664540E-02  0.12050138048E-01  0.13866604698E-01  0.00000000000E+00 0. -1.
     999901    1    3    3    0    0 -0.97964467749E-01 -0.61657755553E-01  0.57579815971E-01  0.88944597979E+00  0.88000000000E+00 0.  1.
        -11    1    4    4    0    0  0.43134943787E-01  0.45584076529E-01 -0.49542990043E-01  0.79958116486E-01  0.51100000000E-03 0. -1.
         11    1    4    4    0    0  0.56456112289E-01  0.94080125701E-02 -0.20086963976E-01  0.60659299024E-01  0.51100000000E-03 0.  1.
</event>
<event>
 8    1  0.2025822E+004  0.1043930E+01  0.7957747E-01            NaN
         13   -1    0    0    0    0  0.00000000000E+00  0.00000000000E+00  0.74505805969E-08  0.10566000000E+00  0.10566000000E+00 0.  1.
     999900   -1    0    0    0    0 -0.00000000000E+00 -0.00000000000E+00 -0.74505805969E-08  0.93827000000E+00  0.93827000000E+00 0.  1.
     999902    2    1    2    0    0 -0.13996419460E-01  0.35015001269E-02 -0.21967559460E-03  0.10295005676E+01  0.10293994415E+01 0.  0.
     999903    2    3    3    0    0 -0.72450743637E-01 -0.75517445366E-01  0.81824648934E-01  0.14023560547E+00  0.44930580448E-01 0.  0.
         14    1    1    2    0    0  0.13996419460E-01 -0.35015001269E-02  0.21967559460E-03  0.14429432359E-01  0.00000000000E+00 0. -1.
     999901    1    3    3    0    0  0.58454324177E-01  0.79018945493E-01 -0.82044324529E-01  0.88926496217E+00  0.88000000000E+00 0.  1.
        -11    1    4    4    0    0 -0.88127489392E-02 -0.23405761666E-01  0.41912298418E-01  0.48809795151E-01  0.51100000000E-03 0. -1.
         11    1    4    4    0    0 -0.63637994698E-01 -0.52111683700E-01  0.39912350516E-01  0.91425810316E-01  0.51100000000E-03 0.  1.
</event>
<event>
 8    1  0.2025822E+004  0.1043930E+01  0.7957747E-01            NaN
         13   -1    0    0    0    0  0.00000000000E+00  0.00000000000E+00  0.74505805969E-08  0.10566000000E+00  0.10566000000E+00 0.  1.
     999900   -1    0    0    0    0 -0.00000000000E+00 -0.00000000000E+00 -0.74505805969E-08  0.93827000000E+00  0.93827000000E+00 0. -1.
     999902    2    1    2    0    0 -0.13071949395E-01  0.12003984605E-02  0.22366728706E-02  0.10306138623E+01  0.10305278326E+01 0.  0.
     999903    2    3    3    0    0 -0.10230877707E+00  0.32993373954E-01  0.80876914348E-01  0.14204293532E+00  0.45601223775E-01 0.  0.
         14    1    1    2    0    0  0.13071949395E-01 -0.12003984605E-02 -0.22366728706E-02  0.13316137690E-01  0.00000000000E+00 0.  1.
     999901    1    3    3    0    0  0.89236827679E-01 -0.31792975493E-01 -0.78640241477E-01  0.88857092699E+00  0.88000000000E+00 0. -1.
        -11    1    4    4    0    0 -0.34882013928E-01 -0.10291899022E-01  0.29803445114E-01  0.47023234074E-01  0.51100000000E-03 0. -1.
         11    1    4    4    0    0 -0.67426763147E-01  0.43285272976E-01  0.51073469234E-01  0.95019701250E-01  0.51100000000E-03 0.  1.
</event>
<event>
 8    1  0.2025822E+004  0.1043930E+01  0.7957747E-01            NaN
         13   -1    0    0    0    0  0.00000000000E+00  0.00000000000E+00  0.74505805969E-08  0.10566000000E+00  0.10566000000E+00 0. -1.
     999900   -1    0    0    0    0 -0.00000000000E+00 -0.00000000000E+00 -0.74505805969E-08  0.93827000000E+00  0.93827000000E+00 0. -1.
     999902    2    1    2    0    0 -0.11632617337E-01 -0.72615608244E-02  0.15597965645E-02  0.10301285140E+01  0.10300360548E+01 0.  0.
     999903    2    3    3    0    0 -0.94635892003E-01 -0.91277027225E-01  0.29426501150E-01  0.14180160599E+00  0.44207790443E-01 0.  0.
         14    1    1    2    0    0  0.11632617337E-01  0.72615608244E-02 -0.15597965645E-02  0.13801486044E-01  0.00000000000E+00 0. -1.
     999901    1    3    3    0    0  0.83003274666E-01  0.84015466400E-01 -0.27866704586E-01  0.88832690797E+00  0.88000000000E+00 0. -1.
        -11    1    4    4    0    0 -0.97947403101E-01 -0.79044949588E-01  0.28713407764E-01  0.12909887194E+00  0.51100000000E-03 0.  1.
         11    1    4    4    0    0  0.33115110980E-02 -0.12232077637E-01  0.71309338643E-03  0.12702734046E-01  0.51100000000E-03 0. -1.
</event>
<event>
 8    1  0.2025822E+004  0.1043930E+01  0.7957747E-01            NaN
         13   -1    0    0    0    0  0.00000000000E+00  0.00000000000E+00  0.74505805969E-08  0.10566000000E+00  0.10566000000E+00 0.  1.
     999900   -1    0    0    0    0 -0.00000000000E+00 -0.00000000000E+00 -0.74505805969E-08  0.93827000000E+00  0.93827000000E+00 0.  1.
     999902    2    1    2    0    0 -0.10138194312E-01  0.50146497048E-02  0.97960072696E-02  0.10289669972E+01  0.10288581971E+01 0.  0.
     999903    2    3    3    0    0  0.32402209847E-01 -0.10644272021E+00 -0.70399320409E-01  0.13730353942E+00  0.38938948793E-01 0.  0.
         14    1    1    2    0    0  0.10138194312E-01 -0.50146497048E-02 -0.97960072696E-02  0.14963002840E-01  0.00000000000E+00 0.  1.
     999901    1    3    3    0    0 -0.42540404159E-01  0.11145736992E+00  0.80195327678E-01  0.89166345774E+00  0.88000000000E+00 0. -1.
        -11    1    4    4    0    0  0.38822126666E-01 -0.80900979429E-01 -0.63931436918E-01  0.11017992439E+00  0.51100000000E-03 0.  1.
         11    1    4    4    0    0 -0.64199168183E-02 -0.25541740783E-01 -0.64678834901E-02  0.27123615025E-01  0.51100000000E-03 0. -1.
</event>
<event>
 8    1  0.2025822E+004  0.1043930E+01  0.7957747E-01            NaN
         13   -1    0    0    0    0  0.00000000000E+00  0.00000000000E+00  0.74505805969E-08  0.10566000000E+00  0.10566000000E+00 0.  1.
     999900   -1    0    0    0    0 -0.00000000000E+00 -0.00000000000E+00 -0.74505805969E-08  0.93827000000E+00  0.93827000000E+00 0. -1.
     999902    2    1    2    0    0  0.44188755166E-02  0.11900886740E-01  0.15455500103E-02  0.10311414782E+01  0.10310621716E+01 0.  0.
     999903    2    3    3    0    0 -0.84515742698E-01  0.62729173882E-01  0.83390817724E-01  0.14142718192E+00  0.44381970266E-01 0.  0.
         14    1    1    2    0    0 -0.44188755166E-02 -0.11900886740E-01 -0.15455500103E-02  0.12788521840E-01  0.00000000000E+00 0.  1.
     999901    1    3    3    0    0  0.88934618215E-01 -0.50828287142E-01 -0.81845267714E-01  0.88971429624E+00  0.88000000000E+00 0. -1.
        -11    1    4    4    0    0 -0.42152804779E-01  0.89560113171E-02  0.17828993968E-01  0.46639074137E-01  0.51100000000E-03 0.  1.
         11    1    4    4    0    0 -0.42362937919E-01  0.53773162565E-01  0.65561823756E-01  0.94788107780E-01  0.51100000000E-03 0. -1.
</event>
<event>
 8    1  0.2025822E+004  0.1043930E+01  0.7957747E-01            NaN
         13   -1    0    0    0    0  0.00000000000E+00  0.00000000000E+00  0.74505805969E-08  0.10566000000E+00  0.10566000000E+00 0.  1.
     999900   -1    0    0    0    0 -0.00000000000E+00 -0.00000000000E+00 -0.74505805969E-08  0.93827000000E+00  0.93827000000E+00 0.  1.
     999902    2    1    2    0    0 -0.89849417238E-02  0.10830639488E-01 -0.14557915284E-02  0.10297825176E+01  0.10296853317E+01 0.  0.
     999903    2    3    3    0    0 -0.28613849038E-01  0.10459873065E+00 -0.77911687821E-01  0.14128758063E+00  0.46176861432E-01 0.  0.
         14    1    1    2    0    0  0.89849417238E-02 -0.10830639488E-01  0.14557915284E-02  0.14147482407E-01  0.00000000000E+00 0. -1.
     999901    1    3    3    0    0  0.19628907314E-01 -0.93768091164E-01  0.76455896292E-01  0.88849493696E+00  0.88000000000E+00 0. -1.
        -11    1    4    4    0    0 -0.32610571153E-01  0.60733612163E-01 -0.66499650924E-01  0.95783535596E-01  0.51100000000E-03 0. -1.
         11    1    4    4    0    0  0.39967221157E-02  0.43865118488E-01 -0.11412036897E-01  0.45504045038E-01  0.51100000000E-03 0.  1.
</event>
<event>
 8    1  0.2025822E+004  0.1043930E+01  0.7957747E-01            NaN
         13   -1    0    0    0    0  0.00000000000E+00  0.00000000000E+00  0.74505805969E-08  0.10566000000E+00  0.10566000000E+00 0. -1.
     999900   -1    0    0    0    0 -0.00000000000E+00 -0.00000000000E+00 -0.74505805969E-08  0.93827000000E+00  0.93827000000E+00 0. -1.
     999902    2    1    2    0    0 -0.31953991306E-02  0.11460807632E-01  0.60618059587E-02  0.10305768663E+01  0.10304903548E+01 0.  0.
     999903    2    3    3    0    0 -0.11693434141E+00  0.61964994920E-01 -0.15559633517E-01  0.14155790896E+00  0.47783246005E-01 0.  0.
         14    1    1    2    0    0  0.31953991306E-02 -0.11460807632E-01 -0.60618059587E-02  0.13353133664E-01  0.00000000000E+00 0.  1.
     999901    1    3    3    0    0  0.11373894228E+00 -0.50504187288E-01  0.21621439476E-01  0.88901895737E+00  0.88000000000E+00 0.  1.
        -11    1    4    4    0    0 -0.90876431487E-01  0.23170775385E-01 -0.70163662995E-02  0.94047334618E-01  0.51100000000E-03 0. -1.
         11    1    4    4    0    0 -0.26057909920E-01  0.38794219535E-01 -0.85432672173E-02  0.47510574344E-01  0.51100000000E-03 0.  1.
</event>
<event>
 8    1  0.2025822E+004  0.1043930E+01  0.7957747E-01            NaN
         13   -1    0    0    0    0  0.00000000000E+00  0.00000000000E+00  0.74505805969E-08  0.10566000000E+00  0.10566000000E+00 0.  1.
     999900   -1    0    0    0    0 -0.00000000000E+00 -0.00000000000E+00 -0.74505805969E-08  0.93827000000E+00  0.93827000000E+00 0.  1.
     999902    2    1    2    0    0 -0.11228480340E-01 -0.30178771237E-02  0.59628228652E-02  0.10308631867E+01  0.10307803685E+01 0.  0.
     999903    2    3    3    0    0  0.61458883272E-01 -0.11698687650E+00 -0.14443531744E-01  0.14030785156E+00  0.44883783201E-01 0.  0.
         14    1    1    2    0    0  0.11228480340E-01  0.30178771237E-02 -0.59628228652E-02  0.13066813292E-01  0.00000000000E+00 0. -1.
     999901    1    3    3    0    0 -0.72687363613E-01  0.11396899938E+00  0.20406354609E-01  0.89055533515E+00  0.88000000000E+00 0. -1.
        -11    1    4    4    0    0  0.20880091901E-01 -0.44971651449E-01 -0.27375088865E-01  0.56639953065E-01  0.51100000000E-03 0.  1.
         11    1    4    4    0    0  0.40578791371E-01 -0.72015225052E-01  0.12931557121E-01  0.83667898497E-01  0.51100000000E-03 0. -1.
</event>
<event>
 8    1  0.2025822E+004  0.1043930E+01  0.7957747E-01            NaN
         13   -1    0    0    0    0  0.00000000000E+00  0.00000000000E+00  0.74505805969E-08  0.10566000000E+00  0.10566000000E+00 0. -1.
     999900   -1    0    0    0    0 -0.00000000000E+00 -0.00000000000E+00 -0.74505805969E-08  0.93827000000E+00  0.93827000000E+00 0.  1.
     999902    2    1    2    0    0  0.64388286157E-02  0.13103084310E-04 -0.14270909251E-01  0.10282737700E+01  0.10281545743E+01 0.  0.
     999903    2    3    3    0    0 -0.11295956710E+00 -0.31270494062E-01 -0.58009626442E-01  0.13858409621E+00  0.45855505259E-01 0.  0.
         14    1    1    2    0    0 -0.64388286157E-02 -0.13103084310E-04  0.14270909251E-01  0.15656229958E-01  0.00000000000E+00 0. -1.
     999901    1    3    3    0    0  0.11939839572E+00  0.31283597146E-01  0.43738717191E-01  0.88968967384E+00  0.88000000000E+00 0. -1.
        -11    1    4    4    0    0 -0.64029605566E-01 -0.18594111265E-01 -0.57481199320E-01  0.88033407062E-01  0.51100000000E-03 0.  1.
         11    1    4    4    0    0 -0.48929961535E-01 -0.12676382797E-01 -0.52842712209E-03  0.50550689143E-01  0.51100000000E-03 0. -1.
</event>
<event>
 8    1  0.2025822E+004  0.1043930E+01  0.7957747E-01            NaN
         13   -1    0    0    0    0  0.00000000000E+00  0.00000000000E+00  0.74505805969E-08  0.10566000000E+00  0.10566000000E+00 0. -1.
     999900   -1    0    0    0    0 -0.00000000000E+00 -0.00000000000E+00 -0.74505805969E-08  0.93827000000E+00  0.93827000000E+00 0.  1.
     999902    2    1    2    0    0  0.27851194354E-02  0.13099456883E-01 -0.28980551124E-02  0.10302277599E+01  0.10301366345E+01 0.  0.
     999903    2    3    3    0    0 -0.11630457563E+00  0.61863510952E-01  0.16779243166E-01  0.14065062185E+00  0.46337955564E-01 0.  0.
         14    1    1    2    0    0 -0.27851194354E-02 -0.13099456883E-01  0.28980551124E-02  0.13702240121E-01  0.00000000000E+00 0. -1.
     999901    1    3    3    0    0  0.11908969506E+00 -0.48764054069E-01 -0.19677298278E-01  0.88957713803E+00  0.88000000000E+00 0.  1.
        -11    1    4    4    0    0 -0.55117505927E-01  0.55282776777E-02 -0.18077445121E-02  0.55425899857E-01  0.51100000000E-03 0. -1.
         11    1    4    4    0    0 -0.61187069701E-01  0.56335233274E-01  0.18586987678E-01  0.85224721991E-01  0.51100000000E-03 0.  1.
</event>
<event>
 8    1  0.2025822E+004  0.1043930E+01  0.7957747E-01            NaN
         13   -1    0    0    0    0  0.00000000000E+00  0.00000000000E+00  0.74505805969E-08  0.10566000000E+00  0.10566000000E+00 0.  1.
     999900   -1    0    0    0    0 -0.00000000000E+00 -0.00000000000E+00 -0.74505805969E-08  0.93827000000E+00  0.93827000000E+00 0.  1.
     999902    2    1    2    0    0 -0.68716115460E-02 -0.30101865978E-02 -0.11599871315E-01  0.10301156132E+01  0.10300229800E+01 0.  0.
     999903    2    3    3    0    0  0.62853167932E-01 -0.10798707675E+00 -0.46167937888E-01  0.14046588235E+00  0.44580894489E-01 0.  0.
         14    1    1    2    0    0  0.68716115460E-02  0.30101865978E-02  0.11599871315E-01  0.13814386817E-01  0.00000000000E+00 0.  1.
     999901    1    3    3    0    0 -0.69724779478E-01  0.10497689015E+00  0.34568066573E-01  0.88964973083E+00  0.88000000000E+00 0. -1.
        -11    1    4    4    0    0  0.13559566362E-01 -0.46144916524E-01  0.15058194555E-02  0.48122175493E-01  0.51100000000E-03 0. -1.
         11    1    4    4    0    0  0.49293601570E-01 -0.61842160222E-01 -0.47673757344E-01  0.92343706861E-01  0.51100000000E-03 0.  1.
</event>
<event>
 8    1  0.2025822E+004  0.1043930E+01  0.7957747E-01            NaN
         13   -1    0    0    0    0  0.00000000000E+00  0.00000000000E+00  0.74505805969E-08  0.10566000000E+00  0.10566000000E+00 0.  1.
     999900   -1    0    0    0    0 -0.00000000000E+00 -0.00000000000E+00 -0.74505805969E-08  0.93827000000E+00  0.93827000000E+00 0.  1.
     999902    2    1    2    0    0  0.49607035123E-02  0.74467810975E-02 -0.10222385313E-01  0.10303447032E+01  0.10302551369E+01 0.  0.
     999903    2    3    3    0    0 -0.39759847095E-01  0.12752239376E+00 -0.68203235578E-02  0.14105866685E+00  0.44813216009E-01 0.  0.
         14    1    1    2    0    0 -0.49607035123E-02 -0.74467810975E-02  0.10222385313E-01  0.13585296815E-01  0.00000000000E+00 0.  1.
     999901    1    3    3    0    0  0.44720550607E-01 -0.12007561266E+00 -0.34020617554E-02  0.88928603634E+00  0.88000000000E+00 0.  1.
        -11    1    4    4    0    0 -0.21580312872E-01  0.22553393140E-01  0.10889771292E-01  0.33063782082E-01  0.51100000000E-03 0.  1.
         11    1    4    4    0    0 -0.18179534223E-01  0.10496900062E+00 -0.17710094849E-01  0.10799488477E+00  0.51100000000E-03 0. -1.
</event>
<event>
 8    1  0.2025822E+004  0.1043930E+01  0.7957747E-01            NaN
         13   -1    0    0    0    0  0.00000000000E+00  0.00000000000E+00  0.74505805969E-08  0.10566000000E+00  0.10566000000E+00 0.  1.
     999900   -1    0    0    0    0 -0.00000000000E+00 -0.00000000000E+00 -0.74505805969E-08  0.93827000000E+00  0.93827000000E+00 0.  1.
     999902    2    1    2    0    0 -0.22111293228E-02 -0.12542900296E-01 -0.66889880510E-02  0.10295440346E+01  0.10294435211E+01 0.  0.
     999903    2    3    3    0    0  0.58622696256E-01  0.57705937566E-01 -0.10302943116E+00  0.13942205722E+00  0.45352514902E-01 0.  0.
         14    1    1    2    0    0  0.22111293228E-02  0.12542900296E-01  0.66889880510E-02  0.14385965448E-01  0.00000000000E+00 0.  1.
     999901    1    3    3    0    0 -0.60833825579E-01 -0.70248837862E-01  0.96340443105E-01  0.89012197733E+00  0.88000000000E+00 0. -1.
        -11    1    4    4    0    0  0.50080541591E-01  0.20883833802E-01 -0.73977484327E-01  0.91744887970E-01  0.51100000000E-03 0. -1.
         11    1    4    4    0    0  0.85421546652E-02  0.36822103764E-01 -0.29051946828E-01  0.47677169247E-01  0.51100000000E-03 0.  1.
</event>
<event>
 8    1  0.2025822E+004  0.1043930E+01  0.7957747E-01            NaN
         13   -1    0    0    0    0  0.00000000000E+00  0.00000000000E+00  0.74505805969E-08  0.10566000000E+00  0.10566000000E+00 0. -1.
     999900   -1    0    0    0    0 -0.00000000000E+00 -0.00000000000E+00 -0.74505805969E-08  0.93827000000E+00  0.93827000000E+00 0. -1.
     999902    2    1    2    0    0  0.12508155024E-01 -0.56351083796E-02 -0.72743870059E-03  0.10301918212E+01  0.10301002141E+01 0.  0.
     999903    2    3    3    0    0 -0.11105820654E+00 -0.26637288988E-01  0.65480397489E-01  0.13884833253E+00  0.44132828875E-01 0.  0.
         14    1    1    2    0    0 -0.12508155024E-01  0.56351083796E-02  0.72743870059E-03  0.13738178759E-01  0.00000000000E+00 0. -1.
     999901    1    3    3    0    0  0.12356636157E+00  0.21002180608E-01 -0.66207836189E-01  0.89134348871E+00  0.88000000000E+00 0.  1.
        -11    1    4    4    0    0 -0.71121959038E-01 -0.37293269716E-01  0.50575775471E-01  0.94906750071E-01  0.51100000000E-03 0.  1.
         11    1    4    4    0    0 -0.39936247506E-01  0.10655980728E-01  0.14904622018E-01  0.43941582455E-01  0.51100000000E-03 0. -1.
</event>
<event>
 8    1  0.2025822E+004  0.1043930E+01  0.7957747E-01            NaN
         13   -1    0    0    0    0  0.00000000000E+00  0.00000000000E+00  0.74505805969E-08  0.10566000000E+00  0.10566000000E+00 0. -1.
     999900   -1    0    0    0    0 -0.00000000000E+00 -0.00000000000E+00 -0.74505805969E-08  0.93827000000E+00  0.93827000000E+00 0.  1.
     999902    2    1    2    0    0  0.11922333988E-01  0.50277830276E-02 -0.57294616224E-02  0.10297791209E+01  0.10296818880E+01 0.  0.
     999903    2    3    3    0    0 -0.44930835727E-01 -0.44959688686E-01 -0.11558968641E+00  0.13972277477E+00  0.46057839485E-01 0.  0.
         14    1    1    2    0    0 -0.11922333988E-01 -0.50277830276E-02  0.57294616224E-02  0.14150879138E-01  0.00000000000E+00 0. -1.
     999901    1    3    3    0    0  0.56853169716E-01  0.49987471714E-01  0.10986022479E+00  0.89005634610E+00  0.88000000000E+00 0. -1.
        -11    1    4    4    0    0 -0.14936305229E-01 -0.12708422406E-01 -0.82043916733E-01  0.84356757926E-01  0.51100000000E-03 0.  1.
         11    1    4    4    0    0 -0.29994530498E-01 -0.32251266280E-01 -0.33545769677E-01  0.55366016840E-01  0.51100000000E-03 0. -1.
</event>
<event>
 8    1  0.2025822E+004  0.1043930E+01  0.7957747E-01            NaN
         13   -1    0    0    0    0  0.00000000000E+00  0.00000000000E+00  0.74505805969E-08  0.10566000000E+00  0.10566000000E+00 0. -1.
     999900   -1    0    0    0    0 -0.00000000000E+00 -0.00000000000E+00 -0.74505805969E-08  0.93827000000E+00  0.93827000000E+00 0. -1.
     999902    2    1    2    0    0 -0.33201628702E-02  0.28590535180E-02 -0.13211979859E-01  0.10300104425E+01  0.10299163838E+01 0.  0.
     999903    2    3    3    0    0  0.28580589641E-01 -0.80436945123E-01 -0.10324538130E+00  0.14093120265E+00  0.43761202862E-01 0.  0.
         14    1    1    2    0    0  0.33201628702E-02 -0.28590535180E-02  0.13211979859E-01  0.13919557475E-01  0.00000000000E+00 0. -1.
     999901    1    3    3    0    0 -0.31900752511E-01  0.83295998641E-01  0.90033401440E-01  0.88907923987E+00  0.88000000000E+00 0.  1.
        -11    1    4    4    0    0  0.22668104761E-01 -0.22394767481E-01 -0.61248202813E-01  0.69043262182E-01  0.51100000000E-03 0. -1.
         11    1    4    4    0    0  0.59124848797E-02 -0.58042177643E-01 -0.41997178487E-01  0.71887940469E-01  0.51100000000E-03 0.  1.
</event>
<event>
 8    1  0.2025822E+004  0.1043930E+01  0.7957747E-01            NaN
         13   -1    0    0    0    0  0.00000000000E+00  0.00000000000E+00  0.74505805969E-08  0.10566000000E+00  0.10566000000E+00 0. -1.
     999900   -1    0    0    0    0 -0.00000000000E+00 -0.00000000000E+00 -0.74505805969E-08  0.93827000000E+00  0.93827000000E+00 0. -1.
     999902    2    1    2    0    0 -0.24043582165E-02  0.12923993697E-01  0.57925122648E-04  0.10307841297E+01  0.10307002998E+01 0.  0.
     999903    2    3    3    0    0 -0.10876566920E+00  0.63924211834E-01 -0.45971745224E-01  0.14172143150E+00  0.45335274688E-01 0.  0.
         14    1    1    2    0    0  0.24043582165E-02 -0.12923993697E-01 -0.57925122648E-04  0.13145870334E-01  0.00000000000E+00 0. -1.
     999901    1    3    3    0    0  0.10636131099E+00 -0.51000218137E-01  0.46029670347E-01  0.88906269817E+00  0.88000000000E+00 0.  1.
        -11    1    4    4    0    0 -0.44139079109E-01  0.40188990611E-01 -0.41544935296E-01  0.72730021591E-01  0.51100000000E-03 0. -1.
         11    1    4    4    0    0 -0.64626590093E-01  0.23735221223E-01 -0.44268099276E-02  0.68991409905E-01  0.51100000000E-03 0.  1.
</event>
<event>
 8    1  0.2174800E+004  0.1043930E+01  0.7957747E-01            NaN
         13   -1    0    0    0    0  0.00000000000E+00  0.00000000000E+00  0.74505805969E-08  0.10566000000E+00  0.10566000000E+00 0. -1.
     999900   -1    0    0    0    0 -0.00000000000E+00 -0.00000000000E+00 -0.74505805969E-08  0.93827000000E+00  0.93827000000E+00 0.  1.
     999902    2    1    2    0    0 -0.71293250863E-02  0.78902655917E-02 -0.99184101152E-02  0.10293883898E+01  0.10292856740E+01 0.  0.
     999903    2    3    3    0    0  0.55532993572E-01 -0.31025879431E-01 -0.12030361017E+00  0.13943000601E+00  0.30352090334E-01 0.  0.
         14    1    1    2    0    0  0.71293250863E-02 -0.78902655917E-02  0.99184101152E-02  0.14541610176E-01  0.00000000000E+00 0. -1.
     999901    1    3    3    0    0 -0.62662318659E-01  0.38916145022E-01  0.11038520005E+00  0.88995838381E+00  0.88000000000E+00 0. -1.
        -11    1    4    4    0    0  0.34702998435E-01 -0.31070507615E-02 -0.70632503503E-01  0.78760164658E-01  0.51100000000E-03 0. -1.
         11    1    4    4    0    0  0.20829995137E-01 -0.27918828669E-01 -0.49671106667E-01  0.60669841356E-01  0.51100000000E-03 0.  1.
</event>
<event>
 8    1  0.2025822E+004  0.1043930E+01  0.7957747E-01            NaN
         13   -1    0    0    0    0  0.00000000000E+00  0.00000000000E+00  0.74505805969E-08  0.10566000000E+00  0.10566000000E+00 0. -1.
     999900   -1    0    0    0    0 -0.00000000000E+00 -0.00000000000E+00 -0.74505805969E-08  0.93827000000E+00  0.93827000000E+00 0. -1.
     999902    2    1    2    0    0 -0.94301745132E-02  0.53295911047E-03  0.18238972440E-01  0.10233904685E+01  0.10231843327E+01 0.  0.
     999903    2    3    3    0    0  0.29739478764E-02 -0.11264512452E+00  0.59031490018E-01  0.13511845483E+00  0.45546806432E-01 0.  0.
         14    1    1    2    0    0  0.94301745132E-02 -0.53295911047E-03 -0.18238972440E-01  0.20539531456E-01  0.00000000000E+00 0.  1.
     999901    1    3    3    0    0 -0.12404122390E-01  0.11317808363E+00 -0.40792517578E-01  0.88827201372E+00  0.88000000000E+00 0. -1.
        -11    1    4    4    0    0 -0.21285843631E-01 -0.55726246092E-01  0.29867307686E-01  0.66714457443E-01  0.51100000000E-03 0.  1.
         11    1    4    4    0    0  0.24259791508E-01 -0.56918878430E-01  0.29164182332E-01  0.68403997382E-01  0.51100000000E-03 0. -1.
</event>
<event>
 8    1  0.2025822E+004  0.1043930E+01  0.7957747E-01            NaN
         13   -1    0    0    0    0  0.00000000000E+00  0.00000000000E+00  0.74505805969E-08  0.10566000000E+00  0.10566000000E+00 0. -1.
     999900   -1    0    0    0    0 -0.00000000000E+00 -0.00000000000E+00 -0.74505805969E-08  0.93827000000E+00  0.93827000000E+00 0. -1.
     999902    2    1    2    0    0  0.30820526051E-03 -0.10356460689E-01  0.11686936276E-01  0.10283115574E+01  0.10281929408E+01 0.  0.
     999903    2    3    3    0    0 -0.11543158822E+00 -0.45585400208E-01  0.45613331607E-01  0.13938648845E+00  0.44108240406E-01 0.  0.
         14    1    1    2    0    0 -0.30820526051E-03  0.10356460689E-01 -0.11686936276E-01  0.15618442560E-01  0.00000000000E+00 0. -1.
     999901    1    3    3    0    0  0.11573979348E+00  0.35228939519E-01 -0.33926395331E-01  0.88892506899E+00  0.88000000000E+00 0. -1.
        -11    1    4    4    0    0 -0.31924405306E-01 -0.35096688862E-01  0.19062900352E-01  0.51133164522E-01  0.51100000000E-03 0.  1.
         11    1    4    4    0    0 -0.83507182914E-01 -0.10488711346E-01  0.26550431255E-01  0.88253323930E-01  0.51100000000E-03 0. -1.
</event>
<event>
 8    1  0.2025822E+004  0.1043930E+01  0.7957747E-01            NaN
         13   -1    0    0    0    0  0.00000000000E+00  0.00000000000E+00  0.74505805969E-08  0.10566000000E+00  0.10566000000E+00 0. -1.
     999900   -1    0    0    0    0 -0.00000000000E+00 -0.00000000000E+00 -0.74505805969E-08  0.93827000000E+00  0.93827000000E+00 0.  1.
     999902    2    1    2    0    0  0.10784070189E-01  0.34538183103E-02  0.97547546504E-02  0.10289840886E+01  0.10288755387E+01 0.  0.
     999903    2    3    3    0    0 -0.11860604438E+00 -0.40737576751E-01 -0.33239412521E-01  0.13738822744E+00  0.45207549917E-01 0.  0.
         14    1    1    2    0    0 -0.10784070189E-01 -0.34538183103E-02 -0.97547546504E-02  0.14945911449E-01  0.00000000000E+00 0.  1.
     999901    1    3    3    0    0  0.12939011457E+00  0.44191395062E-01  0.42994167172E-01  0.89159586111E+00  0.88000000000E+00 0. -1.
        -11    1    4    4    0    0 -0.82024284747E-01 -0.40277065953E-01 -0.56345553592E-02  0.91554544754E-01  0.51100000000E-03 0.  1.
         11    1    4    4    0    0 -0.36581759636E-01 -0.46051079849E-03 -0.27604857162E-01  0.45833682682E-01  0.51100000000E-03 0. -1.
</event>
<event>
 8    1  0.2025822E+004  0.1043930E+01  0.7957747E-01            NaN
         13   -1    0    0    0    0  0.00000000000E+00  0.00000000000E+00  0.74505805969E-08  0.10566000000E+00  0.10566000000E+00 0.  1.
     999900   -1    0    0    0    0 -0.00000000000E+00 -0.00000000000E+00 -0.74505805969E-08  0.93827000000E+00  0.93827000000E+00 0. -1.
     999902    2    1    2    0    0 -0.53541499672E-02  0.74135928294E-02  0.98921492626E-02  0.10304584412E+01  0.10303703781E+01 0.  0.
     999903    2    3    3    0    0 -0.16771674890E-01 -0.13036438164E+00 -0.90431067467E-02  0.13946367460E+00  0.45740328757E-01 0.  0.
         14    1    1    2    0    0  0.53541499672E-02 -0.74135928294E-02 -0.98921492626E-02  0.13471558839E-01  0.00000000000E+00 0. -1.
     999901    1    3    3    0    0  0.11417524923E-01  0.13777797447E+00  0.18935256009E-01  0.89099476656E+00  0.88000000000E+00 0. -1.
        -11    1    4    4    0    0  0.12992072596E-01 -0.34154268974E-01 -0.12694300863E-01  0.38687393746E-01  0.51100000000E-03 0. -1.
         11    1    4    4    0    0 -0.29763747487E-01 -0.96210112662E-01  0.36511941159E-02  0.10077628085E+00  0.51100000000E-03 0.  1.
</event>
<event>
 8    1  0.2025822E+004  0.1043930E+01  0.7957747E-01            NaN
         13   -1    0    0    0    0  0.00000000000E+00  0.00000000000E+00  0.74505805969E-08  0.10566000000E+00  0.10566000000E+00 0. -1.
     999900   -1    0    0    0    0 -0.00000000000E+00 -0.00000000000E+00 -0.74505805969E-08  0.93827000000E+00  0.93827000000E+00 0.  1.
     999902    2    1    2    0    0  0.16276394950E-02 -0.26899199879E-02  0.13286839662E-01  0.10302762464E+01  0.10301857691E+01 0.  0.
     999903    2    3    3    0    0  0.91287182432E-01 -0.16567384265E-01  0.97241582562E-01  0.14163694018E+00  0.44690821736E-01 0.  0.
         14    1    1    2    0    0 -0.16276394950E-02  0.26899199879E-02 -0.13286839662E-01  0.13653753625E-01  0.00000000000E+00 0.  1.
     999901    1    3    3    0    0 -0.89659542937E-01  0.13877464277E-01 -0.83954742900E-01  0.88863930619E+00  0.88000000000E+00 0.  1.
        -11    1    4    4    0    0  0.52291790852E-01  0.11740681950E-01  0.40399885111E-01  0.67116963885E-01  0.51100000000E-03 0. -1.
         11    1    4    4    0    0  0.38995391580E-01 -0.28308066215E-01  0.56841697451E-01  0.74519976298E-01  0.51100000000E-03 0.  1.
</event>
<event>
 8    1  0.2025822E+004  0.1043930E+01  0.7957747E-01            NaN
         13   -1    0    0    0    0  0.00000000000E+00  0.00000000000E+00  0.74505805969E-08  0.10566000000E+00  0.10566000000E+00 0.  1.
     999900   -1    0    0    0    0 -0.00000000000E+00 -0.00000000000E+00 -0.74505805969E-08  0.93827000000E+00  0.93827000000E+00 0.  1.
     999902    2    1    2    0    0 -0.11409901390E-01 -0.17167872114E-02 -0.58040565273E-02  0.10310141075E+01  0.10309332032E+01 0.  0.
     999903    2    3    3    0    0 -0.11836975355E-01 -0.83878513155E-03  0.13255563066E+00  0.14020304089E+00  0.44103060073E-01 0.  0.
         14    1    1    2    0    0  0.11409901390E-01  0.17167872114E-02  0.58040565273E-02  0.12915892545E-01  0.00000000000E+00 0. -1.
     999901    1    3    3    0    0  0.42707396505E-03 -0.87800207985E-03 -0.13835968719E+00  0.89081106657E+00  0.88000000000E+00 0.  1.
        -11    1    4    4    0    0  0.10772319777E-01  0.12686333376E-01  0.76102593795E-01  0.77902835835E-01  0.51100000000E-03 0.  1.
         11    1    4    4    0    0 -0.22609295132E-01 -0.13525118508E-01  0.56453036867E-01  0.62300205052E-01  0.51100000000E-03 0. -1.
</event>
<event>
 8    1  0.2025822E+004  0.1043930E+01  0.7957747E-01            NaN
         13   -1    0    0    0    0  0.00000000000E+00  0.00000000000E+00  0.74505805969E-08  0.10566000000E+00  0.10566000000E+00 0. -1.
     999900   -1    0    0    0    0 -0.00000000000E+00 -0.00000000000E+00 -0.74505805969E-08  0.93827000000E+00  0.93827000000E+00 0.  1.
     999902    2    1    2    0    0 -0.51396725041E-02 -0.95722590883E-02  0.66351560787E-02  0.10311993412E+01  0.10311207551E+01 0.  0.
     999903    2    3    3    0    0 -0.13468819578E+00  0.86769727766E-02  0.10582641206E-02  0.14151009428E+00  0.42518077595E-01 0.  0.
         14    1    1    2    0    0  0.51396725041E-02  0.95722590883E-02 -0.66351560787E-02  0.12730658808E-01  0.00000000000E+00 0.  1.
     999901    1    3    3    0    0  0.12954852327E+00 -0.18249231865E-01  0.55768919581E-02  0.88968924691E+00  0.88000000000E+00 0.  1.
        -11    1    4    4    0    0 -0.80474916337E-01  0.56369927811E-02  0.21499164690E-01  0.83489299018E-01  0.51100000000E-03 0.  1.
         11    1    4    4    0    0 -0.54213279439E-01  0.30399799955E-02 -0.20440900569E-01  0.58020795263E-01  0.51100000000E-03 0. -1.
</event>
<event>
 8    1  0.3019173E+004  0.1043930E+01  0.7957747E-01            NaN
         13   -1    0    0    0    0  0.00000000000E+00  0.00000000000E+00  0.74505805969E-08  0.10566000000E+00  0.10566000000E+00 0. -1.
     999900   -1    0    0    0    0 -0.00000000000E+00 -0.00000000000E+00 -0.74505805969E-08  0.93827000000E+00  0.93827000000E+00 0.  1.
     999902    2    1    2    0    0 -0.10807067171E-01  0.40367435848E-02  0.76203635241E-02  0.10301040122E+01  0.10300112222E+01 0.  0.
     999903    2    3    3    0    0 -0.67063416848E-01  0.11575951999E+00  0.39008958206E-02  0.14125048649E+00  0.45152127294E-01 0.  0.
         14    1    1    2    0    0  0.10807067171E-01 -0.40367435848E-02 -0.76203635241E-02  0.13825987843E-01  0.00000000000E+00 0.  1.
     999901    1    3    3    0    0  0.56256349677E-01 -0.11172277640E+00  0.37194677036E-02  0.88885352566E+00  0.88000000000E+00 0.  1.
        -11    1    4    4    0    0 -0.49226008058E-01  0.51985182203E-01  0.17366041287E-01  0.73671565403E-01  0.51100000000E-03 0. -1.
         11    1    4    4    0    0 -0.17837408790E-01  0.63774337784E-01 -0.13465145467E-01  0.67578921089E-01  0.51100000000E-03 0.  1.
</event>
<event>
 8    1  0.2025822E+004  0.1043930E+01  0.7957747E-01            NaN
         13   -1    0    0    0    0  0.00000000000E+00  0.00000000000E+00  0.74505805969E-08  0.10566000000E+00  0.10566000000E+00 0.  1.
     999900   -1    0    0    0    0 -0.00000000000E+00 -0.00000000000E+00 -0.74505805969E-08  0.93827000000E+00  0.93827000000E+00 0.  1.
     999902    2    1    2    0    0 -0.76311343045E-02 -0.11033720845E-01  0.19331695013E-02  0.10303758733E+01  0.10302867202E+01 0.  0.
     999903    2    3    3    0    0 -0.32477814136E-01  0.56274221967E-01  0.11549437627E+00  0.14018271204E+00  0.45723575276E-01 0.  0.
         14    1    1    2    0    0  0.76311343045E-02  0.11033720845E-01 -0.19331695013E-02  0.13554126706E-01  0.00000000000E+00 0. -1.
     999901    1    3    3    0    0  0.24846679831E-01 -0.67307942811E-01 -0.11356120677E+00  0.89019316126E+00  0.88000000000E+00 0.  1.
        -11    1    4    4    0    0 -0.20041220606E-01  0.59385148368E-01  0.75202837459E-01  0.97897774505E-01  0.51100000000E-03 0.  1.
         11    1    4    4    0    0 -0.12436593530E-01 -0.31109264008E-02  0.40291538808E-01  0.42284937534E-01  0.51100000000E-03 0. -1.
</event>
<event>
 8    1  0.2025822E+004  0.1043930E+01  0.7957747E-01            NaN
         13   -1    0    0    0    0  0.00000000000E+00  0.00000000000E+00  0.74505805969E-08  0.10566000000E+00  0.10566000000E+00 0.  1.
     999900   -1    0    0    0    0 -0.00000000000E+00 -0.00000000000E+00 -0.74505805969E-08  0.93827000000E+00  0.93827000000E+00 0.  1.
     999902    2    1    2    0    0 -0.63309738508E-02 -0.12238568347E-01 -0.59538618778E-03  0.10301380360E+01  0.10300457053E+01 0.  0.
     999903    2    3    3    0    0  0.11206680761E+00  0.69684556479E-02 -0.69178235912E-01  0.13935716978E+00  0.45025145226E-01 0.  0.
         14    1    1    2    0    0  0.63309738508E-02  0.12238568347E-01  0.59538618778E-03  0.13791963957E-01  0.00000000000E+00 0. -1.
     999901    1    3    3    0    0 -0.11839778146E+00 -0.19207023995E-01  0.68582849724E-01  0.89078086626E+00  0.88000000000E+00 0. -1.
        -11    1    4    4    0    0  0.80263569929E-01  0.16402557928E-01 -0.28221115346E-01  0.86648583581E-01  0.51100000000E-03 0.  1.
         11    1    4    4    0    0  0.31803237683E-01 -0.94341022804E-02 -0.40957120565E-01  0.52708586198E-01  0.51100000000E-03 0. -1.
</event>
<event>
 8    1  0.2025822E+004  0.1043930E+01  0.7957747E-01            NaN
         13   -1    0    0    0    0  0.00000000000E+00  0.00000000000E+00  0.74505805969E-08  0.10566000000E+00  0.10566000000E+00 0.  1.
     999900   -1    0    0    0    0 -0.00000000000E+00 -0.00000000000E+00 -0.74505805969E-08  0.93827000000E+00  0.93827000000E+00 0.  1.
     999902    2    1    2    0    0  0.12322024085E-02  0.10175593988E-01  0.10074329307E-01  0.10295580430E+01  0.10294577266E+01 0.  0.
     999903    2    3    3    0    0 -0.11193604187E+00 -0.25160711043E-01 -0.62384792935E-01  0.13865623568E+00  0.46593459351E-01 0.  0.
         14    1    1    2    0    0 -0.12322024085E-02 -0.10175593988E-01 -0.10074329307E-01  0.14371956956E-01  0.00000000000E+00 0. -1.
     999901    1    3    3    0    0  0.11316824428E+00  0.35336305031E-01  0.72459122241E-01  0.89090180736E+00  0.88000000000E+00 0. -1.
        -11    1    4    4    0    0 -0.91418040917E-01 -0.37185233962E-01 -0.41728357497E-01  0.10715183979E+00  0.51100000000E-03 0. -1.
         11    1    4    4    0    0 -0.20518000952E-01  0.12024522919E-01 -0.20656435437E-01  0.31504395891E-01  0.51100000000E-03 0.  1.
</event>
<event>
 8    1  0.2025822E+004  0.1043930E+01  0.7957747E-01            NaN
         13   -1    0    0    0    0  0.00000000000E+00  0.00000000000E+00  0.74505805969E-08  0.10566000000E+00  0.10566000000E+00 0. -1.
     999900   -1    0    0    0    0 -0.00000000000E+00 -0.00000000000E+00 -0.74505805969E-08  0.93827000000E+00  0.93827000000E+00 0.  1.
     999902    2    1    2    0    0 -0.16318931151E-01  0.11055735880E-02 -0.65253998657E-02  0.10263200412E+01  0.10261689511E+01 0.  0.
     999903    2    3    3    0    0  0.84578959266E-01 -0.56287685707E-01 -0.78861185087E-01  0.13575458241E+00  0.43454760598E-01 0.  0.
         14    1    1    2    0    0  0.16318931151E-01 -0.11055735880E-02  0.65253998657E-02  0.17609958838E-01  0.00000000000E+00 0. -1.
     999901    1    3    3    0    0 -0.10089789042E+00  0.57393259295E-01  0.72335785221E-01  0.89056545875E+00  0.88000000000E+00 0. -1.
        -11    1    4    4    0    0  0.32113185634E-01 -0.43782744427E-02 -0.78891054219E-02  0.33360531831E-01  0.51100000000E-03 0. -1.
         11    1    4    4    0    0  0.52465773631E-01 -0.51909411264E-01 -0.70972079665E-01  0.10239405058E+00  0.51100000000E-03 0.  1.
</event>
<event>
 8    1  0.2025822E+004  0.1043930E+01  0.7957747E-01            NaN
         13   -1    0    0    0    0  0.00000000000E+00  0.00000000000E+00  0.74505805969E-08  0.10566000000E+00  0.10566000000E+00 0.  1.
     999900   -1    0    0    0    0 -0.00000000000E+00 -0.00000000000E+00 -0.74505805969E-08  0.93827000000E+00  0.93827000000E+00 0.  1.
     999902    2    1    2    0    0  0.98495148717E-02  0.93967374975E-02  0.50668601638E-02  0.10294046879E+01  0.10293022038E+01 0.  0.
     999903    2    3    3    0    0  0.84152052514E-02 -0.10714627630E+00 -0.74291526607E-01  0.13817964067E+00  0.44980462058E-01 0.  0.
         14    1    1    2    0    0 -0.98495148717E-02 -0.93967374975E-02 -0.50668601638E-02  0.14525312070E-01  0.00000000000E+00 0. -1.
     999901    1    3    3    0    0  0.14343096203E-02  0.11654301380E+00  0.79358386771E-01  0.89122504726E+00  0.88000000000E+00 0. -1.
        -11    1    4    4    0    0 -0.11098728698E-01 -0.67234707168E-01 -0.27024831918E-01  0.73309551137E-01  0.51100000000E-03 0.  1.
         11    1    4    4    0    0  0.19513933949E-01 -0.39911569129E-01 -0.47266694689E-01  0.64870089536E-01  0.51100000000E-03 0. -1.
</event>
<event>
 8    1  0.2025822E+004  0.1043930E+01  0.7957747E-01            NaN
         13   -1    0    0    0    0  0.00000000000E+00  0.00000000000E+00  0.74505805969E-08  0.10566000000E+00  0.10566000000E+00 0. -1.
     999900   -1    0    0    0    0 -0.00000000000E+00 -0.00000000000E+00 -0.74505805969E-08  0.93827000000E+00  0.93827000000E+00 0. -1.
     999902    2    1    2    0    0 -0.92038435620E-02  0.99807975039E-03 -0.10403929232E-01  0.10300034555E+01  0.10299093016E+01 0.  0.
     999903    2    3    3    0    0  0.42306030318E-02  0.11062055336E+00  0.70191743413E-01  0.13944563390E+00  0.47575194633E-01 0.  0.
         14    1    1    2    0    0  0.92038435620E-02 -0.99807975039E-03  0.10403929232E-01  0.13926544545E-01  0.00000000000E+00 0. -1.
     999901    1    3    3    0    0 -0.13434446594E-01 -0.10962247361E+00 -0.80595672645E-01  0.89055782155E+00  0.88000000000E+00 0. -1.
        -11    1    4    4    0    0  0.20824917541E-01  0.94039794735E-01  0.62204322467E-01  0.11465949171E+00  0.51100000000E-03 0.  1.
         11    1    4    4    0    0 -0.16594314510E-01  0.16580758624E-01  0.79874209464E-02  0.24786142196E-01  0.51100000000E-03 0. -1.
</event>
<event>
 8    1  0.2025822E+004  0.1043930E+01  0.7957747E-01            NaN
         13   -1    0    0    0    0  0.00000000000E+00  0.00000000000E+00  0.74505805969E-08  0.10566000000E+00  0.10566000000E+00 0. -1.
     999900   -1    0    0    0    0 -0.00000000000E+00 -0.00000000000E+00 -0.74505805969E-08  0.93827000000E+00  0.93827000000E+00 0. -1.
     999902    2    1    2    0    0 -0.11079366746E-01 -0.84912515144E-03 -0.28128276920E-02  0.10324676538E+01  0.10324040250E+01 0.  0.
     999903    2    3    3    0    0 -0.19296724864E-02  0.40940041877E-01 -0.12826834720E+00  0.14254117438E+00  0.46748335101E-01 0.  0.
         14    1    1    2    0    0  0.11079366746E-01  0.84912515144E-03  0.28128276920E-02  0.11462346210E-01  0.00000000000E+00 0. -1.
     999901    1    3    3    0    0 -0.91496942597E-02 -0.41789167029E-01  0.12545551951E+00  0.88992647941E+00  0.88000000000E+00 0. -1.
        -11    1    4    4    0    0 -0.16088545975E-01  0.37606649341E-01 -0.11755343495E+00  0.12446755632E+00  0.51100000000E-03 0.  1.
         11    1    4    4    0    0  0.14158873488E-01  0.33333925367E-02 -0.10714912252E-01  0.18073618061E-01  0.51100000000E-03 0. -1.
</event>
<event>
 8    1  0.2025822E+004  0.1043930E+01  0.7957747E-01            NaN
         13   -1    0    0    0    0  0.00000000000E+00  0.00000000000E+00  0.74505805969E-08  0.10566000000E+00  0.10566000000E+00 0.  1.
     999900   -1    0    0    0    0 -0.00000000000E+00 -0.00000000000E+00 -0.74505805969E-08  0.93827000000E+00  0.93827000000E+00 0.  1.
     999902    2    1    2    0    0 -0.10193213383E-01 -0.12305639904E-02 -0.92387180163E-02  0.10301180560E+01  0.10300254557E+01 0.  0.
     999903    2    3    3    0    0 -0.12398988559E+00  0.23374020030E-02 -0.51412557040E-01  0.14178194523E+00  0.45606071891E-01 0.  0.
         14    1    1    2    0    0  0.10193213383E-01  0.12305639904E-02  0.92387180163E-02  0.13811944012E-01  0.00000000000E+00 0. -1.
     999901    1    3    3    0    0  0.11379667221E+00 -0.35679659934E-02  0.42173839023E-01  0.88833611076E+00  0.88000000000E+00 0. -1.
        -11    1    4    4    0    0 -0.59018835567E-01 -0.18293771070E-01 -0.11702925325E-01  0.62889622306E-01  0.51100000000E-03 0. -1.
         11    1    4    4    0    0 -0.64971050024E-01  0.20631173073E-01 -0.39709631714E-01  0.78892322919E-01  0.51100000000E-03 0.  1.
</event>
<event>
 8    1  0.2025822E+004  0.1043930E+01  0.7957747E-01            NaN
         13   -1    0    0    0    0  0.00000000000E+00  0.00000000000E+00  0.74505805969E-08  0.10566000000E+00  0.10566000000E+00 0.  1.
     999900   -1    0    0    0    0 -0.00000000000E+00 -0.00000000000E+00 -0.74505805969E-08  0.93827000000E+00  0.93827000000E+00 0. -1.
     999902    2    1    2    0    0  0.77984188018E-02 -0.10207824539E-01 -0.50927598720E-02  0.10301114899E+01  0.10300188010E+01 0.  0.
     999903    2    3    3    0    0 -0.33465516012E-01  0.89624369159E-01 -0.91078339777E-01  0.13934625757E+00  0.44380707673E-01 0.  0.
         14    1    1    2    0    0 -0.77984188018E-02  0.10207824539E-01  0.50927598720E-02  0.13818510077E-01  0.00000000000E+00 0.  1.
     999901    1    3    3    0    0  0.41263934813E-01 -0.99832193698E-01  0.85985579905E-01  0.89076523235E+00  0.88000000000E+00 0.  1.
        -11    1    4    4    0    0 -0.24807497312E-01  0.17384390636E-01 -0.14076910278E-01  0.33407326811E-01  0.51100000000E-03 0.  1.
         11    1    4    4    0    0 -0.86580186996E-02  0.72239978523E-01 -0.77001429499E-01  0.10593893076E+00  0.51100000000E-03 0. -1.
</event>
<event>
 8    1  0.2025822E+004  0.1043930E+01  0.7957747E-01            NaN
         13   -1    0    0    0    0  0.00000000000E+00  0.00000000000E+00  0.74505805969E-08  0.10566000000E+00  0.10566000000E+00 0. -1.
     999900   -1    0    0    0    0 -0.00000000000E+00 -0.00000000000E+00 -0.74505805969E-08  0.93827000000E+00  0.93827000000E+00 0. -1.
     999902    2    1    2    0    0 -0.11539349656E-01 -0.30492774162E-02  0.27183648258E-02  0.10316889138E+01  0.10316162905E+01 0.  0.
     999903    2    3    3    0    0  0.26989460739E-01  0.10305038330E+00  0.80400168257E-01  0.14108458540E+00  0.45747794405E-01 0.  0.
         14    1    1    2    0    0  0.11539349656E-01  0.30492774162E-02 -0.27183648258E-02  0.12241086168E-01  0.00000000000E+00 0.  1.
     999901    1    3    3    0    0 -0.38528810395E-01 -0.10609966072E+00 -0.77681803431E-01  0.89060432843E+00  0.88000000000E+00 0.  1.
        -11    1    4    4    0    0  0.25739857021E-01  0.98218669729E-01  0.55561794995E-01  0.11574463921E+00  0.51100000000E-03 0.  1.
         11    1    4    4    0    0  0.12496037181E-02  0.48317135714E-02  0.24838373262E-01  0.25339946187E-01  0.51100000000E-03 0. -1.
</event>
<event>
 8    1  0.2025822E+004  0.1043930E+01  0.7957747E-01            NaN
         13   -1    0    0    0    0  0.00000000000E+00  0.00000000000E+00  0.74505805969E-08  0.10566000000E+00  0.10566000000E+00 0. -1.
     999900   -1    0    0    0    0 -0.00000000000E+00 -0.00000000000E+00 -0.74505805969E-08  0.93827000000E+00  0.93827000000E+00 0.  1.
     999902    2    1    2    0    0 -0.60766684876E-02  0.41976201214E-03 -0.11845128236E-01  0.10306104969E+01  0.10305244234E+01 0.  0.
     999903    2    3    3    0    0  0.72335664373E-01  0.80916437447E-01  0.73913775734E-01  0.13932894861E+00  0.46576726895E-01 0.  0.
         14    1    1    2    0    0  0.60766684876E-02 -0.41976201214E-03  0.11845128236E-01  0.13319503106E-01  0.00000000000E+00 0. -1.
     999901    1    3    3    0    0 -0.78412332860E-01 -0.80496675435E-01 -0.85758903971E-01  0.89128154828E+00  0.88000000000E+00 0.  1.
        -11    1    4    4    0    0  0.37598662986E-01  0.73429149881E-01  0.49414259882E-01  0.96164077031E-01  0.51100000000E-03 0. -1.
         11    1    4    4    0    0  0.34737001387E-01  0.74872875658E-02  0.24499515852E-01  0.43164871579E-01  0.51100000000E-03 0.  1.
</event>
<event>
 8    1  0.2025822E+004  0.1043930E+01  0.7957747E-01            NaN
         13   -1    0    0    0    0  0.00000000000E+00  0.00000000000E+00  0.74505805969E-08  0.10566000000E+00  0.10566000000E+00 0.  1.
     999900   -1    0    0    0    0 -0.00000000000E+00 -0.00000000000E+00 -0.74505805969E-08  0.93827000000E+00  0.93827000000E+00 0.  1.
     999902    2    1    2    0    0  0.64974666409E-02  0.35017054393E-02  0.11308950330E-01  0.10304255055E+01  0.10303370085E+01 0.  0.
     999903    2    3    3    0    0  0.23201296288E-01  0.10694175777E+00 -0.74984594875E-01  0.14001804918E+00  0.44805411761E-01 0.  0.
         14    1    1    2    0    0 -0.64974666409E-02 -0.35017054393E-02 -0.11308950330E-01  0.13504494486E-01  0.00000000000E+00 0. -1.
     999901    1    3    3    0    0 -0.16703829648E-01 -0.10344005233E+00  0.86293545205E-01  0.89040745633E+00  0.88000000000E+00 0. -1.
        -11    1    4    4    0    0  0.27418289693E-01  0.71654037775E-01 -0.70497972197E-01  0.10419351680E+00  0.51100000000E-03 0. -1.
         11    1    4    4    0    0 -0.42169934049E-02  0.35287719996E-01 -0.44866226777E-02  0.35824532376E-01  0.51100000000E-03 0.  1.
</event>
<event>
 8    1  0.2025822E+004  0.1043930E+01  0.7957747E-01            NaN
         13   -1    0    0    0    0  0.00000000000E+00  0.00000000000E+00  0.74505805969E-08  0.10566000000E+00  0.10566000000E+00 0. -1.
     999900   -1    0    0    0    0 -0.00000000000E+00 -0.00000000000E+00 -0.74505805969E-08  0.93827000000E+00  0.93827000000E+00 0.  1.
     999902    2    1    2    0    0  0.47890601140E-02  0.51739481974E-04 -0.12823293423E-01  0.10302415148E+01  0.10301505735E+01 0.  0.
     999903    2    3    3    0    0 -0.47643454824E-01  0.83789206721E-01  0.89133327097E-01  0.13886264778E+00  0.45249917113E-01 0.  0.
         14    1    1    2    0    0 -0.47890601140E-02 -0.51739481974E-04  0.12823293423E-01  0.13688485233E-01  0.00000000000E+00 0. -1.
     999901    1    3    3    0    0  0.52432514938E-01 -0.83737467239E-01 -0.10195662052E+00  0.89137886699E+00  0.88000000000E+00 0.  1.
        -11    1    4    4    0    0 -0.15020904601E-01  0.62731802222E-01  0.71242874928E-01  0.96107829723E-01  0.51100000000E-03 0. -1.
         11    1    4    4    0    0 -0.32622550224E-01  0.21057404499E-01  0.17890452169E-01  0.42754818058E-01  0.51100000000E-03 0.  1.
</event>
<event>
 8    1  0.2025822E+004  0.1043930E+01  0.7957747E-01            NaN
         13   -1    0    0    0    0  0.00000000000E+00  0.00000000000E+00  0.74505805969E-08  0.10566000000E+00  0.10566000000E+00 0.  1.
     999900   -1    0    0    0    0 -0.00000000000E+00 -0.00000000000E+00 -0.74505805969E-08  0.93827000000E+00  0.93827000000E+00 0.  1.
     999902    2    1    2    0    0 -0.12450032331E-01  0.61373481011E-02 -0.29661724128E-02  0.10297360391E+01  0.10296382091E+01 0.  0.
     999903    2    3    3    0    0  0.65956508090E-01  0.11400467782E+00 -0.65017278882E-02  0.13968241907E+00  0.46060592802E-01 0.  0.
         14    1    1    2    0    0  0.12450032331E-01 -0.61373481011E-02  0.29661724128E-02  0.14193960883E-01  0.00000000000E+00 0.  1.
     999901    1    3    3    0    0 -0.78406540421E-01 -0.10786732972E+00  0.35355554754E-02  0.89005362004E+00  0.88000000000E+00 0. -1.
        -11    1    4    4    0    0  0.58460610505E-01  0.57853218207E-01  0.26729682587E-02  0.82292428071E-01  0.51100000000E-03 0.  1.
         11    1    4    4    0    0  0.74958975849E-02  0.56151459609E-01 -0.91746961469E-02  0.57389991002E-01  0.51100000000E-03 0. -1.
</event>
<event>
 8    1  0.2025822E+004  0.1043930E+01  0.7957747E-01            NaN
         13   -1    0    0    0    0  0.00000000000E+00  0.00000000000E+00  0.74505805969E-08  0.10566000000E+00  0.10566000000E+00 0.  1.
     999900   -1    0    0    0    0 -0.00000000000E+00 -0.00000000000E+00 -0.74505805969E-08  0.93827000000E+00  0.93827000000E+00 0. -1.
     999902    2    1    2    0    0 -0.82132020105E-03 -0.87345103691E-02  0.96066078529E-02  0.10309202670E+01  0.10308381754E+01 0.  0.
     999903    2    3    3    0    0 -0.91463481930E-01  0.82107409173E-01 -0.48394077129E-01  0.13972313096E+00  0.45534288798E-01 0.  0.
         14    1    1    2    0    0  0.82132020105E-03  0.87345103691E-02 -0.96066078529E-02  0.13009732999E-01  0.00000000000E+00 0. -1.
     999901    1    3    3    0    0  0.90642161729E-01 -0.90841919542E-01  0.58000684982E-01  0.89119713604E+00  0.88000000000E+00 0.  1.
        -11    1    4    4    0    0 -0.12773834989E-01 -0.27086100804E-02  0.25354180175E-02  0.13311532384E-01  0.51100000000E-03 0.  1.
         11    1    4    4    0    0 -0.78689646941E-01  0.84816019254E-01 -0.50929495147E-01  0.12641159858E+00  0.51100000000E-03 0. -1.
</event>
<event>
 8    1  0.2079338E+004  0.1043930E+01  0.7957747E-01            NaN
         13   -1    0    0    0    0  0.00000000000E+00  0.00000000000E+00  0.74505805969E-08  0.10566000000E+00  0.10566000000E+00 0.  1.
     999900   -1    0    0    0    0 -0.00000000000E+00 -0.00000000000E+00 -0.74505805969E-08  0.93827000000E+00  0.93827000000E+00 0.  1.
     999902    2    1    2    0    0  0.10772542614E-01  0.40150313901E-02 -0.95754598601E-02  0.10289681290E+01  0.10288593456E+01 0.  0.
     999903    2    3    3    0    0  0.96780232683E-01 -0.45688211916E-01  0.76127886319E-01  0.13924187973E+00  0.46249538905E-01 0.  0.
         14    1    1    2    0    0 -0.10772542614E-01 -0.40150313901E-02  0.95754598601E-02  0.14961870971E-01  0.00000000000E+00 0. -1.
     999901    1    3    3    0    0 -0.86007690070E-01  0.49703243306E-01 -0.85703346179E-01  0.88972624930E+00  0.88000000000E+00 0. -1.
        -11    1    4    4    0    0  0.42432035789E-01 -0.44689843285E-01  0.47472541230E-01  0.77791792922E-01  0.51100000000E-03 0. -1.
         11    1    4    4    0    0  0.54348196894E-01 -0.99836863053E-03  0.28655345088E-01  0.61450086808E-01  0.51100000000E-03 0.  1.
</event>
<event>
 8    1  0.2025822E+004  0.1043930E+01  0.7957747E-01            NaN
         13   -1    0    0    0    0  0.00000000000E+00  0.00000000000E+00  0.74505805969E-08  0.10566000000E+00  0.10566000000E+00 0. -1.
     999900   -1    0    0    0    0 -0.00000000000E+00 -0.00000000000E+00 -0.74505805969E-08  0.93827000000E+00  0.93827000000E+00 0.  1.
     999902    2    1    2    0    0 -0.25760251144E-02 -0.39595449640E-02  0.13245305325E-01  0.10298675672E+01  0.10297715543E+01 0.  0.
     999903    2    3    3    0    0  0.90152817857E-01  0.86756765523E-01 -0.39418914713E-01  0.13879988891E+00  0.45357374185E-01 0.  0.
         14    1    1    2    0    0  0.25760251144E-02  0.39595449640E-02 -0.13245305325E-01  0.14062432751E-01  0.00000000000E+00 0.  1.
     999901    1    3    3    0    0 -0.92728842972E-01 -0.90716310487E-01  0.52664220038E-01  0.89106767834E+00  0.88000000000E+00 0. -1.
        -11    1    4    4    0    0  0.76070571807E-01  0.84961214794E-01 -0.46218424735E-01  0.12305098057E+00  0.51100000000E-03 0. -1.
         11    1    4    4    0    0  0.14082246050E-01  0.17955507285E-02  0.67995100225E-02  0.15748908336E-01  0.51100000000E-03 0.  1.
</event>
<event>
 8    1  0.2025822E+004  0.1043930E+01  0.7957747E-01            NaN
         13   -1    0    0    0    0  0.00000000000E+00  0.00000000000E+00  0.74505805969E-08  0.10566000000E+00  0.10566000000E+00 0.  1.
     999900   -1    0    0    0    0 -0.00000000000E+00 -0.00000000000E+00 -0.74505805969E-08  0.93827000000E+00  0.93827000000E+00 0. -1.
     999902    2    1    2    0    0 -0.10075777362E-01  0.10279061233E-01 -0.63999967366E-03  0.10295220165E+01  0.10294211929E+01 0.  0.
     999903    2    3    3    0    0  0.77721486682E-01 -0.76064294694E-01 -0.72954594121E-01  0.13801041519E+00  0.43567137584E-01 0.  0.
         14    1    1    2    0    0  0.10075777362E-01 -0.10279061233E-01  0.63999967366E-03  0.14407983511E-01  0.00000000000E+00 0.  1.
     999901    1    3    3    0    0 -0.87797264044E-01  0.86343355927E-01  0.72314594447E-01  0.89151160130E+00  0.88000000000E+00 0.  1.
        -11    1    4    4    0    0  0.72299190107E-01 -0.45643672321E-01 -0.46498876902E-01  0.97328949379E-01  0.51100000000E-03 0.  1.
         11    1    4    4    0    0  0.54222965752E-02 -0.30420622373E-01 -0.26455717219E-01  0.40681465808E-01  0.51100000000E-03 0. -1.
</event>
<event>
 8    1  0.2025822E+004  0.1043930E+01  0.7957747E-01            NaN
         13   -1    0    0    0    0  0.00000000000E+00  0.00000000000E+00  0.74505805969E-08  0.10566000000E+00  0.10566000000E+00 0.  1.
     999900   -1    0    0    0    0 -0.00000000000E+00 -0.00000000000E+00 -0.74505805969E-08  0.93827000000E+00  0.93827000000E+00 0.  1.
     999902    2    1    2    0    0  0.66293085027E-02  0.12207251138E-01  0.35057044950E-02  0.10296032880E+01  0.10295036066E+01 0.  0.
     999903    2    3    3    0    0 -0.69629194908E-01  0.10295991838E+00  0.47150715243E-01  0.14058343848E+00  0.45733397540E-01 0.  0.
         14    1    1    2    0    0 -0.66293085027E-02 -0.12207251138E-01 -0.35057044950E-02  0.14326711959E-01  0.00000000000E+00 0.  1.
     999901    1    3    3    0    0  0.76258503411E-01 -0.90752667239E-01 -0.43645010748E-01  0.88901984956E+00  0.88000000000E+00 0.  1.
        -11    1    4    4    0    0 -0.40385775643E-01  0.45069665382E-01  0.45479084714E-01  0.75702667584E-01  0.51100000000E-03 0. -1.
         11    1    4    4    0    0 -0.29243419266E-01  0.57890252995E-01  0.16716305288E-02  0.64880770894E-01  0.51100000000E-03 0.  1.
</event>
<event>
 8    1  0.2025822E+004  0.1043930E+01  0.7957747E-01            NaN
         13   -1    0    0    0    0  0.00000000000E+00  0.00000000000E+00  0.74505805969E-08  0.10566000000E+00  0.10566000000E+00 0.  1.
     999900   -1    0    0    0    0 -0.00000000000E+00 -0.00000000000E+00 -0.74505805969E-08  0.93827000000E+00  0.93827000000E+00 0.  1.
     999902    2    1    2    0    0 -0.79916688168E-02  0.85036908045E-02 -0.79718999162E-02  0.10297973882E+01  0.10297004079E+01 0.  0.
     999903    2    3    3    0    0  0.73784064171E-01  0.78104824182E-01  0.77097526135E-01  0.13919736827E+00  0.43444529114E-01 0.  0.
         14    1    1    2    0    0  0.79916688168E-02 -0.85036908045E-02  0.79718999162E-02  0.14132611792E-01  0.00000000000E+00 0. -1.
     999901    1    3    3    0    0 -0.81775732988E-01 -0.69601133377E-01 -0.85069426052E-01  0.89060001994E+00  0.88000000000E+00 0.  1.
        -11    1    4    4    0    0  0.69936698008E-01  0.75685524642E-01  0.55353140033E-01  0.11697722685E+00  0.51100000000E-03 0.  1.
         11    1    4    4    0    0  0.38473661623E-02  0.24192995397E-02  0.21744386102E-01  0.22220141417E-01  0.51100000000E-03 0. -1.
</event>
<event>
 8    1  0.2366283E+004  0.1043930E+01  0.7957747E-01            NaN
         13   -1    0    0    0    0  0.00000000000E+00  0.00000000000E+00  0.74505805969E-08  0.10566000000E+00  0.10566000000E+00 0. -1.
     999900   -1    0    0    0    0 -0.00000000000E+00 -0.00000000000E+00 -0.74505805969E-08  0.93827000000E+00  0.93827000000E+00 0.  1.
     999902    2    1    2    0    0  0.13938999047E-01 -0.84259494436E-03 -0.78041852319E-03  0.10299437670E+01  0.10298487988E+01 0.  0.
     999903    2    3    3    0    0  0.40303976496E-01  0.63267712838E-01 -0.10835926072E+00  0.14068652025E+00  0.49231631983E-01 0.  0.
         14    1    1    2    0    0 -0.13938999047E-01  0.84259494436E-03  0.78041852319E-03  0.13986233007E-01  0.00000000000E+00 0.  1.
     999901    1    3    3    0    0 -0.26364977449E-01 -0.64110307782E-01  0.10757884219E+00  0.88925724674E+00  0.88000000000E+00 0. -1.
        -11    1    4    4    0    0  0.47636557340E-01  0.31917035714E-01 -0.73646748171E-01  0.93338327611E-01  0.51100000000E-03 0. -1.
         11    1    4    4    0    0 -0.73325808437E-02  0.31350677124E-01 -0.34712512544E-01  0.47348192638E-01  0.51100000000E-03 0.  1.
</event>
<event>
 8    1  0.2025822E+004  0.1043930E+01  0.7957747E-01            NaN
         13   -1    0    0    0    0  0.00000000000E+00  0.00000000000E+00  0.74505805969E-08  0.10566000000E+00  0.10566000000E+00 0.  1.
     999900   -1    0    0    0    0 -0.00000000000E+00 -0.00000000000E+00 -0.74505805969E-08  0.93827000000E+00  0.93827000000E+00 0. -1.
     999902    2    1    2    0    0 -0.48298174676E-02 -0.51912513372E-03 -0.12982683442E-01  0.10300683011E+01  0.10299750279E+01 0.  0.
     999903    2    3    3    0    0 -0.12800350303E-02  0.56974062782E-01 -0.12148205973E+00  0.14153570051E+00  0.45019788569E-01 0.  0.
         14    1    1    2    0    0  0.48298174676E-02  0.51912513372E-03  0.12982683442E-01  0.13861698923E-01  0.00000000000E+00 0.  1.
     999901    1    3    3    0    0 -0.35497824373E-02 -0.57493187915E-01  0.10849937629E+00  0.88853260057E+00  0.88000000000E+00 0.  1.
        -11    1    4    4    0    0  0.83156486999E-02  0.30629494844E-01 -0.10341561964E+00  0.10817748136E+00  0.51100000000E-03 0. -1.
         11    1    4    4    0    0 -0.95956837301E-02  0.26344567937E-01 -0.18066440093E-01  0.33358219147E-01  0.51100000000E-03 0.  1.
</event>
<event>
 8    1  0.2025822E+004  0.1043930E+01  0.7957747E-01            NaN
         13   -1    0    0    0    0  0.00000000000E+00  0.00000000000E+00  0.74505805969E-08  0.10566000000E+00  0.10566000000E+00 0.  1.
     999900   -1    0    0    0    0 -0.00000000000E+00 -0.00000000000E+00 -0.74505805969E-08  0.93827000000E+00  0.93827000000E+00 0. -1.
     999902    2    1    2    0    0  0.70684405326E-03  0.12730085180E-01 -0.57810219700E-03  0.10311672064E+01  0.10310882206E+01 0.  0.
     999903    2    3    3    0    0 -0.94048024765E-02 -0.12274520975E+00  0.47925747578E-01  0.13942261051E+00  0.44575219736E-01 0.  0.
         14    1    1    2    0    0 -0.70684405326E-03 -0.12730085180E-01  0.57810219700E-03  0.12762793557E-01  0.00000000000E+00 0.  1.
     999901    1    3    3    0    0  0.10111646530E-01  0.13547529493E+00 -0.48503849775E-01  0.89174459593E+00  0.88000000000E+00 0. -1.
        -11    1    4    4    0    0 -0.34838650887E-02 -0.39684335221E-01 -0.58902031694E-02  0.40273308683E-01  0.51100000000E-03 0. -1.
         11    1    4    4    0    0 -0.59209373878E-02 -0.83060874529E-01  0.53815950748E-01  0.99149301828E-01  0.51100000000E-03 0.  1.
</event>
<event>
 8    1  0.2025822E+004  0.1043930E+01  0.7957747E-01            NaN
         13   -1    0    0    0    0  0.00000000000E+00  0.00000000000E+00  0.74505805969E-08  0.10566000000E+00  0.10566000000E+00 0.  1.
     999900   -1    0    0    0    0 -0.00000000000E+00 -0.00000000000E+00 -0.74505805969E-08  0.93827000000E+00  0.93827000000E+00 0.  1.
     999902    2    1    2    0    0  0.25582954408E-02 -0.70354988466E-02 -0.11398508211E-01  0.10302929509E+01  0.10302026963E+01 0.  0.
     999903    2    3    3    0    0  0.40677101205E-02 -0.14745761571E-01 -0.13328053017E+00  0.14185783576E+00  0.46108156477E-01 0.  0.
         14    1    1    2    0    0 -0.25582954408E-02  0.70354988466E-02  0.11398508211E-01  0.13637049131E-01  0.00000000000E+00 0.  1.
     999901    1    3    3    0    0 -0.15094146797E-02  0.77102627241E-02  0.12188202196E+00  0.88843511511E+00  0.88000000000E+00 0. -1.
        -11    1    4    4    0    0 -0.20840130208E-01 -0.51932175369E-02 -0.68758183332E-01  0.72036306343E-01  0.51100000000E-03 0. -1.
         11    1    4    4    0    0  0.24907840329E-01 -0.95525440338E-02 -0.64522346838E-01  0.69821529415E-01  0.51100000000E-03 0.  1.
</event>
<event>
 8    1  0.2025822E+004  0.1043930E+01  0.7957747E-01            NaN
         13   -1    0    0    0    0  0.00000000000E+00  0.00000000000E+00  0.74505805969E-08  0.10566000000E+00  0.10566000000E+00 0.  1.
     999900   -1    0    0    0    0 -0.00000000000E+00 -0.00000000000E+00 -0.74505805969E-08  0.93827000000E+00  0.93827000000E+00 0.  1.
     999902    2    1    2    0    0 -0.12755148315E-01 -0.30846216605E-02 -0.42038279916E-02  0.10301502733E+01  0.10300581074E+01 0.  0.
     999903    2    3    3    0    0  0.11728267992E+00 -0.47914736873E-01  0.35337960838E-01  0.13858808863E+00  0.43667354106E-01 0.  0.
         14    1    1    2    0    0  0.12755148315E-01  0.30846216605E-02  0.42038279916E-02  0.13779726743E-01  0.00000000000E+00 0.  1.
     999901    1    3    3    0    0 -0.13003782823E+00  0.44830115212E-01 -0.39541788829E-01  0.89156218463E+00  0.88000000000E+00 0.  1.
        -11    1    4    4    0    0  0.90612515796E-01 -0.53378371144E-01  0.36535944640E-01  0.11133290123E+00  0.51100000000E-03 0.  1.
         11    1    4    4    0    0  0.26670164121E-01  0.54636342715E-02 -0.11979838027E-02  0.27255187394E-01  0.51100000000E-03 0. -1.
</event>
<event>
 8    1  0.2025822E+004  0.1043930E+01  0.7957747E-01            NaN
         13   -1    0    0    0    0  0.00000000000E+00  0.00000000000E+00  0.74505805969E-08  0.10566000000E+00  0.10566000000E+00 0.  1.
     999900   -1    0    0    0    0 -0.00000000000E+00 -0.00000000000E+00 -0.74505805969E-08  0.93827000000E+00  0.93827000000E+00 0.  1.
     999902    2    1    2    0    0  0.25955001604E-02 -0.26149398204E-02 -0.12497016664E-01  0.10309011874E+01  0.10308188533E+01 0.  0.
     999903    2    3    3    0    0  0.35786702874E-01  0.23700452002E-01  0.12368042418E+00  0.13942014379E+00  0.47945068993E-01 0.  0.
         14    1    1    2    0    0 -0.25955001604E-02  0.26149398204E-02  0.12497016664E-01  0.13028812565E-01  0.00000000000E+00 0.  1.
     999901    1    3    3    0    0 -0.33191202714E-01 -0.26315391822E-01 -0.13617744085E+00  0.89148104365E+00  0.88000000000E+00 0.  1.
        -11    1    4    4    0    0 -0.11835056731E-01  0.32791308964E-02  0.28763918286E-01  0.31280111628E-01  0.51100000000E-03 0.  1.
         11    1    4    4    0    0  0.47621759605E-01  0.20421321106E-01  0.94916505895E-01  0.10814003216E+00  0.51100000000E-03 0. -1.
</event>
<event>
 8    1  0.2025822E+004  0.1043930E+01  0.7957747E-01            NaN
         13   -1    0    0    0    0  0.00000000000E+00  0.00000000000E+00  0.74505805969E-08  0.10566000000E+00  0.10566000000E+00 0.  1.
     999900   -1    0    0    0    0 -0.00000000000E+00 -0.00000000000E+00 -0.74505805969E-08  0.93827000000E+00  0.93827000000E+00 0.  1.
     999902    2    1    2    0    0  0.15762451981E-03 -0.12468565264E-01 -0.60508929353E-02  0.10300698676E+01  0.10299766157E+01 0.  0.
     999903    2    3    3    0    0  0.10756397806E+00 -0.27519493141E-01 -0.74213809042E-01  0.14079553514E+00  0.44591046011E-01 0.  0.
         14    1    1    2    0    0 -0.15762451981E-03  0.12468565264E-01  0.60508929353E-02  0.13860132415E-01  0.00000000000E+00 0. -1.
     999901    1    3    3    0    0 -0.10740635354E+00  0.15050927877E-01  0.68162916107E-01  0.88927433244E+00  0.88000000000E+00 0. -1.
        -11    1    4    4    0    0  0.61224255243E-01 -0.32973968630E-01 -0.60459299570E-01  0.92148141939E-01  0.51100000000E-03 0. -1.
         11    1    4    4    0    0  0.46339722817E-01  0.54544754887E-02 -0.13754509472E-01  0.48647393203E-01  0.51100000000E-03 0.  1.
</event>
<event>
 8    1  0.2025822E+004  0.1043930E+01  0.7957747E-01            NaN
         13   -1    0    0    0    0  0.00000000000E+00  0.00000000000E+00  0.74505805969E-08  0.10566000000E+00  0.10566000000E+00 0. -1.
     999900   -1    0    0    0    0 -0.00000000000E+00 -0.00000000000E+00 -0.74505805969E-08  0.93827000000E+00  0.93827000000E+00 0. -1.
     999902    2    1    2    0    0  0.88454778299E-02 -0.10844463060E-01  0.45231715290E-02  0.10292227250E+01  0.10291176384E+01 0.  0.
     999903    2    3    3    0    0  0.39102897670E-02 -0.95496152276E-02 -0.13074296241E+00  0.13887281643E+00  0.45666742902E-01 0.  0.
         14    1    1    2    0    0 -0.88454778299E-02  0.10844463060E-01 -0.45231715290E-02  0.14707274995E-01  0.00000000000E+00 0.  1.
     999901    1    3    3    0    0  0.49351880629E-02 -0.12948478328E-02  0.13526613393E+00  0.89034990858E+00  0.88000000000E+00 0.  1.
        -11    1    4    4    0    0 -0.11699187735E-01 -0.16631201070E-01 -0.11043766836E+00  0.11229518047E+00  0.51100000000E-03 0.  1.
         11    1    4    4    0    0  0.15609477502E-01  0.70815858423E-02 -0.20305294042E-01  0.26577635957E-01  0.51100000000E-03 0. -1.
</event>
<event>
 8    1  0.2025822E+004  0.1043930E+01  0.7957747E-01            NaN
         13   -1    0    0    0    0  0.00000000000E+00  0.00000000000E+00  0.74505805969E-08  0.10566000000E+00  0.10566000000E+00 0.  1.
     999900   -1    0    0    0    0 -0.00000000000E+00 -0.00000000000E+00 -0.74505805969E-08  0.93827000000E+00  0.93827000000E+00 0.  1.
     999902    2    1    2    0    0  0.10824135797E-03  0.92504193617E-02 -0.10584824615E-01  0.10298722446E+01  0.10297762960E+01 0.  0.
     999903    2    3    3    0    0 -0.11910068444E-01  0.64487071694E-01  0.11415551429E+00  0.13927936361E+00  0.45462374968E-01 0.  0.
         14    1    1    2    0    0 -0.10824135797E-03 -0.92504193617E-02  0.10584824615E-01  0.14057755393E-01  0.00000000000E+00 0.  1.
     999901    1    3    3    0    0  0.12018309802E-01 -0.55236652332E-01 -0.12474033891E+00  0.89059288100E+00  0.88000000000E+00 0.  1.
        -11    1    4    4    0    0 -0.14468895550E-01  0.78825905543E-03  0.33253006622E-01  0.36276629683E-01  0.51100000000E-03 0.  1.
         11    1    4    4    0    0  0.25588271054E-02  0.63698812638E-01  0.80902507672E-01  0.10300273393E+00  0.51100000000E-03 0. -1.
</event>
<event>
 8    1  0.2025822E+004  0.1043930E+01  0.7957747E-01            NaN
         13   -1    0    0    0    0  0.00000000000E+00  0.00000000000E+00  0.74505805969E-08  0.10566000000E+00  0.10566000000E+00 0. -1.
     999900   -1    0    0    0    0 -0.00000000000E+00 -0.00000000000E+00 -0.74505805969E-08  0.93827000000E+00  0.93827000000E+00 0.  1.
     999902    2    1    2    0    0  0.58241076526E-02 -0.69940954512E-02 -0.10654947653E-01  0.10299169521E+01  0.10298216170E+01 0.  0.
     999903    2    3    3    0    0 -0.11231821751E+00 -0.10299930673E-02 -0.70389004123E-01  0.13999485609E+00  0.45027824298E-01 0.  0.
         14    1    1    2    0    0 -0.58241076526E-02  0.69940954512E-02  0.10654947653E-01  0.14013047870E-01  0.00000000000E+00 0. -1.
     999901    1    3    3    0    0  0.11814232516E+00 -0.59641023840E-02  0.59734056471E-01  0.88992209604E+00  0.88000000000E+00 0. -1.
        -11    1    4    4    0    0 -0.80396338032E-01 -0.17034638840E-01 -0.33788343656E-01  0.88857545416E-01  0.51100000000E-03 0.  1.
         11    1    4    4    0    0 -0.31921879477E-01  0.16004645772E-01 -0.36600660468E-01  0.51137310677E-01  0.51100000000E-03 0. -1.
</event>
<event>
 8    1  0.2025822E+004  0.1043930E+01  0.7957747E-01            NaN
         13   -1    0    0    0    0  0.00000000000E+00  0.00000000000E+00  0.74505805969E-08  0.10566000000E+00  0.10566000000E+00 0. -1.
     999900   -1    0    0    0    0 -0.00000000000E+00 -0.00000000000E+00 -0.74505805969E-08  0.93827000000E+00  0.93827000000E+00 0. -1.
     999902    2    1    2    0    0 -0.10508048844E-01  0.27591668015E-02  0.48012618404E-02  0.10320521127E+01  0.10319837591E+01 0.  0.
     999903    2    3    3    0    0  0.55383959630E-01 -0.85689807865E-01 -0.84853753405E-01  0.14064704221E+00  0.46597262358E-01 0.  0.
         14    1    1    2    0    0  0.10508048844E-01 -0.27591668015E-02 -0.48012618404E-02  0.11877887321E-01  0.00000000000E+00 0.  1.
     999901    1    3    3    0    0 -0.65892008473E-01  0.88448974667E-01  0.89655015245E-01  0.89140507047E+00  0.88000000000E+00 0.  1.
        -11    1    4    4    0    0  0.23375386669E-01 -0.49189046084E-01 -0.72267264354E-01  0.90491930993E-01  0.51100000000E-03 0.  1.
         11    1    4    4    0    0  0.32008572960E-01 -0.36500761781E-01 -0.12586489050E-01  0.50155111217E-01  0.51100000000E-03 0. -1.
</event>
<event>
 8    1  0.2025822E+004  0.1043930E+01  0.7957747E-01            NaN
         13   -1    0    0    0    0  0.00000000000E+00  0.00000000000E+00  0.74505805969E-08  0.10566000000E+00  0.10566000000E+00 0.  1.
     999900   -1    0    0    0    0 -0.00000000000E+00 -0.00000000000E+00 -0.74505805969E-08  0.93827000000E+00  0.93827000000E+00 0. -1.
     999902    2    1    2    0    0 -0.54242117951E-02 -0.66326322147E-02  0.11518861955E-01  0.10295738841E+01  0.10294737902E+01 0.  0.
     999903    2    3    3    0    0 -0.69135272597E-01 -0.11197409072E+00  0.26428484518E-01  0.14087921266E+00  0.42785568327E-01 0.  0.
         14    1    1    2    0    0  0.54242117951E-02  0.66326322147E-02 -0.11518861955E-01  0.14356115924E-01  0.00000000000E+00 0.  1.
     999901    1    3    3    0    0  0.63711060802E-01  0.10534145851E+00 -0.14909622563E-01  0.88869467141E+00  0.88000000000E+00 0. -1.
        -11    1    4    4    0    0  0.27867155591E-02 -0.26225770435E-01  0.69439936067E-02  0.27277041385E-01  0.51100000000E-03 0. -1.
         11    1    4    4    0    0 -0.71921988156E-01 -0.85748320287E-01  0.19484490911E-01  0.11360217128E+00  0.51100000000E-03 0.  1.
</event>
<event>
 8    1  0.2025822E+004  0.1043930E+01  0.7957747E-01            NaN
         13   -1    0    0    0    0  0.00000000000E+00  0.00000000000E+00  0.74505805969E-08  0.10566000000E+00  0.10566000000E+00 0.  1.
     999900   -1    0    0    0    0 -0.00000000000E+00 -0.00000000000E+00 -0.74505805969E-08  0.93827000000E+00  0.93827000000E+00 0. -1.
     999902    2    1    2    0    0  0.10664921644E-01  0.73689973924E-02  0.28107240756E-02  0.10306656551E+01  0.10305802976E+01 0.  0.
     999903    2    3    3    0    0  0.20267326214E-01 -0.12375054402E+00  0.43246541739E-01  0.13998075251E+00  0.44714494797E-01 0.  0.
         14    1    1    2    0    0 -0.10664921644E-01 -0.73689973924E-02 -0.28107240756E-02  0.13264344917E-01  0.00000000000E+00 0.  1.
     999901    1    3    3    0    0 -0.96024045698E-02  0.13111954141E+00 -0.40435817663E-01  0.89068490257E+00  0.88000000000E+00 0.  1.
        -11    1    4    4    0    0  0.20792552865E-02 -0.25197387434E-01 -0.91484976618E-02  0.26892150648E-01  0.51100000000E-03 0. -1.
         11    1    4    4    0    0  0.18188070928E-01 -0.98553156586E-01  0.52395039400E-01  0.11308860187E+00  0.51100000000E-03 0.  1.
</event>
<event>
 8    1  0.2025822E+004  0.1043930E+01  0.7957747E-01            NaN
         13   -1    0    0    0    0  0.00000000000E+00  0.00000000000E+00  0.74505805969E-08  0.10566000000E+00  0.10566000000E+00 0. -1.
     999900   -1    0    0    0    0 -0.00000000000E+00 -0.00000000000E+00 -0.74505805969E-08  0.93827000000E+00  0.93827000000E+00 0.  1.
     999902    2    1    2    0    0  0.10486006015E-01 -0.87228541922E-02 -0.27520665441E-02  0.10300153179E+01  0.10299213255E+01 0.  0.
     999903    2    3    3    0    0 -0.23725992205E-01  0.12063713900E+00  0.45358700896E-01  0.13860120842E+00  0.45129161466E-01 0.  0.
         14    1    1    2    0    0 -0.10486006015E-01  0.87228541922E-02  0.27520665441E-02  0.13914682090E-01  0.00000000000E+00 0.  1.
     999901    1    3    3    0    0  0.34211998220E-01 -0.12935999319E+00 -0.48110767440E-01  0.89141410949E+00  0.88000000000E+00 0.  1.
        -11    1    4    4    0    0 -0.85704923614E-02  0.94155548708E-02  0.19689565550E-01  0.23453062175E-01  0.51100000000E-03 0.  1.
         11    1    4    4    0    0 -0.15155499844E-01  0.11122158413E+00  0.25669135345E-01  0.11514814624E+00  0.51100000000E-03 0. -1.
</event>
<event>
 8    1  0.2025822E+004  0.1043930E+01  0.7957747E-01            NaN
         13   -1    0    0    0    0  0.00000000000E+00  0.00000000000E+00  0.74505805969E-08  0.10566000000E+00  0.10566000000E+00 0. -1.
     999900   -1    0    0    0    0 -0.00000000000E+00 -0.00000000000E+00 -0.74505805969E-08  0.93827000000E+00  0.93827000000E+00 0.  1.
     999902    2    1    2    0    0 -0.83996848551E-02  0.42424596282E-02 -0.10366509949E-01  0.10299293679E+01  0.10298342028E+01 0.  0.
     999903    2    3    3    0    0  0.10709372705E+00  0.76713150661E-01  0.70122938211E-02  0.13925953458E+00  0.44610221332E-01 0.  0.
         14    1    1    2    0    0  0.83996848551E-02 -0.42424596282E-02  0.10366509949E-01  0.14000632053E-01  0.00000000000E+00 0. -1.
     999901    1    3    3    0    0 -0.11549341191E+00 -0.72470691033E-01 -0.17378803770E-01  0.89066983337E+00  0.88000000000E+00 0.  1.
        -11    1    4    4    0    0  0.10905508561E+00  0.67706802214E-01  0.12376831561E-02  0.12837061870E+00  0.51100000000E-03 0.  1.
         11    1    4    4    0    0 -0.19613585568E-02  0.90063484478E-02  0.57746106650E-02  0.10888915882E-01  0.51100000000E-03 0. -1.
</event>
<event>
 8    1  0.2025822E+004  0.1043930E+01  0.7957747E-01            NaN
         13   -1    0    0    0    0  0.00000000000E+00  0.00000000000E+00  0.74505805969E-08  0.10566000000E+00  0.10566000000E+00 0.  1.
     999900   -1    0    0    0    0 -0.00000000000E+00 -0.00000000000E+00 -0.74505805969E-08  0.93827000000E+00  0.93827000000E+00 0. -1.
     999902    2    1    2    0    0 -0.95650623140E-02 -0.61463851435E-02 -0.55008351225E-02  0.10312995743E+01  0.10312222283E+01 0.  0.
     999903    2    3    3    0    0 -0.53677817316E-01  0.10940416796E+00  0.53784474602E-01  0.14067472988E+00  0.45233061788E-01 0.  0.
         14    1    1    2    0    0  0.95650623140E-02  0.61463851435E-02  0.55008351225E-02  0.12630425743E-01  0.00000000000E+00 0.  1.
     999901    1    3    3    0    0  0.44112755002E-01 -0.11555055311E+00 -0.59285309724E-01  0.89062484438E+00  0.88000000000E+00 0.  1.
        -11    1    4    4    0    0 -0.11277024121E-01  0.72678508726E-01  0.35532185735E-01  0.81683133190E-01  0.51100000000E-03 0.  1.
         11    1    4    4    0    0 -0.42400793195E-01  0.36725659236E-01  0.18252288867E-01  0.58991596688E-01  0.51100000000E-03 0. -1.
</event>
<event>
 8    1  0.2025822E+004  0.1043930E+01  0.7957747E-01            NaN
         13   -1    0    0    0    0  0.00000000000E+00  0.00000000000E+00  0.74505805969E-08  0.10566000000E+00  0.10566000000E+00 0. -1.
     999900   -1    0    0    0    0 -0.00000000000E+00 -0.00000000000E+00 -0.74505805969E-08  0.93827000000E+00  0.93827000000E+00 0. -1.
     999902    2    1    2    0    0 -0.41013360174E-02  0.11505945436E-01 -0.53735728953E-02  0.10305852249E+01  0.10304988223E+01 0.  0.
     999903    2    3    3    0    0  0.12803896436E+00  0.20158471657E-01  0.28143508563E-01  0.14004644417E+00  0.44951185474E-01 0.  0.
         14    1    1    2    0    0  0.41013360174E-02 -0.11505945436E-01  0.53735728953E-02  0.13344775126E-01  0.00000000000E+00 0. -1.
     999901    1    3    3    0    0 -0.13214030038E+00 -0.86525262205E-02 -0.33517081458E-01  0.89053878071E+00  0.88000000000E+00 0.  1.
        -11    1    4    4    0    0  0.11650210057E+00  0.10994667543E-01  0.37143229069E-01  0.12277419411E+00  0.51100000000E-03 0. -1.
         11    1    4    4    0    0  0.11536863786E-01  0.91638041131E-02 -0.89997205063E-02  0.17272250057E-01  0.51100000000E-03 0.  1.
</event>
<event>
 8    1  0.2025822E+004  0.1043930E+01  0.7957747E-01            NaN
         13   -1    0    0    0    0  0.00000000000E+00  0.00000000000E+00  0.74505805969E-08  0.10566000000E+00  0.10566000000E+00 0. -1.
     999900   -1    0    0    0    0 -0.00000000000E+00 -0.00000000000E+00 -0.74505805969E-08  0.93827000000E+00  0.93827000000E+00 0.  1.
     999902    2    1    2    0    0  0.11931405838E-01 -0.63716754526E-02  0.17036458211E-02  0.10302969848E+01  0.10302067840E+01 0.  0.
     999903    2    3    3    0    0  0.14168043890E-01  0.10793121160E+00 -0.75181398112E-01  0.13957735301E+00  0.44493987760E-01 0.  0.
         14    1    1    2    0    0 -0.11931405838E-01  0.63716754526E-02 -0.17036458211E-02  0.13633015163E-01  0.00000000000E+00 0.  1.
     999901    1    3    3    0    0 -0.22366380518E-02 -0.11430288705E+00  0.76885043933E-01  0.89071963183E+00  0.88000000000E+00 0. -1.
        -11    1    4    4    0    0 -0.12194006622E-01  0.19720540138E-01 -0.27242360108E-01  0.35777098905E-01  0.51100000000E-03 0. -1.
         11    1    4    4    0    0  0.26362050512E-01  0.88210671461E-01 -0.47939038005E-01  0.10380025411E+00  0.51100000000E-03 0.  1.
</event>
<event>
 8    1  0.2025822E+004  0.1043930E+01  0.7957747E-01            NaN
         13   -1    0    0    0    0  0.00000000000E+00  0.00000000000E+00  0.74505805969E-08  0.10566000000E+00  0.10566000000E+00 0.  1.
     999900   -1    0    0    0    0 -0.00000000000E+00 -0.00000000000E+00 -0.74505805969E-08  0.93827000000E+00  0.93827000000E+00 0. -1.
     999902    2    1    2    0    0  0.12566688099E-01  0.53327506641E-02 -0.28803840276E-04  0.10302786005E+01  0.10301881546E+01 0.  0.
     999903    2    3    3    0    0  0.85896571392E-01  0.88942744289E-01 -0.52396949909E-01  0.14173466484E+00  0.45323747861E-01 0.  0.
         14    1    1    2    0    0 -0.12566688099E-01 -0.53327506641E-02  0.28803840276E-04  0.13651399528E-01  0.00000000000E+00 0.  1.
     999901    1    3    3    0    0 -0.73329883293E-01 -0.83609993625E-01  0.52368146069E-01  0.88854393563E+00  0.88000000000E+00 0.  1.
        -11    1    4    4    0    0  0.56436117377E-01  0.58317441673E-01 -0.56727769234E-01  0.99016464647E-01  0.51100000000E-03 0. -1.
         11    1    4    4    0    0  0.29460454015E-01  0.30625302616E-01  0.43308193248E-02  0.42718200197E-01  0.51100000000E-03 0.  1.
</event>
<event>
 8    1  0.2025822E+004  0.1043930E+01  0.7957747E-01            NaN
         13   -1    0    0    0    0  0.00000000000E+00  0.00000000000E+00  0.74505805969E-08  0.10566000000E+00  0.10566000000E+00 0.  1.
     999900   -1    0    0    0    0 -0.00000000000E+00 -0.00000000000E+00 -0.74505805969E-08  0.93827000000E+00  0.93827000000E+00 0.  1.
     999902    2    1    2    0    0 -0.10792898857E-01 -0.86255585241E-02  0.26567443073E-02  0.10298606995E+01  0.10297645921E+01 0.  0.
     999903    2    3    3    0    0 -0.32681795293E-02 -0.61024696020E-01 -0.11787607272E+00  0.14006833555E+00  0.44605779670E-01 0.  0.
         14    1    1    2    0    0  0.10792898857E-01  0.86255585241E-02 -0.26567443073E-02  0.14069300477E-01  0.00000000000E+00 0.  1.
     999901    1    3    3    0    0 -0.75247193277E-02  0.52399137496E-01  0.12053281703E+00  0.88979236398E+00  0.88000000000E+00 0. -1.
        -11    1    4    4    0    0 -0.11636997394E-01 -0.65237320920E-01 -0.10388881376E+00  0.12322529974E+00  0.51100000000E-03 0. -1.
         11    1    4    4    0    0  0.83688178642E-02  0.42126249009E-02 -0.13987258963E-01  0.16843035810E-01  0.51100000000E-03 0.  1.
</event>
<event>
 8    1  0.2025822E+004  0.1043930E+01  0.7957747E-01            NaN
         13   -1    0    0    0    0  0.00000000000E+00  0.00000000000E+00  0.74505805969E-08  0.10566000000E+00  0.10566000000E+00 0.  1.
     999900   -1    0    0    0    0 -0.00000000000E+00 -0.00000000000E+00 -0.74505805969E-08  0.93827000000E+00  0.93827000000E+00 0. -1.
     999902    2    1    2    0    0  0.29029865159E-02  0.16728447397E-01 -0.16438884069E-02  0.10268721381E+01  0.10267304502E+01 0.  0.
     999903    2    3    3    0    0  0.12079393268E+00 -0.25301822137E-02 -0.47957168083E-01  0.13759485297E+00  0.45109617585E-01 0.  0.
         14    1    1    2    0    0 -0.29029865159E-02 -0.16728447397E-01  0.16438884069E-02  0.17057861886E-01  0.00000000000E+00 0.  1.
     999901    1    3    3    0    0 -0.11789094616E+00  0.19258629611E-01  0.46313279676E-01  0.88927728515E+00  0.88000000000E+00 0. -1.
        -11    1    4    4    0    0  0.33732264216E-01  0.18253573604E-01 -0.22778313434E-01  0.44611335806E-01  0.51100000000E-03 0.  1.
         11    1    4    4    0    0  0.87061668462E-01 -0.20783755818E-01 -0.25178854649E-01  0.92983517162E-01  0.51100000000E-03 0. -1.
</event>
<event>
 8    1  0.2025822E+004  0.1043930E+01  0.7957747E-01            NaN
         13   -1    0    0    0    0  0.00000000000E+00  0.00000000000E+00  0.74505805969E-08  0.10566000000E+00  0.10566000000E+00 0.  1.
     999900   -1    0    0    0    0 -0.00000000000E+00 -0.00000000000E+00 -0.74505805969E-08  0.93827000000E+00  0.93827000000E+00 0.  1.
     999902    2    1    2    0    0 -0.57596798999E-02  0.51282733708E-02  0.11568534559E-01  0.10300266158E+01  0.10299327770E+01 0.  0.
     999903    2    3    3    0    0  0.27332316108E-01 -0.72955237542E-01  0.10808547756E+00  0.14069673597E+00  0.45205960492E-01 0.  0.
         14    1    1    2    0    0  0.57596798999E-02 -0.51282733708E-02 -0.11568534559E-01  0.13903384198E-01  0.00000000000E+00 0. -1.
     999901    1    3    3    0    0 -0.33091996007E-01  0.78083510913E-01 -0.96516943003E-01  0.88932987983E+00  0.88000000000E+00 0.  1.
        -11    1    4    4    0    0  0.44225564761E-02  0.44004891712E-02  0.58188706965E-03  0.62867339925E-02  0.51100000000E-03 0.  1.
         11    1    4    4    0    0  0.22909759631E-01 -0.77355726713E-01  0.10750359049E+00  0.13441000198E+00  0.51100000000E-03 0. -1.
</event>
<event>
 8    1  0.2025822E+004  0.1043930E+01  0.7957747E-01            NaN
         13   -1    0    0    0    0  0.00000000000E+00  0.00000000000E+00  0.74505805969E-08  0.10566000000E+00  0.10566000000E+00 0.  1.
     999900   -1    0    0    0    0 -0.00000000000E+00 -0.00000000000E+00 -0.74505805969E-08  0.93827000000E+00  0.93827000000E+00 0.  1.
     999902    2    1    2    0    0 -0.38477180607E-02 -0.13259518381E-01 -0.23604581287E-03  0.10301214708E+01  0.10300289166E+01 0.  0.
     999903    2    3    3    0    0 -0.71972464827E-01  0.15198955511E-01  0.11025659023E+00  0.14014423034E+00  0.45528514881E-01 0.  0.
         14    1    1    2    0    0  0.38477180607E-02  0.13259518381E-01  0.23604581287E-03  0.13808529234E-01  0.00000000000E+00 0.  1.
     999901    1    3    3    0    0  0.68124746767E-01 -0.28458473892E-01 -0.11049263604E+00  0.88997724043E+00  0.88000000000E+00 0.  1.
        -11    1    4    4    0    0 -0.35129168322E-01  0.77641010835E-02  0.91114438444E-01  0.97961429893E-01  0.51100000000E-03 0.  1.
         11    1    4    4    0    0 -0.36843296505E-01  0.74348544279E-02  0.19142151782E-01  0.42182800447E-01  0.51100000000E-03 0. -1.
</event>
<event>
 8    1  0.2025822E+004  0.1043930E+01  0.7957747E-01            NaN
         13   -1    0    0    0    0  0.00000000000E+00  0.00000000000E+00  0.74505805969E-08  0.10566000000E+00  0.10566000000E+00 0. -1.
     999900   -1    0    0    0    0 -0.00000000000E+00 -0.00000000000E+00 -0.74505805969E-08  0.93827000000E+00  0.93827000000E+00 0. -1.
     999902    2    1    2    0    0  0.54218110381E-02 -0.94010635652E-02 -0.90207421539E-02  0.10298179548E+01  0.10297212585E+01 0.  0.
     999903    2    3    3    0    0  0.12748917305E-01  0.61860287694E-01 -0.11843527577E+00  0.14015318262E+00  0.40333236484E-01 0.  0.
         14    1    1    2    0    0 -0.54218110381E-02  0.94010635652E-02  0.90207421539E-02  0.14112045213E-01  0.00000000000E+00 0. -1.
     999901    1    3    3    0    0 -0.73271062668E-02 -0.71261351260E-01  0.10941453362E+00  0.88966477217E+00  0.88000000000E+00 0.  1.
        -11    1    4    4    0    0  0.16484879367E-01  0.53120549386E-01 -0.63571197300E-01  0.84469534520E-01  0.51100000000E-03 0. -1.
         11    1    4    4    0    0 -0.37359620620E-02  0.87397383083E-02 -0.54864078471E-01  0.55683648099E-01  0.51100000000E-03 0.  1.
</event>
<event>
 8    1  0.2025822E+004  0.1043930E+01  0.7957747E-01            NaN
         13   -1    0    0    0    0  0.00000000000E+00  0.00000000000E+00  0.74505805969E-08  0.10566000000E+00  0.10566000000E+00 0.  1.
     999900   -1    0    0    0    0 -0.00000000000E+00 -0.00000000000E+00 -0.74505805969E-08  0.93827000000E+00  0.93827000000E+00 0.  1.
     999902    2    1    2    0    0  0.11908256148E-01  0.68118115232E-02 -0.68466095560E-02  0.10285975702E+01  0.10284832901E+01 0.  0.
     999903    2    3    3    0    0 -0.15373834868E-01 -0.12315676149E+00  0.38851981309E-01  0.13746093441E+00  0.44520661916E-01 0.  0.
         14    1    1    2    0    0 -0.11908256148E-01 -0.68118115232E-02  0.68466095560E-02  0.15332429786E-01  0.00000000000E+00 0.  1.
     999901    1    3    3    0    0  0.27282091016E-01  0.12996857302E+00 -0.45698590865E-01  0.89113663580E+00  0.88000000000E+00 0.  1.
        -11    1    4    4    0    0  0.15085896418E-01 -0.34513092399E-01  0.16353481730E-01  0.41066230694E-01  0.51100000000E-03 0.  1.
         11    1    4    4    0    0 -0.30459731285E-01 -0.88643669095E-01  0.22498499578E-01  0.96394703718E-01  0.51100000000E-03 0. -1.
</event>
<event>
 8    1  0.2025822E+004  0.1043930E+01  0.7957747E-01            NaN
         13   -1    0    0    0    0  0.00000000000E+00  0.00000000000E+00  0.74505805969E-08  0.10566000000E+00  0.10566000000E+00 0.  1.
     999900   -1    0    0    0    0 -0.00000000000E+00 -0.00000000000E+00 -0.74505805969E-08  0.93827000000E+00  0.93827000000E+00 0. -1.
     999902    2    1    2    0    0 -0.10386321979E-01 -0.23169759666E-02  0.79243339132E-02  0.10306620262E+01  0.10305766216E+01 0.  0.
     999903    2    3    3    0    0  0.58874569790E-01 -0.11638843631E+00  0.26861324771E-01  0.14039915553E+00  0.44473689207E-01 0.  0.
         14    1    1    2    0    0  0.10386321979E-01  0.23169759666E-02 -0.79243339132E-02  0.13267973841E-01  0.00000000000E+00 0. -1.
     999901    1    3    3    0    0 -0.69260891769E-01  0.11407146034E+00 -0.18936990857E-01  0.89026287063E+00  0.88000000000E+00 0.  1.
        -11    1    4    4    0    0  0.11372224494E-01 -0.11963344402E-02 -0.38329386116E-02  0.12071091311E-01  0.51100000000E-03 0.  1.
         11    1    4    4    0    0  0.47502345296E-01 -0.11519210187E+00  0.30694263382E-01  0.12832806422E+00  0.51100000000E-03 0. -1.
</event>
<event>
 8    1  0.2025822E+004  0.1043930E+01  0.7957747E-01            NaN
         13   -1    0    0    0    0  0.00000000000E+00  0.00000000000E+00  0.74505805969E-08  0.10566000000E+00  0.10566000000E+00 0.  1.
     999900   -1    0    0    0    0 -0.00000000000E+00 -0.00000000000E+00 -0.74505805969E-08  0.93827000000E+00  0.93827000000E+00 0.  1.
     999902    2    1    2    0    0  0.20552044164E-02  0.12172554526E-01 -0.60068307462E-02  0.10302013087E+01  0.10301098289E+01 0.  0.
     999903    2    3    3    0    0  0.10296321752E+00 -0.42687986149E-01 -0.72373578803E-01  0.14025937168E+00  0.44844934083E-01 0.  0.
         14    1    1    2    0    0 -0.20552044164E-02 -0.12172554526E-01  0.60068307462E-02  0.13728691288E-01  0.00000000000E+00 0.  1.
     999901    1    3    3    0    0 -0.10090801310E+00  0.54860540674E-01  0.66366748057E-01  0.88994193703E+00  0.88000000000E+00 0.  1.
        -11    1    4    4    0    0  0.84690767608E-01 -0.17938864336E-01 -0.39258855622E-01  0.95057076735E-01  0.51100000000E-03 0.  1.
         11    1    4    4    0    0  0.18272449913E-01 -0.24749121813E-01 -0.33114723182E-01  0.45202294950E-01  0.51100000000E-03 0. -1.
</event>
<event>
 8    1  0.2025822E+004  0.1043930E+01  0.7957747E-01            NaN
         13   -1    0    0    0    0  0.00000000000E+00  0.00000000000E+00  0.74505805969E-08  0.10566000000E+00  0.10566000000E+00 0.  1.
     999900   -1    0    0    0    0 -0.00000000000E+00 -0.00000000000E+00 -0.74505805969E-08  0.93827000000E+00  0.93827000000E+00 0. -1.
     999902    2    1    2    0    0 -0.34942303862E-02 -0.43621690018E-02  0.12681682129E-01  0.10300713123E+01  0.10299780799E+01 0.  0.
     999903    2    3    3    0    0 -0.95305335274E-01  0.36908152759E-01 -0.83094396862E-01  0.13916976004E+00  0.44924655220E-01 0.  0.
         14    1    1    2    0    0  0.34942303862E-02  0.43621690018E-02 -0.12681682129E-01  0.13858687745E-01  0.00000000000E+00 0. -1.
     999901    1    3    3    0    0  0.91811104888E-01 -0.41270321761E-01  0.95776078992E-01  0.89090155222E+00  0.88000000000E+00 0. -1.
        -11    1    4    4    0    0 -0.32834320176E-01 -0.75231048513E-02 -0.16006611385E-01  0.37298289734E-01  0.51100000000E-03 0. -1.
         11    1    4    4    0    0 -0.62471015098E-01  0.44431257610E-01 -0.67087785477E-01  0.10187147030E+00  0.51100000000E-03 0.  1.
</event>
<event>
 8    1  0.2025822E+004  0.1043930E+01  0.7957747E-01            NaN
         13   -1    0    0    0    0  0.00000000000E+00  0.00000000000E+00  0.74505805969E-08  0.10566000000E+00  0.10566000000E+00 0.  1.
     999900   -1    0    0    0    0 -0.00000000000E+00 -0.00000000000E+00 -0.74505805969E-08  0.93827000000E+00  0.93827000000E+00 0. -1.
     999902    2    1    2    0    0  0.42073990712E-02  0.84716276076E-02  0.73646503629E-02  0.10319421413E+01  0.10318725087E+01 0.  0.
     999903    2    3    3    0    0 -0.89167819468E-01  0.47909175038E-01  0.89341427687E-01  0.14233860960E+00  0.45079929030E-01 0.  0.
         14    1    1    2    0    0 -0.42073990712E-02 -0.84716276076E-02 -0.73646503629E-02  0.11987858701E-01  0.00000000000E+00 0. -1.
     999901    1    3    3    0    0  0.93375218539E-01 -0.39437547431E-01 -0.81976777324E-01  0.88960353170E+00  0.88000000000E+00 0. -1.
        -11    1    4    4    0    0 -0.63383156472E-01  0.47318965215E-01  0.44905385906E-01  0.90957483462E-01  0.51100000000E-03 0.  1.
         11    1    4    4    0    0 -0.25784662995E-01  0.59020982326E-03  0.44436041781E-01  0.51381126142E-01  0.51100000000E-03 0. -1.
</event>
<event>
 8    1  0.2025822E+004  0.1043930E+01  0.7957747E-01            NaN
         13   -1    0    0    0    0  0.00000000000E+00  0.00000000000E+00  0.74505805969E-08  0.10566000000E+00  0.10566000000E+00 0. -1.
     999900   -1    0    0    0    0 -0.00000000000E+00 -0.00000000000E+00 -0.74505805969E-08  0.93827000000E+00  0.93827000000E+00 0.  1.
     999902    2    1    2    0    0  0.72882114172E-02 -0.12241038133E-01 -0.21508731931E-02  0.10295221099E+01  0.10294212877E+01 0.  0.
     999903    2    3    3    0    0  0.49602837948E-02 -0.12850382316E+00 -0.37025471557E-01  0.14118732394E+00  0.45001532357E-01 0.  0.
         14    1    1    2    0    0 -0.72882114172E-02  0.12241038133E-01  0.21508731931E-02  0.14407890051E-01  0.00000000000E+00 0. -1.
     999901    1    3    3    0    0  0.23279276223E-02  0.11626278503E+00  0.34874598363E-01  0.88833478601E+00  0.88000000000E+00 0.  1.
        -11    1    4    4    0    0  0.25083328162E-01 -0.67918838092E-01 -0.19741014021E-01  0.75047389529E-01  0.51100000000E-03 0. -1.
         11    1    4    4    0    0 -0.20123044367E-01 -0.60584985067E-01 -0.17284457536E-01  0.66139934408E-01  0.51100000000E-03 0.  1.
</event>
<event>
 8    1  0.2025822E+004  0.1043930E+01  0.7957747E-01            NaN
         13   -1    0    0    0    0  0.00000000000E+00  0.00000000000E+00  0.74505805969E-08  0.10566000000E+00  0.10566000000E+00 0.  1.
     999900   -1    0    0    0    0 -0.00000000000E+00 -0.00000000000E+00 -0.74505805969E-08  0.93827000000E+00  0.93827000000E+00 0. -1.
     999902    2    1    2    0    0  0.86858243513E-02  0.10828651598E-01 -0.29824751725E-02  0.10297314649E+01  0.10296335715E+01 0.  0.
     999903    2    3    3    0    0  0.78025182299E-01  0.10836922115E+00 -0.13336198366E-01  0.14157083258E+00  0.45084690121E-01 0.  0.
         14    1    1    2    0    0 -0.86858243513E-02 -0.10828651598E-01  0.29824751725E-02  0.14198535074E-01  0.00000000000E+00 0.  1.
     999901    1    3    3    0    0 -0.69339357947E-01 -0.97540569557E-01  0.10353723194E-01  0.88816063235E+00  0.88000000000E+00 0. -1.
        -11    1    4    4    0    0  0.39044875898E-01  0.86261731054E-01  0.42705509715E-03  0.94689133882E-01  0.51100000000E-03 0.  1.
         11    1    4    4    0    0  0.38980306400E-01  0.22107490101E-01 -0.13763253463E-01  0.46881698695E-01  0.51100000000E-03 0. -1.
</event>
<event>
 8    1  0.2025822E+004  0.1043930E+01  0.7957747E-01            NaN
         13   -1    0    0    0    0  0.00000000000E+00  0.00000000000E+00  0.74505805969E-08  0.10566000000E+00  0.10566000000E+00 0.  1.
     999900   -1    0    0    0    0 -0.00000000000E+00 -0.00000000000E+00 -0.74505805969E-08  0.93827000000E+00  0.93827000000E+00 0. -1.
     999902    2    1    2    0    0  0.29215908642E-02 -0.64864825393E-02 -0.12080528769E-01  0.10299103950E+01  0.10298149700E+01 0.  0.
     999903    2    3    3    0    0 -0.52676296662E-01 -0.89654972928E-01 -0.87849848818E-01  0.14100707475E+00  0.36777612654E-01 0.  0.
         14    1    1    2    0    0 -0.29215908642E-02  0.64864825393E-02  0.12080528769E-01  0.14019604996E-01  0.00000000000E+00 0.  1.
     999901    1    3    3    0    0  0.55597887526E-01  0.83168490389E-01  0.75769320050E-01  0.88890332025E+00  0.88000000000E+00 0.  1.
        -11    1    4    4    0    0 -0.41790527313E-01 -0.56656294087E-01 -0.37327646650E-01  0.79686875697E-01  0.51100000000E-03 0.  1.
         11    1    4    4    0    0 -0.10885769349E-01 -0.32998678841E-01 -0.50522202168E-01  0.61320199057E-01  0.51100000000E-03 0. -1.
</event>
<event>
 8    1  0.2025822E+004  0.1043930E+01  0.7957747E-01            NaN
         13   -1    0    0    0    0  0.00000000000E+00  0.00000000000E+00  0.74505805969E-08  0.10566000000E+00  0.10566000000E+00 0. -1.
     999900   -1    0    0    0    0 -0.00000000000E+00 -0.00000000000E+00 -0.74505805969E-08  0.93827000000E+00  0.93827000000E+00 0. -1.
     999902    2    1    2    0    0  0.59385007604E-02  0.12105870673E-01 -0.28144463355E-02  0.10301554218E+01  0.10300633253E+01 0.  0.
     999903    2    3    3    0    0 -0.12651239618E+00  0.37777507434E-01  0.65829622645E-02  0.13982369469E+00  0.45550013714E-01 0.  0.
         14    1    1    2    0    0 -0.59385007604E-02 -0.12105870673E-01  0.28144463355E-02  0.13774578186E-01  0.00000000000E+00 0. -1.
     999901    1    3    3    0    0  0.13245089694E+00 -0.25671636762E-01 -0.93974086000E-02  0.89033172712E+00  0.88000000000E+00 0.  1.
        -11    1    4    4    0    0 -0.47152871175E-01  0.34630024077E-02  0.21743573646E-01  0.52042576432E-01  0.51100000000E-03 0. -1.
         11    1    4    4    0    0 -0.79359525005E-01  0.34314505027E-01 -0.15160611381E-01  0.87781118259E-01  0.51100000000E-03 0.  1.
</event>
<event>
 8    1  0.2025822E+004  0.1043930E+01  0.7957747E-01            NaN
         13   -1    0    0    0    0  0.00000000000E+00  0.00000000000E+00  0.74505805969E-08  0.10566000000E+00  0.10566000000E+00 0. -1.
     999900   -1    0    0    0    0 -0.00000000000E+00 -0.00000000000E+00 -0.74505805969E-08  0.93827000000E+00  0.93827000000E+00 0.  1.
     999902    2    1    2    0    0  0.42477571627E-02 -0.12393880270E-01 -0.41945285674E-02  0.10301733369E+01  0.10300814814E+01 0.  0.
     999903    2    3    3    0    0 -0.68938034159E-01  0.52133171262E-01 -0.10012768934E+00  0.13959876297E+00  0.44631158971E-01 0.  0.
         14    1    1    2    0    0 -0.42477571627E-02  0.12393880270E-01  0.41945285674E-02  0.13756663076E-01  0.00000000000E+00 0. -1.
     999901    1    3    3    0    0  0.73185791322E-01 -0.64527051532E-01  0.95933160776E-01  0.89057457395E+00  0.88000000000E+00 0. -1.
        -11    1    4    4    0    0 -0.85442172345E-02  0.26662040274E-01 -0.13833271923E-01  0.31232812438E-01  0.51100000000E-03 0.  1.
         11    1    4    4    0    0 -0.60393816925E-01  0.25471130988E-01 -0.86294417421E-01  0.10836595054E+00  0.51100000000E-03 0. -1.
</event>
<event>
 8    1  0.2025822E+004  0.1043930E+01  0.7957747E-01            NaN
         13   -1    0    0    0    0  0.00000000000E+00  0.00000000000E+00  0.74505805969E-08  0.10566000000E+00  0.10566000000E+00 0.  1.
     999900   -1    0    0    0    0 -0.00000000000E+00 -0.00000000000E+00 -0.74505805969E-08  0.93827000000E+00  0.93827000000E+00 0.  1.
     999902    2    1    2    0    0  0.66560476108E-02  0.11678341667E-01 -0.28535030298E-03  0.10304849987E+01  0.10303972848E+01 0.  0.
     999903    2    3    3    0    0  0.16805597204E-01  0.10564170729E+00  0.81766723215E-01  0.14162917793E+00  0.43936643003E-01 0.  0.
         14    1    1    2    0    0 -0.66560476108E-02 -0.11678341667E-01  0.28535030298E-03  0.13445001253E-01  0.00000000000E+00 0. -1.
     999901    1    3    3    0    0 -0.10149549593E-01 -0.93963365624E-01 -0.82052073518E-01  0.88885582082E+00  0.88000000000E+00 0.  1.
        -11    1    4    4    0    0  0.19886175560E-02 -0.62963514138E-03  0.15214160079E-01  0.15364987085E-01  0.51100000000E-03 0.  1.
         11    1    4    4    0    0  0.14816979648E-01  0.10627134243E+00  0.66552563136E-01  0.12626419084E+00  0.51100000000E-03 0. -1.
</event>
<event>
 8    1  0.2025822E+004  0.1043930E+01  0.7957747E-01            NaN
         13   -1    0    0    0    0  0.00000000000E+00  0.00000000000E+00  0.74505805969E-08  0.10566000000E+00  0.10566000000E+00 0.  1.
     999900   -1    0    0    0    0 -0.00000000000E+00 -0.00000000000E+00 -0.74505805969E-08  0.93827000000E+00  0.93827000000E+00 0. -1.
     999902    2    1    2    0    0 -0.11149399369E-01 -0.43817781137E-02  0.45408160689E-02  0.10311187512E+01  0.10310391607E+01 0.  0.
     999903    2    3    3    0    0  0.11000605081E+00 -0.70098505510E-01  0.25148339101E-01  0.14015185989E+00  0.44665122648E-01 0.  0.
         14    1    1    2    0    0  0.11149399369E-01  0.43817781137E-02 -0.45408160689E-02  0.12811248819E-01  0.00000000000E+00 0. -1.
     999901    1    3    3    0    0 -0.12115545018E+00  0.65716727397E-01 -0.20607523032E-01  0.89096689129E+00  0.88000000000E+00 0.  1.
        -11    1    4    4    0    0  0.37416931686E-01 -0.14774290231E-01 -0.11432081659E-01  0.41824156187E-01  0.51100000000E-03 0. -1.
         11    1    4    4    0    0  0.72589119127E-01 -0.55324215279E-01  0.36580420760E-01  0.98327703705E-01  0.51100000000E-03 0.  1.
</event>
<event>
 8    1  0.2025822E+004  0.1043930E+01  0.7957747E-01            NaN
         13   -1    0    0    0    0  0.00000000000E+00  0.00000000000E+00  0.74505805969E-08  0.10566000000E+00  0.10566000000E+00 0. -1.
     999900   -1    0    0    0    0 -0.00000000000E+00 -0.00000000000E+00 -0.74505805969E-08  0.93827000000E+00  0.93827000000E+00 0.  1.
     999902    2    1    2    0    0  0.58171842441E-02 -0.59482932785E-02 -0.10802640270E-01  0.10302947933E+01  0.10302045633E+01 0.  0.
     999903    2    3    3    0    0 -0.19641397044E-01  0.75003865252E-01 -0.10829953809E+00  0.14085281293E+00  0.45818780847E-01 0.  0.
         14    1    1    2    0    0 -0.58171842441E-02  0.59482932785E-02  0.10802640270E-01  0.13635206718E-01  0.00000000000E+00 0. -1.
     999901    1    3    3    0    0  0.25458581288E-01 -0.80952158531E-01  0.97496897821E-01  0.88944198035E+00  0.88000000000E+00 0. -1.
        -11    1    4    4    0    0  0.99559570482E-03  0.79023985494E-02 -0.46936515101E-01  0.47610258185E-01  0.51100000000E-03 0.  1.
         11    1    4    4    0    0 -0.20636992749E-01  0.67101466703E-01 -0.61363022989E-01  0.93242554742E-01  0.51100000000E-03 0. -1.
</event>
<event>
 8    1  0.2025822E+004  0.1043930E+01  0.7957747E-01            NaN
         13   -1    0    0    0    0  0.00000000000E+00  0.00000000000E+00  0.74505805969E-08  0.10566000000E+00  0.10566000000E+00 0. -1.
     999900   -1    0    0    0    0 -0.00000000000E+00 -0.00000000000E+00 -0.74505805969E-08  0.93827000000E+00  0.93827000000E+00 0. -1.
     999902    2    1    2    0    0  0.36057153673E-02 -0.91876847395E-02  0.39290239985E-02  0.10333068195E+01  0.10332522109E+01 0.  0.
     999903    2    3    3    0    0  0.92630916600E-01  0.71630887387E-01  0.68766070001E-01  0.14276711203E+00  0.44070456737E-01 0.  0.
         14    1    1    2    0    0 -0.36057153673E-02  0.91876847395E-02 -0.39290239985E-02  0.10623180492E-01  0.00000000000E+00 0. -1.
     999901    1    3    3    0    0 -0.89025201233E-01 -0.80818572126E-01 -0.64837046002E-01  0.89053970747E+00  0.88000000000E+00 0. -1.
        -11    1    4    4    0    0  0.24142655662E-01  0.46014438126E-01  0.29971041444E-01  0.59989338925E-01  0.51100000000E-03 0. -1.
         11    1    4    4    0    0  0.68488260938E-01  0.25616449261E-01  0.38795028557E-01  0.82777773108E-01  0.51100000000E-03 0.  1.
</event>
<event>
 8    1  0.2025822E+004  0.1043930E+01  0.7957747E-01            NaN
         13   -1    0    0    0    0  0.00000000000E+00  0.00000000000E+00  0.74505805969E-08  0.10566000000E+00  0.10566000000E+00 0. -1.
     999900   -1    0    0    0    0 -0.00000000000E+00 -0.00000000000E+00 -0.74505805969E-08  0.93827000000E+00  0.93827000000E+00 0. -1.
     999902    2    1    2    0    0  0.59009273867E-03  0.14062941253E-01 -0.96849658875E-02  0.10268445357E+01  0.10267023850E+01 0.  0.
     999903    2    3    3    0    0  0.51767321346E-01 -0.25711853528E-02  0.11763792150E+00  0.13605448156E+00  0.44560911415E-01 0.  0.
         14    1    1    2    0    0 -0.59009273867E-03 -0.14062941253E-01  0.96849658875E-02  0.17085464301E-01  0.00000000000E+00 0. -1.
     999901    1    3    3    0    0 -0.51177228607E-01  0.16634126606E-01 -0.12732288738E+00  0.89079005414E+00  0.88000000000E+00 0. -1.
        -11    1    4    4    0    0  0.38976745000E-01 -0.20486356919E-01  0.93689897443E-01  0.10352263267E+00  0.51100000000E-03 0.  1.
         11    1    4    4    0    0  0.12790576345E-01  0.17915171566E-01  0.23948024053E-01  0.32531848895E-01  0.51100000000E-03 0. -1.
</event>
<event>
 8    1  0.2025822E+004  0.1043930E+01  0.7957747E-01            NaN
         13   -1    0    0    0    0  0.00000000000E+00  0.00000000000E+00  0.74505805969E-08  0.10566000000E+00  0.10566000000E+00 0. -1.
     999900   -1    0    0    0    0 -0.00000000000E+00 -0.00000000000E+00 -0.74505805969E-08  0.93827000000E+00  0.93827000000E+00 0. -1.
     999902    2    1    2    0    0  0.11698295024E-01  0.39981081622E-02 -0.67896422919E-02  0.10298255958E+01  0.10297290049E+01 0.  0.
     999903    2    3    3    0    0  0.11167463221E+00 -0.35023202438E-01 -0.65119495624E-01  0.14138859608E+00  0.45302739476E-01 0.  0.
         14    1    1    2    0    0 -0.11698295024E-01 -0.39981081622E-02  0.67896422919E-02  0.14104404198E-01  0.00000000000E+00 0.  1.
     999901    1    3    3    0    0 -0.99976337186E-01  0.39021310600E-01  0.58329853333E-01  0.88843699972E+00  0.88000000000E+00 0.  1.
        -11    1    4    4    0    0  0.64941175752E-01 -0.52640713662E-03 -0.48227246384E-01  0.80893521541E-01  0.51100000000E-03 0.  1.
         11    1    4    4    0    0  0.46733456457E-01 -0.34496795301E-01 -0.16892249241E-01  0.60495074543E-01  0.51100000000E-03 0. -1.
</event>
<event>
 8    1  0.2025822E+004  0.1043930E+01  0.7957747E-01            NaN
         13   -1    0    0    0    0  0.00000000000E+00  0.00000000000E+00  0.74505805969E-08  0.10566000000E+00  0.10566000000E+00 0. -1.
     999900   -1    0    0    0    0 -0.00000000000E+00 -0.00000000000E+00 -0.74505805969E-08  0.93827000000E+00  0.93827000000E+00 0. -1.
     999902    2    1    2    0    0  0.89751494732E-02 -0.32452752104E-02 -0.10205405233E-01  0.10299573333E+01  0.10298625505E+01 0.  0.
     999903    2    3    3    0    0  0.66148954182E-01 -0.10519894174E+00 -0.50706923669E-01  0.14130455122E+00  0.44195956908E-01 0.  0.
         14    1    1    2    0    0 -0.89751494732E-02  0.32452752104E-02  0.10205405233E-01  0.13972666719E-01  0.00000000000E+00 0. -1.
     999901    1    3    3    0    0 -0.57173804709E-01  0.10195366652E+00  0.40501518436E-01  0.88865278206E+00  0.88000000000E+00 0. -1.
        -11    1    4    4    0    0  0.97406901230E-02 -0.47200440360E-01 -0.33197581647E-01  0.58524380923E-01  0.51100000000E-03 0. -1.
         11    1    4    4    0    0  0.56408264059E-01 -0.57998501375E-01 -0.17509342022E-01  0.82780170301E-01  0.51100000000E-03 0.  1.
</event>
<event>
 8    1  0.2025822E+004  0.1043930E+01  0.7957747E-01            NaN
         13   -1    0    0    0    0  0.00000000000E+00  0.00000000000E+00  0.74505805969E-08  0.10566000000E+00  0.10566000000E+00 0. -1.
     999900   -1    0    0    0    0 -0.00000000000E+00 -0.00000000000E+00 -0.74505805969E-08  0.93827000000E+00  0.93827000000E+00 0.  1.
     999902    2    1    2    0    0  0.44518789965E-02 -0.10512173764E-01 -0.73965460894E-02  0.10303272827E+01  0.10302374850E+01 0.  0.
     999903    2    3    3    0    0 -0.84839229675E-01 -0.92665695422E-01  0.43034727310E-01  0.14057146421E+00  0.46083866970E-01 0.  0.
         14    1    1    2    0    0 -0.44518789965E-02  0.10512173764E-01  0.73965460894E-02  0.13602717298E-01  0.00000000000E+00 0. -1.
     999901    1    3    3    0    0  0.89291108671E-01  0.82153521658E-01 -0.50431273400E-01  0.88975581849E+00  0.88000000000E+00 0. -1.
        -11    1    4    4    0    0 -0.56741295042E-01 -0.27921218947E-01  0.20541035003E-01  0.66493340047E-01  0.51100000000E-03 0.  1.
         11    1    4    4    0    0 -0.28097934633E-01 -0.64744476474E-01  0.22493692307E-01  0.74078124161E-01  0.51100000000E-03 0. -1.
</event>
<event>
 8    1  0.2025822E+004  0.1043930E+01  0.7957747E-01            NaN
         13   -1    0    0    0    0  0.00000000000E+00  0.00000000000E+00  0.74505805969E-08  0.10566000000E+00  0.10566000000E+00 0.  1.
     999900   -1    0    0    0    0 -0.00000000000E+00 -0.00000000000E+00 -0.74505805969E-08  0.93827000000E+00  0.93827000000E+00 0.  1.
     999902    2    1    2    0    0  0.83443927280E-02 -0.98996913771E-02 -0.62788665118E-02  0.10295405266E+01  0.10294399638E+01 0.  0.
     999903    2    3    3    0    0 -0.93672776274E-01 -0.23509693792E-01  0.87996878590E-01  0.13854072244E+00  0.46073706344E-01 0.  0.
         14    1    1    2    0    0 -0.83443927280E-02  0.98996913771E-02  0.62788665118E-02  0.14389473376E-01  0.00000000000E+00 0.  1.
     999901    1    3    3    0    0  0.10201716900E+00  0.13610002415E-01 -0.94275745102E-01  0.89099980418E+00  0.88000000000E+00 0.  1.
        -11    1    4    4    0    0 -0.69898892109E-01 -0.17839668838E-01  0.88388436424E-01  0.11409156725E+00  0.51100000000E-03 0. -1.
         11    1    4    4    0    0 -0.23773884165E-01 -0.56700249540E-02 -0.39155783354E-03  0.24449155196E-01  0.51100000000E-03 0.  1.
</event>
<event>
 8    1  0.2025822E+004  0.1043930E+01  0.7957747E-01            NaN
         13   -1    0    0    0    0  0.00000000000E+00  0.00000000000E+00  0.74505805969E-08  0.10566000000E+00  0.10566000000E+00 0. -1.
     999900   -1    0    0    0    0 -0.00000000000E+00 -0.00000000000E+00 -0.74505805969E-08  0.93827000000E+00  0.93827000000E+00 0.  1.
     999902    2    1    2    0    0 -0.12191604035E-01  0.41137099056E-02 -0.72210607946E-02  0.10291752876E+01  0.10290695172E+01 0.  0.
     999903    2    3    3    0    0  0.14802796717E-01  0.13867619947E-01  0.12922588934E+00  0.13819739417E+00  0.44584252903E-01 0.  0.
         14    1    1    2    0    0  0.12191604035E-01 -0.41137099056E-02  0.72210607946E-02  0.14754712370E-01  0.00000000000E+00 0. -1.
     999901    1    3    3    0    0 -0.26994400752E-01 -0.97539100418E-02 -0.13644695013E+00  0.89097789346E+00  0.88000000000E+00 0.  1.
        -11    1    4    4    0    0  0.21554222400E-01  0.18416452446E-01  0.42511969400E-01  0.51100674039E-01  0.51100000000E-03 0.  1.
         11    1    4    4    0    0 -0.67514256826E-02 -0.45488324990E-02  0.86713919937E-01  0.87096720132E-01  0.51100000000E-03 0. -1.
</event>
<event>
 8    1  0.2025822E+004  0.1043930E+01  0.7957747E-01            NaN
         13   -1    0    0    0    0  0.00000000000E+00  0.00000000000E+00  0.74505805969E-08  0.10566000000E+00  0.10566000000E+00 0. -1.
     999900   -1    0    0    0    0 -0.00000000000E+00 -0.00000000000E+00 -0.74505805969E-08  0.93827000000E+00  0.93827000000E+00 0. -1.
     999902    2    1    2    0    0  0.25779053967E-01  0.93305732721E-03  0.10400818367E-01  0.10161162041E+01  0.10157354641E+01 0.  0.
     999903    2    3    3    0    0 -0.67941602791E-01  0.69501240335E-01  0.67711440812E-01  0.12663901796E+00  0.44789707026E-01 0.  0.
         14    1    1    2    0    0 -0.25779053967E-01 -0.93305732721E-03 -0.10400818367E-01  0.27813795896E-01  0.00000000000E+00 0. -1.
     999901    1    3    3    0    0  0.93720656758E-01 -0.68568183008E-01 -0.57310622444E-01  0.88947718614E+00  0.88000000000E+00 0. -1.
        -11    1    4    4    0    0 -0.37291642850E-01  0.15881290768E-01  0.45658736520E-01  0.61056231168E-01  0.51100000000E-03 0.  1.
         11    1    4    4    0    0 -0.30649959941E-01  0.53619949567E-01  0.22052704292E-01  0.65582786793E-01  0.51100000000E-03 0. -1.
</event>
<event>
 8    1  0.2025822E+004  0.1043930E+01  0.7957747E-01            NaN
         13   -1    0    0    0    0  0.00000000000E+00  0.00000000000E+00  0.74505805969E-08  0.10566000000E+00  0.10566000000E+00 0.  1.
     999900   -1    0    0    0    0 -0.00000000000E+00 -0.00000000000E+00 -0.74505805969E-08  0.93827000000E+00  0.93827000000E+00 0.  1.
     999902    2    1    2    0    0  0.12154129809E-01 -0.22554200266E-02 -0.66871162799E-02  0.10298755589E+01  0.10297796558E+01 0.  0.
     999903    2    3    3    0    0 -0.18030436107E-01  0.10119592177E+00  0.81591872050E-01  0.13891738483E+00  0.45553210788E-01 0.  0.
         14    1    1    2    0    0 -0.12154129809E-01  0.22554200266E-02  0.66871162799E-02  0.14054441115E-01  0.00000000000E+00 0. -1.
     999901    1    3    3    0    0  0.30184565916E-01 -0.10345134180E+00 -0.88278988330E-01  0.89095817406E+00  0.88000000000E+00 0.  1.
        -11    1    4    4    0    0  0.70239185604E-02  0.18640650915E-01  0.36462087949E-01  0.41551826399E-01  0.51100000000E-03 0.  1.
         11    1    4    4    0    0 -0.25054354667E-01  0.82555270857E-01  0.45129784101E-01  0.97365558428E-01  0.51100000000E-03 0. -1.
</event>
<event>
 7    1  0.2025822E+004  0.1043930E+01  0.7957747E-01            NaN
         13   -1    0    0    0    0  0.00000000000E+00  0.00000000000E+00  0.74505805969E-08  0.10566000000E+00  0.10566000000E+00 0. -1.
     999900   -1    0    0    0    0 -0.00000000000E+00 -0.00000000000E+00 -0.74505805969E-08  0.93827000000E+00  0.93827000000E+00 0. -1.
     999903    2    1    2    0    0 -0.78050450697E-01  0.35093053019E-01  0.69551344162E-01  0.11921371237E+00  0.45289342213E-01 0.  0.
         14    1    1    2    0    0 -0.13972393779E-01  0.43392787917E-02 -0.35487134777E-01  0.38384812922E-01  0.00000000000E+00 0.  1.
     999901    1    1    2    0    0  0.92022844476E-01 -0.39432331811E-01 -0.34064209385E-01  0.88633147471E+00  0.88000000000E+00 0. -1.
        -11    1    3    3    0    0 -0.28533825888E-01  0.37551664464E-01  0.31540381778E-01  0.56739435383E-01  0.51100000000E-03 0.  1.
         11    1    3    3    0    0 -0.49516624809E-01 -0.24586114454E-02  0.38010962384E-01  0.62474276987E-01  0.51100000000E-03 0. -1.
</event>
<event>
 8    1  0.2025822E+004  0.1043930E+01  0.7957747E-01            NaN
         13   -1    0    0    0    0  0.00000000000E+00  0.00000000000E+00  0.74505805969E-08  0.10566000000E+00  0.10566000000E+00 0.  1.
     999900   -1    0    0    0    0 -0.00000000000E+00 -0.00000000000E+00 -0.74505805969E-08  0.93827000000E+00  0.93827000000E+00 0.  1.
     999902    2    1    2    0    0  0.83949226072E-02 -0.11085798763E-01 -0.24875778161E-02  0.10298035106E+01  0.10297066149E+01 0.  0.
     999903    2    3    3    0    0 -0.59539915381E-01  0.58664264056E-01  0.10080117010E+00  0.13842885371E+00  0.44890692192E-01 0.  0.
         14    1    1    2    0    0 -0.83949226072E-02  0.11085798763E-01  0.24875778161E-02  0.14126489415E-01  0.00000000000E+00 0. -1.
     999901    1    3    3    0    0  0.67934837988E-01 -0.69750062819E-01 -0.10328874791E+00  0.89137465688E+00  0.88000000000E+00 0.  1.
        -11    1    4    4    0    0 -0.28242679228E-02 -0.26948332135E-02  0.25953020958E-01  0.26249933965E-01  0.51100000000E-03 0. -1.
         11    1    4    4    0    0 -0.56715647458E-01  0.61359097270E-01  0.74848149139E-01  0.11217891974E+00  0.51100000000E-03 0.  1.
</event>
<event>
 8    1  0.2025822E+004  0.1043930E+01  0.7957747E-01            NaN
         13   -1    0    0    0    0  0.00000000000E+00  0.00000000000E+00  0.74505805969E-08  0.10566000000E+00  0.10566000000E+00 0. -1.
     999900   -1    0    0    0    0 -0.00000000000E+00 -0.00000000000E+00 -0.74505805969E-08  0.93827000000E+00  0.93827000000E+00 0.  1.
     999902    2    1    2    0    0 -0.50129069737E-02 -0.34006191015E-03 -0.13268539425E-01  0.10297420115E+01  0.10296442644E+01 0.  0.
     999903    2    3    3    0    0 -0.11274710253E+00 -0.22002267941E-01 -0.68930587671E-01  0.14116214923E+00  0.44489521622E-01 0.  0.
         14    1    1    2    0    0  0.50129069737E-02  0.34006191015E-03  0.13268539425E-01  0.14187988473E-01  0.00000000000E+00 0. -1.
     999901    1    3    3    0    0  0.10773419556E+00  0.21662206031E-01  0.55662048246E-01  0.88857986230E+00  0.88000000000E+00 0.  1.
        -11    1    4    4    0    0 -0.23138153594E-01 -0.16867398268E-01 -0.34957704312E-01  0.45190546444E-01  0.51100000000E-03 0. -1.
         11    1    4    4    0    0 -0.89608948941E-01 -0.51348696732E-02 -0.33972883359E-01  0.95971602787E-01  0.51100000000E-03 0.  1.
</event>
<event>
 8    1  0.2025822E+004  0.1043930E+01  0.7957747E-01            NaN
         13   -1    0    0    0    0  0.00000000000E+00  0.00000000000E+00  0.74505805969E-08  0.10566000000E+00  0.10566000000E+00 0.  1.
     999900   -1    0    0    0    0 -0.00000000000E+00 -0.00000000000E+00 -0.74505805969E-08  0.93827000000E+00  0.93827000000E+00 0.  1.
     999902    2    1    2    0    0 -0.66522086595E-02 -0.58256771817E-02 -0.98589203587E-02  0.10306865599E+01  0.10306014730E+01 0.  0.
     999903    2    3    3    0    0  0.96896469574E-01 -0.56078153364E-01  0.70197209612E-01  0.13958801089E+00  0.44983101786E-01 0.  0.
         14    1    1    2    0    0  0.66522086595E-02  0.58256771817E-02  0.98589203587E-02  0.13243440086E-01  0.00000000000E+00 0.  1.
     999901    1    3    3    0    0 -0.10354867823E+00  0.50252476182E-01 -0.80056129971E-01  0.89109854902E+00  0.88000000000E+00 0.  1.
        -11    1    4    4    0    0  0.67946341427E-01 -0.31076555311E-01  0.21672553234E-01  0.77797289721E-01  0.51100000000E-03 0.  1.
         11    1    4    4    0    0  0.28950128148E-01 -0.25001598052E-01  0.48524656378E-01  0.61790721169E-01  0.51100000000E-03 0. -1.
</event>
<event>
 8    1  0.2025822E+004  0.1043930E+01  0.7957747E-01            NaN
         13   -1    0    0    0    0  0.00000000000E+00  0.00000000000E+00  0.74505805969E-08  0.10566000000E+00  0.10566000000E+00 0.  1.
     999900   -1    0    0    0    0 -0.00000000000E+00 -0.00000000000E+00 -0.74505805969E-08  0.93827000000E+00  0.93827000000E+00 0.  1.
     999902    2    1    2    0    0 -0.10497765462E-01  0.80100401676E-02  0.40888635326E-02  0.10301067360E+01  0.10300139829E+01 0.  0.
     999903    2    3    3    0    0 -0.19818640273E-02  0.63384130949E-01 -0.11683981991E+00  0.14007159230E+00  0.44125181154E-01 0.  0.
         14    1    1    2    0    0  0.10497765462E-01 -0.80100401676E-02 -0.40888635326E-02  0.13823264020E-01  0.00000000000E+00 0. -1.
     999901    1    3    3    0    0 -0.85159014351E-02 -0.55374090781E-01  0.12092868344E+00  0.89003514368E+00  0.88000000000E+00 0. -1.
        -11    1    4    4    0    0  0.20967437873E-01  0.29004372622E-01 -0.58191695515E-01  0.68318530649E-01  0.51100000000E-03 0.  1.
         11    1    4    4    0    0 -0.22949301900E-01  0.34379758327E-01 -0.58648124394E-01  0.71753061651E-01  0.51100000000E-03 0. -1.
</event>
<event>
 8    1  0.2025822E+004  0.1043930E+01  0.7957747E-01            NaN
         13   -1    0    0    0    0  0.00000000000E+00  0.00000000000E+00  0.74505805969E-08  0.10566000000E+00  0.10566000000E+00 0. -1.
     999900   -1    0    0    0    0 -0.00000000000E+00 -0.00000000000E+00 -0.74505805969E-08  0.93827000000E+00  0.93827000000E+00 0. -1.
     999902    2    1    2    0    0 -0.12429643980E-01  0.52849984949E-02 -0.84565871070E-03  0.10303969886E+01  0.10303081150E+01 0.  0.
     999903    2    3    3    0    0 -0.90207191275E-01 -0.21719560587E-01 -0.96051394016E-01  0.14144101383E+00  0.46589842560E-01 0.  0.
         14    1    1    2    0    0  0.12429643980E-01 -0.52849984949E-02  0.84565871070E-03  0.13533011388E-01  0.00000000000E+00 0. -1.
     999901    1    3    3    0    0  0.77777547294E-01  0.27004559082E-01  0.95205735305E-01  0.88895597479E+00  0.88000000000E+00 0.  1.
        -11    1    4    4    0    0 -0.37609049612E-01 -0.28498088086E-01 -0.63847921546E-01  0.79393953448E-01  0.51100000000E-03 0.  1.
         11    1    4    4    0    0 -0.52598141663E-01  0.67785274984E-02 -0.32203472469E-01  0.62047060378E-01  0.51100000000E-03 0. -1.
</event>
<event>
 8    1  0.2025822E+004  0.1043930E+01  0.7957747E-01            NaN
         13   -1    0    0    0    0  0.00000000000E+00  0.00000000000E+00  0.74505805969E-08  0.10566000000E+00  0.10566000000E+00 0. -1.
     999900   -1    0    0    0    0 -0.00000000000E+00 -0.00000000000E+00 -0.74505805969E-08  0.93827000000E+00  0.93827000000E+00 0.  1.
     999902    2    1    2    0    0  0.96970915523E-02  0.79692167916E-02  0.32307511376E-02  0.10309692996E+01  0.10308878295E+01 0.  0.
     999903    2    3    3    0    0 -0.13162629583E+00  0.22929544422E-01 -0.23632398064E-02  0.13955054061E+00  0.40218437585E-01 0.  0.
         14    1    1    2    0    0 -0.96970915523E-02 -0.79692167916E-02 -0.32307511376E-02  0.12960700358E-01  0.00000000000E+00 0. -1.
     999901    1    3    3    0    0  0.14132338738E+00 -0.14960327631E-01  0.55939909440E-02  0.89141875903E+00  0.88000000000E+00 0.  1.
        -11    1    4    4    0    0 -0.60231331355E-02 -0.65323691887E-02 -0.55665865498E-02  0.10497522889E-01  0.51100000000E-03 0.  1.
         11    1    4    4    0    0 -0.12560316269E+00  0.29461913611E-01  0.32033467434E-02  0.12905301772E+00  0.51100000000E-03 0. -1.
</event>
<event>
 8    1  0.2025822E+004  0.1043930E+01  0.7957747E-01            NaN
         13   -1    0    0    0    0  0.00000000000E+00  0.00000000000E+00  0.74505805969E-08  0.10566000000E+00  0.10566000000E+00 0.  1.
     999900   -1    0    0    0    0 -0.00000000000E+00 -0.00000000000E+00 -0.74505805969E-08  0.93827000000E+00  0.93827000000E+00 0. -1.
     999902    2    1    2    0    0  0.85888885663E-02 -0.10426953713E-01  0.40523423744E-02  0.10298263888E+01  0.10297298088E+01 0.  0.
     999903    2    3    3    0    0  0.98941119752E-01  0.71386470047E-01  0.52991469834E-01  0.14007810967E+00  0.43913638553E-01 0.  0.
         14    1    1    2    0    0 -0.85888885663E-02  0.10426953713E-01 -0.40523423744E-02  0.14103611214E-01  0.00000000000E+00 0.  1.
     999901    1    3    3    0    0 -0.90352231186E-01 -0.81813423760E-01 -0.48939127460E-01  0.88974827911E+00  0.88000000000E+00 0. -1.
        -11    1    4    4    0    0  0.42073069094E-01  0.89629948659E-02  0.30356809032E-01  0.52652401612E-01  0.51100000000E-03 0. -1.
         11    1    4    4    0    0  0.56868050659E-01  0.62423475181E-01  0.22634660802E-01  0.87425708061E-01  0.51100000000E-03 0.  1.
</event>
<event>
 7    1  0.2025822E+004  0.1043930E+01  0.7957747E-01            NaN
         13   -1    0    0    0    0  0.00000000000E+00  0.00000000000E+00  0.74505805969E-08  0.10566000000E+00  0.10566000000E+00 0.  1.
     999900   -1    0    0    0    0 -0.00000000000E+00 -0.00000000000E+00 -0.74505805969E-08  0.93827000000E+00  0.93827000000E+00 0.  1.
     999902    2    1    2    0    0  0.63284353012E-02 -0.15202564550E-01  0.18178937463E-02  0.10273628095E+01  0.10272292201E+01 0.  0.
         14    1    1    2    0    0 -0.63284353012E-02  0.15202564550E-01 -0.18178937463E-02  0.16567190466E-01  0.00000000000E+00 0. -1.
     999901    1    3    3    0    0 -0.16152553322E-01 -0.95636245820E-02 -0.12107411531E+00  0.88848821562E+00  0.88000000000E+00 0.  1.
        -11    1    3    3    0    0 -0.12618744740E-01  0.18259351803E-01  0.43573292444E-01  0.48903267605E-01  0.51100000000E-03 0. -1.
         11    1    3    3    0    0  0.35099733363E-01 -0.23898291772E-01  0.79318716614E-01  0.89971326310E-01  0.51100000000E-03 0.  1.
</event>
<event>
 8    1  0.2025822E+004  0.1043930E+01  0.7957747E-01            NaN
         13   -1    0    0    0    0  0.00000000000E+00  0.00000000000E+00  0.74505805969E-08  0.10566000000E+00  0.10566000000E+00 0. -1.
     999900   -1    0    0    0    0 -0.00000000000E+00 -0.00000000000E+00 -0.74505805969E-08  0.93827000000E+00  0.93827000000E+00 0.  1.
     999902    2    1    2    0    0  0.14072300743E-01 -0.52020109673E-02 -0.70840723319E-02  0.10273385972E+01  0.10272046138E+01 0.  0.
     999903    2    3    3    0    0  0.12513127227E+00  0.24517927252E-01  0.31686978789E-01  0.13901401446E+00  0.45407791567E-01 0.  0.
         14    1    1    2    0    0 -0.14072300743E-01  0.52020109673E-02  0.70840723319E-02  0.16591402807E-01  0.00000000000E+00 0.  1.
     999901    1    3    3    0    0 -0.11105897153E+00 -0.29719938219E-01 -0.38771051120E-01  0.88832458273E+00  0.88000000000E+00 0.  1.
        -11    1    4    4    0    0  0.30640011374E-01 -0.68651592384E-02  0.23280352283E-01  0.39091899823E-01  0.51100000000E-03 0.  1.
         11    1    4    4    0    0  0.94491260894E-01  0.31383086490E-01  0.84066265056E-02  0.99922114636E-01  0.51100000000E-03 0. -1.
</event>
<event>
 8    1  0.2025822E+004  0.1043930E+01  0.7957747E-01            NaN
         13   -1    0    0    0    0  0.00000000000E+00  0.00000000000E+00  0.74505805969E-08  0.10566000000E+00  0.10566000000E+00 0.  1.
     999900   -1    0    0    0    0 -0.00000000000E+00 -0.00000000000E+00 -0.74505805969E-08  0.93827000000E+00  0.93827000000E+00 0.  1.
     999902    2    1    2    0    0  0.71373413487E-02  0.67755174043E-02  0.10015580810E-01  0.10298885921E+01  0.10297928680E+01 0.  0.
     999903    2    3    3    0    0  0.65051246702E-01 -0.26029991156E-01 -0.11264864166E+00  0.13889098641E+00  0.41131064917E-01 0.  0.
         14    1    1    2    0    0 -0.71373413487E-02 -0.67755174043E-02 -0.10015580810E-01  0.14041407927E-01  0.00000000000E+00 0. -1.
     999901    1    3    3    0    0 -0.57913905353E-01  0.32805508560E-01  0.12266422247E+00  0.89099760566E+00  0.88000000000E+00 0. -1.
        -11    1    4    4    0    0  0.73744498264E-02  0.62569795786E-02 -0.37854454210E-01  0.39073688439E-01  0.51100000000E-03 0.  1.
         11    1    4    4    0    0  0.57676796876E-01 -0.32286970734E-01 -0.74794187448E-01  0.99817297970E-01  0.51100000000E-03 0. -1.
</event>
<event>
 8    1  0.2025822E+004  0.1043930E+01  0.7957747E-01            NaN
         13   -1    0    0    0    0  0.00000000000E+00  0.00000000000E+00  0.74505805969E-08  0.10566000000E+00  0.10566000000E+00 0.  1.
     999900   -1    0    0    0    0 -0.00000000000E+00 -0.00000000000E+00 -0.74505805969E-08  0.93827000000E+00  0.93827000000E+00 0. -1.
     999902    2    1    2    0    0 -0.26511883441E-02 -0.68299979526E-02 -0.10138948680E-01  0.10314209652E+01  0.10313451078E+01 0.  0.
     999903    2    3    3    0    0  0.66239771658E-01  0.37971755562E-01 -0.11090548113E+00  0.14186655114E+00  0.44682558324E-01 0.  0.
         14    1    1    2    0    0  0.26511883441E-02  0.68299979526E-02  0.10138948680E-01  0.12509034815E-01  0.00000000000E+00 0.  1.
     999901    1    3    3    0    0 -0.68890960002E-01 -0.44801753515E-01  0.10076653245E+00  0.88955441405E+00  0.88000000000E+00 0.  1.
        -11    1    4    4    0    0  0.26263965377E-01  0.18196613550E-01 -0.13414786651E-01  0.34657325977E-01  0.51100000000E-03 0.  1.
         11    1    4    4    0    0  0.39975806281E-01  0.19775142012E-01 -0.97490694475E-01  0.10720922516E+00  0.51100000000E-03 0. -1.
</event>
<event>
 8    1  0.2025822E+004  0.1043930E+01  0.7957747E-01            NaN
         13   -1    0    0    0    0  0.00000000000E+00  0.00000000000E+00  0.74505805969E-08  0.10566000000E+00  0.10566000000E+00 0. -1.
     999900   -1    0    0    0    0 -0.00000000000E+00 -0.00000000000E+00 -0.74505805969E-08  0.93827000000E+00  0.93827000000E+00 0. -1.
     999902    2    1    2    0    0  0.20129980282E-02 -0.99984158081E-02 -0.87675611973E-02  0.10304804420E+01  0.10303926683E+01 0.  0.
     999903    2    3    3    0    0  0.10867342989E-01  0.13449033917E-01 -0.13266528840E+00  0.14144791782E+00  0.45917960023E-01 0.  0.
         14    1    1    2    0    0 -0.20129980282E-02  0.99984158081E-02  0.87675611973E-02  0.13449557951E-01  0.00000000000E+00 0.  1.
     999901    1    3    3    0    0 -0.88543449611E-02 -0.23447449725E-01  0.12389772721E+00  0.88903252423E+00  0.88000000000E+00 0.  1.
        -11    1    4    4    0    0  0.16763723726E-01  0.26659737293E-01 -0.11107204367E+00  0.11545139250E+00  0.51100000000E-03 0.  1.
         11    1    4    4    0    0 -0.58963807366E-02 -0.13210703376E-01 -0.21593244737E-01  0.25996525321E-01  0.51100000000E-03 0. -1.
</event>
<event>
 8    1  0.2025822E+004  0.1043930E+01  0.7957747E-01            NaN
         13   -1    0    0    0    0  0.00000000000E+00  0.00000000000E+00  0.74505805969E-08  0.10566000000E+00  0.10566000000E+00 0.  1.
     999900   -1    0    0    0    0 -0.00000000000E+00 -0.00000000000E+00 -0.74505805969E-08  0.93827000000E+00  0.93827000000E+00 0. -1.
     999902    2    1    2    0    0  0.21031761976E-02 -0.13849428395E-01  0.45668638703E-02  0.10291961525E+01  0.10290906831E+01 0.  0.
     999903    2    3    3    0    0  0.10469545998E+00 -0.20193207023E-01  0.78465584035E-01  0.14013685128E+00  0.45962857366E-01 0.  0.
         14    1    1    2    0    0 -0.21031761976E-02  0.13849428395E-01 -0.45668638703E-02  0.14733847515E-01  0.00000000000E+00 0.  1.
     999901    1    3    3    0    0 -0.10259228379E+00  0.63437786281E-02 -0.73898720165E-01  0.88905930121E+00  0.88000000000E+00 0. -1.
        -11    1    4    4    0    0  0.37481092662E-01  0.26274811066E-02  0.48772342479E-02  0.37891747109E-01  0.51100000000E-03 0. -1.
         11    1    4    4    0    0  0.67214367322E-01 -0.22820688129E-01  0.73588349787E-01  0.10224510417E+00  0.51100000000E-03 0.  1.
</event>
<event>
 8    1  0.2025822E+004  0.1043930E+01  0.7957747E-01            NaN
         13   -1    0    0    0    0  0.00000000000E+00  0.00000000000E+00  0.74505805969E-08  0.10566000000E+00  0.10566000000E+00 0.  1.
     999900   -1    0    0    0    0 -0.00000000000E+00 -0.00000000000E+00 -0.74505805969E-08  0.93827000000E+00  0.93827000000E+00 0.  1.
     999902    2    1    2    0    0  0.44314762310E-02  0.12254892807E-01  0.31143652094E-02  0.10305315057E+01  0.10304444015E+01 0.  0.
     999903    2    3    3    0    0  0.71980605048E-01 -0.10523847882E+00  0.35276252124E-01  0.13957585912E+00  0.44504624006E-01 0.  0.
         14    1    1    2    0    0 -0.44314762310E-02 -0.12254892807E-01 -0.31143652094E-02  0.13398494317E-01  0.00000000000E+00 0. -1.
     999901    1    3    3    0    0 -0.67549128817E-01  0.11749337162E+00 -0.32161886914E-01  0.89095564657E+00  0.88000000000E+00 0.  1.
        -11    1    4    4    0    0  0.62940722913E-01 -0.10589827843E+00  0.39761912089E-01  0.12944980012E+00  0.51100000000E-03 0.  1.
         11    1    4    4    0    0  0.90398821346E-02  0.65979961966E-03 -0.44856599653E-02  0.10126059000E-01  0.51100000000E-03 0. -1.
</event>
<event>
 8    1  0.2025822E+004  0.1043930E+01  0.7957747E-01            NaN
         13   -1    0    0    0    0  0.00000000000E+00  0.00000000000E+00  0.74505805969E-08  0.10566000000E+00  0.10566000000E+00 0.  1.
     999900   -1    0    0    0    0 -0.00000000000E+00 -0.00000000000E+00 -0.74505805969E-08  0.93827000000E+00  0.93827000000E+00 0. -1.
     999902    2    1    2    0    0 -0.26464458304E-02 -0.11722699932E-01 -0.69028705148E-02  0.10300708878E+01  0.10299776497E+01 0.  0.
     999903    2    3    3    0    0  0.12422409940E+00 -0.44763447356E-01 -0.22332882691E-03  0.14033359933E+00  0.47519218601E-01 0.  0.
         14    1    1    2    0    0  0.26464458304E-02  0.11722699932E-01  0.69028705148E-02  0.13859112186E-01  0.00000000000E+00 0. -1.
     999901    1    3    3    0    0 -0.12687054523E+00  0.33040747424E-01 -0.66795416879E-02  0.88973728848E+00  0.88000000000E+00 0. -1.
        -11    1    4    4    0    0  0.68805819012E-01 -0.26084281601E-01 -0.23707818186E-01  0.77310751132E-01  0.51100000000E-03 0. -1.
         11    1    4    4    0    0  0.55418280383E-01 -0.18679165755E-01  0.23484489359E-01  0.63022848201E-01  0.51100000000E-03 0.  1.
</event>
<event>
 8    1  0.2176553E+004  0.1043930E+01  0.7957747E-01            NaN
         13   -1    0    0    0    0  0.00000000000E+00  0.00000000000E+00  0.74505805969E-08  0.10566000000E+00  0.10566000000E+00 0.  1.
     999900   -1    0    0    0    0 -0.00000000000E+00 -0.00000000000E+00 -0.74505805969E-08  0.93827000000E+00  0.93827000000E+00 0. -1.
     999902    2    1    2    0    0  0.67163336121E-02 -0.28864334550E-02  0.13595120817E-01  0.10284940697E+01  0.10283782297E+01 0.  0.
     999903    2    3    3    0    0 -0.76527528662E-02  0.11128162685E+00 -0.65720378544E-01  0.13746558242E+00  0.46210962917E-01 0.  0.
         14    1    1    2    0    0 -0.67163336121E-02  0.28864334550E-02 -0.13595120817E-01  0.15435930335E-01  0.00000000000E+00 0. -1.
     999901    1    3    3    0    0  0.14369086478E-01 -0.11416806030E+00  0.79315499362E-01  0.89102848724E+00  0.88000000000E+00 0.  1.
        -11    1    4    4    0    0  0.64461274364E-02  0.47722461067E-01 -0.49631322511E-02  0.48413630848E-01  0.51100000000E-03 0.  1.
         11    1    4    4    0    0 -0.14098880303E-01  0.63559165783E-01 -0.60757246293E-01  0.89051951573E-01  0.51100000000E-03 0. -1.
</event>
<event>
 8    1  0.2025822E+004  0.1043930E+01  0.7957747E-01            NaN
         13   -1    0    0    0    0  0.00000000000E+00  0.00000000000E+00  0.74505805969E-08  0.10566000000E+00  0.10566000000E+00 0. -1.
     999900   -1    0    0    0    0 -0.00000000000E+00 -0.00000000000E+00 -0.74505805969E-08  0.93827000000E+00  0.93827000000E+00 0.  1.
     999902    2    1    2    0    0  0.17063280203E-02  0.61072904692E-02  0.77729855282E-02  0.10338985566E+01  0.10338498902E+01 0.  0.
     999903    2    3    3    0    0  0.12772403453E+00  0.23104629438E-02 -0.47201670920E-01  0.14321506003E+00  0.44314652713E-01 0.  0.
         14    1    1    2    0    0 -0.17063280203E-02 -0.61072904692E-02 -0.77729855282E-02  0.10031443376E-01  0.00000000000E+00 0.  1.
     999901    1    3    3    0    0 -0.12601770651E+00  0.37968275254E-02  0.54974656448E-01  0.89068349659E+00  0.88000000000E+00 0.  1.
        -11    1    4    4    0    0  0.61035584602E-01 -0.18738528268E-01 -0.32927655553E-01  0.71839868114E-01  0.51100000000E-03 0.  1.
         11    1    4    4    0    0  0.66688449932E-01  0.21048991212E-01 -0.14274015367E-01  0.71375191916E-01  0.51100000000E-03 0. -1.
</event>
<event>
 8    1  0.2025822E+004  0.1043930E+01  0.7957747E-01            NaN
         13   -1    0    0    0    0  0.00000000000E+00  0.00000000000E+00  0.74505805969E-08  0.10566000000E+00  0.10566000000E+00 0.  1.
     999900   -1    0    0    0    0 -0.00000000000E+00 -0.00000000000E+00 -0.74505805969E-08  0.93827000000E+00  0.93827000000E+00 0.  1.
     999902    2    1    2    0    0 -0.59617073190E-02 -0.82558745142E-02 -0.90006906495E-02  0.10303390526E+01  0.10302494113E+01 0.  0.
     999903    2    3    3    0    0 -0.24238769437E-01  0.48796579902E-01  0.11971633147E+00  0.13895972522E+00  0.44823889362E-01 0.  0.
         14    1    1    2    0    0  0.59617073190E-02  0.82558745142E-02  0.90006906495E-02  0.13590947367E-01  0.00000000000E+00 0.  1.
     999901    1    3    3    0    0  0.18277062118E-01 -0.57052454417E-01 -0.12871702212E+00  0.89137932741E+00  0.88000000000E+00 0.  1.
        -11    1    4    4    0    0 -0.91032741345E-02  0.42462193384E-01  0.11329330248E+00  0.12133235749E+00  0.51100000000E-03 0.  1.
         11    1    4    4    0    0 -0.15135495302E-01  0.63343865187E-02  0.64230289987E-02  0.17627367731E-01  0.51100000000E-03 0. -1.
</event>
<event>
 8    1  0.2025822E+004  0.1043930E+01  0.7957747E-01            NaN
         13   -1    0    0    0    0  0.00000000000E+00  0.00000000000E+00  0.74505805969E-08  0.10566000000E+00  0.10566000000E+00 0.  1.
     999900   -1    0    0    0    0 -0.00000000000E+00 -0.00000000000E+00 -0.74505805969E-08  0.93827000000E+00  0.93827000000E+00 0.  1.
     999902    2    1    2    0    0  0.39310587473E-02  0.64517458505E-02  0.11002342470E-01  0.10305834728E+01  0.10304970474E+01 0.  0.
     999903    2    3    3    0    0 -0.51912323174E-01 -0.36347982421E-02  0.12392203470E+00  0.14155530761E+00  0.44419965943E-01 0.  0.
         14    1    1    2    0    0 -0.39310587473E-02 -0.64517458505E-02 -0.11002342470E-01  0.13346527159E-01  0.00000000000E+00 0. -1.
     999901    1    3    3    0    0  0.55843381922E-01  0.10086544093E-01 -0.11291969223E+00  0.88902816523E+00  0.88000000000E+00 0.  1.
        -11    1    4    4    0    0 -0.12785148286E-01 -0.21750370580E-01  0.48738563256E-01  0.54883943975E-01  0.51100000000E-03 0.  1.
         11    1    4    4    0    0 -0.39127174888E-01  0.18115572338E-01  0.75183471441E-01  0.86671363637E-01  0.51100000000E-03 0. -1.
</event>
<event>
 8    1  0.2025822E+004  0.1043930E+01  0.7957747E-01            NaN
         13   -1    0    0    0    0  0.00000000000E+00  0.00000000000E+00  0.74505805969E-08  0.10566000000E+00  0.10566000000E+00 0. -1.
     999900   -1    0    0    0    0 -0.00000000000E+00 -0.00000000000E+00 -0.74505805969E-08  0.93827000000E+00  0.93827000000E+00 0.  1.
     999902    2    1    2    0    0 -0.78883654483E-02 -0.66192703490E-02 -0.77476357755E-02  0.10310433049E+01  0.10309627684E+01 0.  0.
     999903    2    3    3    0    0  0.17726352071E-01 -0.72450123007E-01 -0.11031322382E+00  0.14227476659E+00  0.50098482792E-01 0.  0.
         14    1    1    2    0    0  0.78883654483E-02  0.66192703490E-02  0.77476357755E-02  0.12886695058E-01  0.00000000000E+00 0. -1.
     999901    1    3    3    0    0 -0.25614717519E-01  0.65830852658E-01  0.10256558804E+00  0.88876853835E+00  0.88000000000E+00 0.  1.
        -11    1    4    4    0    0 -0.16453352094E-01 -0.28544962760E-01 -0.29953430879E-01  0.44530852637E-01  0.51100000000E-03 0. -1.
         11    1    4    4    0    0  0.34179704165E-01 -0.43905160247E-01 -0.80359792936E-01  0.97743913953E-01  0.51100000000E-03 0.  1.
</event>
<event>
 8    1  0.2025822E+004  0.1043930E+01  0.7957747E-01            NaN
         13   -1    0    0    0    0  0.00000000000E+00  0.00000000000E+00  0.74505805969E-08  0.10566000000E+00  0.10566000000E+00 0.  1.
     999900   -1    0    0    0    0 -0.00000000000E+00 -0.00000000000E+00 -0.74505805969E-08  0.93827000000E+00  0.93827000000E+00 0. -1.
     999902    2    1    2    0    0 -0.11272237579E-01 -0.76191961470E-02  0.16016114722E-02  0.10302303413E+01  0.10301392505E+01 0.  0.
     999903    2    3    3    0    0  0.51326460321E-01  0.41219244700E-01 -0.11405373310E+00  0.13911870460E+00  0.44858982068E-01 0.  0.
         14    1    1    2    0    0  0.11272237579E-01  0.76191961470E-02 -0.16016114722E-02  0.13699658728E-01  0.00000000000E+00 0.  1.
     999901    1    3    3    0    0 -0.62598697900E-01 -0.48838440847E-01  0.11565534457E+00  0.89111163667E+00  0.88000000000E+00 0.  1.
        -11    1    4    4    0    0  0.96453066905E-03 -0.69941865475E-02 -0.25202276462E-01  0.26177563385E-01  0.51100000000E-03 0. -1.
         11    1    4    4    0    0  0.50361929652E-01  0.48213431247E-01 -0.88851456641E-01  0.11294114122E+00  0.51100000000E-03 0.  1.
</event>
<event>
 8    1  0.2025822E+004  0.1043930E+01  0.7957747E-01            NaN
         13   -1    0    0    0    0  0.00000000000E+00  0.00000000000E+00  0.74505805969E-08  0.10566000000E+00  0.10566000000E+00 0.  1.
     999900   -1    0    0    0    0 -0.00000000000E+00 -0.00000000000E+00 -0.74505805969E-08  0.93827000000E+00  0.93827000000E+00 0.  1.
     999902    2    1    2    0    0  0.44352226648E-02  0.14354684728E-01 -0.15431002191E-02  0.10288267112E+01  0.10287158463E+01 0.  0.
     999903    2    3    3    0    0 -0.33721598330E-02 -0.28238822004E-01 -0.12921081138E+00  0.13856034293E+00  0.41167126736E-01 0.  0.
         14    1    1    2    0    0 -0.44352226648E-02 -0.14354684728E-01  0.15431002191E-02  0.15103288781E-01  0.00000000000E+00 0.  1.
     999901    1    3    3    0    0  0.78073824979E-02  0.42593506732E-01  0.12766771116E+00  0.89026636829E+00  0.88000000000E+00 0. -1.
        -11    1    4    4    0    0  0.12416181719E-01 -0.26445213984E-01 -0.10898646167E+00  0.11283537060E+00  0.51100000000E-03 0. -1.
         11    1    4    4    0    0 -0.15788341552E-01 -0.17936080194E-02 -0.20224349714E-01  0.25724972324E-01  0.51100000000E-03 0.  1.
</event>
<event>
 8    1  0.2025822E+004  0.1043930E+01  0.7957747E-01            NaN
         13   -1    0    0    0    0  0.00000000000E+00  0.00000000000E+00  0.74505805969E-08  0.10566000000E+00  0.10566000000E+00 0.  1.
     999900   -1    0    0    0    0 -0.00000000000E+00 -0.00000000000E+00 -0.74505805969E-08  0.93827000000E+00  0.93827000000E+00 0. -1.
     999902    2    1    2    0    0 -0.10581521111E-01 -0.29526556503E-02 -0.94836139926E-02  0.10294170507E+01  0.10293147422E+01 0.  0.
     999903    2    3    3    0    0  0.68731861957E-01  0.88301313807E-01  0.66790333298E-01  0.13788151310E+00  0.45046333542E-01 0.  0.
         14    1    1    2    0    0  0.10581521111E-01  0.29526556503E-02  0.94836139926E-02  0.14512949348E-01  0.00000000000E+00 0.  1.
     999901    1    3    3    0    0 -0.79313383068E-01 -0.91253969458E-01 -0.76273947291E-01  0.89153553755E+00  0.88000000000E+00 0. -1.
        -11    1    4    4    0    0  0.40337831680E-01  0.78770182799E-01  0.37929406920E-01  0.96284907400E-01  0.51100000000E-03 0. -1.
         11    1    4    4    0    0  0.28394030277E-01  0.95311310087E-02  0.28860926378E-01  0.41596605704E-01  0.51100000000E-03 0.  1.
</event>
<event>
 8    1  0.2025822E+004  0.1043930E+01  0.7957747E-01            NaN
         13   -1    0    0    0    0  0.00000000000E+00  0.00000000000E+00  0.74505805969E-08  0.10566000000E+00  0.10566000000E+00 0.  1.
     999900   -1    0    0    0    0 -0.00000000000E+00 -0.00000000000E+00 -0.74505805969E-08  0.93827000000E+00  0.93827000000E+00 0.  1.
     999902    2    1    2    0    0 -0.10922550286E-02 -0.13880785604E-01  0.79118145389E-02  0.10279154429E+01  0.10277906848E+01 0.  0.
     999903    2    3    3    0    0 -0.82581943354E-01 -0.72538705128E-01  0.73643953538E-01  0.13977016484E+00  0.45062467504E-01 0.  0.
         14    1    1    2    0    0  0.10922550286E-02  0.13880785604E-01 -0.79118145389E-02  0.16014557107E-01  0.00000000000E+00 0. -1.
     999901    1    3    3    0    0  0.81489688325E-01  0.58657919524E-01 -0.65732138999E-01  0.88814527805E+00  0.88000000000E+00 0.  1.
        -11    1    4    4    0    0 -0.27241361714E-01 -0.42638075934E-01  0.53692003873E-01  0.73777975767E-01  0.51100000000E-03 0. -1.
         11    1    4    4    0    0 -0.55340581640E-01 -0.29900629194E-01  0.19951949665E-01  0.65992189075E-01  0.51100000000E-03 0.  1.
</event>
<event>
 8    1  0.2025822E+004  0.1043930E+01  0.7957747E-01            NaN
         13   -1    0    0    0    0  0.00000000000E+00  0.00000000000E+00  0.74505805969E-08  0.10566000000E+00  0.10566000000E+00 0.  1.
     999900   -1    0    0    0    0 -0.00000000000E+00 -0.00000000000E+00 -0.74505805969E-08  0.93827000000E+00  0.93827000000E+00 0.  1.
     999902    2    1    2    0    0  0.10726956564E-01 -0.68688827991E-02  0.49886302095E-02  0.10302502493E+01  0.10301594248E+01 0.  0.
     999903    2    3    3    0    0  0.56609865060E-01  0.11282298570E+00  0.33452855747E-01  0.14050781644E+00  0.51861835666E-01 0.  0.
         14    1    1    2    0    0 -0.10726956564E-01  0.68688827991E-02 -0.49886302095E-02  0.13679750707E-01  0.00000000000E+00 0. -1.
     999901    1    3    3    0    0 -0.45882908497E-01 -0.11969186850E+00 -0.28464225538E-01  0.88974243285E+00  0.88000000000E+00 0. -1.
        -11    1    4    4    0    0  0.52523299403E-01  0.74152195375E-01  0.42898396808E-01  0.10048770387E+00  0.51100000000E-03 0.  1.
         11    1    4    4    0    0  0.40865656578E-02  0.38670790329E-01 -0.94455410609E-02  0.40020112575E-01  0.51100000000E-03 0. -1.
</event>
<event>
 8    1  0.2025822E+004  0.1043930E+01  0.7957747E-01            NaN
         13   -1    0    0    0    0  0.00000000000E+00  0.00000000000E+00  0.74505805969E-08  0.10566000000E+00  0.10566000000E+00 0. -1.
     999900   -1    0    0    0    0 -0.00000000000E+00 -0.00000000000E+00 -0.74505805969E-08  0.93827000000E+00  0.93827000000E+00 0. -1.
     999902    2    1    2    0    0  0.24050054086E-02 -0.13779649896E-01 -0.10449171096E-02  0.10299030740E+01  0.10298075486E+01 0.  0.
     999903    2    3    3    0    0  0.44816961022E-01  0.76994986752E-01  0.97105210300E-01  0.13879575374E+00  0.43566631842E-01 0.  0.
         14    1    1    2    0    0 -0.24050054086E-02  0.13779649896E-01  0.10449171096E-02  0.14026926036E-01  0.00000000000E+00 0.  1.
     999901    1    3    3    0    0 -0.42411955613E-01 -0.90774636647E-01 -0.98150127409E-01  0.89110732022E+00  0.88000000000E+00 0. -1.
        -11    1    4    4    0    0  0.14059011551E-01  0.58894774411E-01  0.76565617976E-01  0.97615599347E-01  0.51100000000E-03 0. -1.
         11    1    4    4    0    0  0.30757949471E-01  0.18100212341E-01  0.20539592323E-01  0.41180154398E-01  0.51100000000E-03 0.  1.
</event>
<event>
 8    1  0.2025822E+004  0.1043930E+01  0.7957747E-01            NaN
         13   -1    0    0    0    0  0.00000000000E+00  0.00000000000E+00  0.74505805969E-08  0.10566000000E+00  0.10566000000E+00 0. -1.
     999900   -1    0    0    0    0 -0.00000000000E+00 -0.00000000000E+00 -0.74505805969E-08  0.93827000000E+00  0.93827000000E+00 0. -1.
     999902    2    1    2    0    0 -0.37494900457E-03 -0.12580611432E-01 -0.55985474030E-02  0.10301548011E+01  0.10300626962E+01 0.  0.
     999903    2    3    3    0    0 -0.81351785328E-01  0.97210242387E-01  0.35028520007E-01  0.13871672801E+00  0.44129233124E-01 0.  0.
         14    1    1    2    0    0  0.37494900457E-03  0.12580611432E-01  0.55985474030E-02  0.13775198865E-01  0.00000000000E+00 0. -1.
     999901    1    3    3    0    0  0.80976836323E-01 -0.10979085382E+00 -0.40627067410E-01  0.89143807312E+00  0.88000000000E+00 0.  1.
        -11    1    4    4    0    0 -0.45646857380E-01  0.26608554798E-01  0.17020358999E-02  0.52865951465E-01  0.51100000000E-03 0.  1.
         11    1    4    4    0    0 -0.35704927948E-01  0.70601687588E-01  0.33326484107E-01  0.85850776549E-01  0.51100000000E-03 0. -1.
</event>
<event>
 8    1  0.3530997E+004  0.1043930E+01  0.7957747E-01            NaN
         13   -1    0    0    0    0  0.00000000000E+00  0.00000000000E+00  0.74505805969E-08  0.10566000000E+00  0.10566000000E+00 0. -1.
     999900   -1    0    0    0    0 -0.00000000000E+00 -0.00000000000E+00 -0.74505805969E-08  0.93827000000E+00  0.93827000000E+00 0.  1.
     999902    2    1    2    0    0 -0.76780221104E-02  0.14822943110E-01 -0.54094501100E-02  0.10263819569E+01  0.10262319366E+01 0.  0.
     999903    2    3    3    0    0 -0.11381112702E-01 -0.73627441028E-01 -0.10489160134E+00  0.13636292242E+00  0.45189255141E-01 0.  0.
         14    1    1    2    0    0  0.76780221104E-02 -0.14822943110E-01  0.54094501100E-02  0.17548043095E-01  0.00000000000E+00 0.  1.
     999901    1    3    3    0    0  0.37030905918E-02  0.88450384138E-01  0.99482151231E-01  0.89001903449E+00  0.88000000000E+00 0. -1.
        -11    1    4    4    0    0  0.87169992570E-02 -0.58364022362E-01 -0.56075689440E-01  0.81406936127E-01  0.51100000000E-03 0. -1.
         11    1    4    4    0    0 -0.20098111959E-01 -0.15263418666E-01 -0.48815911900E-01  0.54955986292E-01  0.51100000000E-03 0.  1.
</event>
<event>
 8    1  0.2025822E+004  0.1043930E+01  0.7957747E-01            NaN
         13   -1    0    0    0    0  0.00000000000E+00  0.00000000000E+00  0.74505805969E-08  0.10566000000E+00  0.10566000000E+00 0.  1.
     999900   -1    0    0    0    0 -0.00000000000E+00 -0.00000000000E+00 -0.74505805969E-08  0.93827000000E+00  0.93827000000E+00 0. -1.
     999902    2    1    2    0    0  0.13688451905E-02  0.13070309704E-02 -0.14645807063E-01  0.10291624094E+01  0.10290564529E+01 0.  0.
     999903    2    3    3    0    0 -0.86124366385E-01 -0.68703885966E-01  0.71910345139E-01  0.13784397135E+00  0.41136750796E-01 0.  0.
         14    1    1    2    0    0 -0.13688451905E-02 -0.13070309704E-02  0.14645807063E-01  0.14767590584E-01  0.00000000000E+00 0.  1.
     999901    1    3    3    0    0  0.87493211576E-01  0.70010916936E-01 -0.86556152202E-01  0.89131843807E+00  0.88000000000E+00 0. -1.
        -11    1    4    4    0    0 -0.62783361584E-01 -0.69915949608E-01  0.61105118041E-01  0.11208963856E+00  0.51100000000E-03 0. -1.
         11    1    4    4    0    0 -0.23341004802E-01  0.12120636420E-02  0.10805227098E-01  0.25754332782E-01  0.51100000000E-03 0.  1.
</event>
<event>
 8    1  0.2025822E+004  0.1043930E+01  0.7957747E-01            NaN
         13   -1    0    0    0    0  0.00000000000E+00  0.00000000000E+00  0.74505805969E-08  0.10566000000E+00  0.10566000000E+00 0. -1.
     999900   -1    0    0    0    0 -0.00000000000E+00 -0.00000000000E+00 -0.74505805969E-08  0.93827000000E+00  0.93827000000E+00 0. -1.
     999902    2    1    2    0    0 -0.11245771610E-02 -0.92455224421E-02  0.10086661968E-01  0.10302010121E+01  0.10301095283E+01 0.  0.
     999903    2    3    3    0    0 -0.22925362266E-01  0.12878225325E+00 -0.90045132178E-02  0.13897073094E+00  0.46058026574E-01 0.  0.
         14    1    1    2    0    0  0.11245771610E-02  0.92455224421E-02 -0.10086661968E-01  0.13728987897E-01  0.00000000000E+00 0. -1.
     999901    1    3    3    0    0  0.21800785105E-01 -0.13802777569E+00  0.19091175186E-01  0.89123028116E+00  0.88000000000E+00 0.  1.
        -11    1    4    4    0    0 -0.23608732693E-01  0.25612935889E-01  0.36343588167E-02  0.35026624576E-01  0.51100000000E-03 0. -1.
         11    1    4    4    0    0  0.68337042643E-03  0.10316931736E+00 -0.12638872035E-01  0.10394410636E+00  0.51100000000E-03 0.  1.
</event>
<event>
 8    1  0.2025822E+004  0.1043930E+01  0.7957747E-01            NaN
         13   -1    0    0    0    0  0.00000000000E+00  0.00000000000E+00  0.74505805969E-08  0.10566000000E+00  0.10566000000E+00 0. -1.
     999900   -1    0    0    0    0 -0.00000000000E+00 -0.00000000000E+00 -0.74505805969E-08  0.93827000000E+00  0.93827000000E+00 0.  1.
     999902    2    1    2    0    0 -0.11151052302E-01 -0.84085918083E-02 -0.50504615568E-02  0.10290788201E+01  0.10289716519E+01 0.  0.
     999903    2    3    3    0    0  0.45285237538E-01  0.47472077180E-01  0.11239363316E+00  0.13773106561E+00  0.45090651028E-01 0.  0.
         14    1    1    2    0    0  0.11151052302E-01  0.84085918083E-02  0.50504615568E-02  0.14851179939E-01  0.00000000000E+00 0. -1.
     999901    1    3    3    0    0 -0.56436289840E-01 -0.55880668988E-01 -0.11744409471E+00  0.89134775445E+00  0.88000000000E+00 0.  1.
        -11    1    4    4    0    0 -0.86385473184E-02  0.17711212223E-02  0.14628834653E-01  0.17088747598E-01  0.51100000000E-03 0. -1.
         11    1    4    4    0    0  0.53923784856E-01  0.45700955957E-01  0.97764798503E-01  0.12064231801E+00  0.51100000000E-03 0.  1.
</event>
<event>
 8    1  0.2025822E+004  0.1043930E+01  0.7957747E-01            NaN
         13   -1    0    0    0    0  0.00000000000E+00  0.00000000000E+00  0.74505805969E-08  0.10566000000E+00  0.10566000000E+00 0.  1.
     999900   -1    0    0    0    0 -0.00000000000E+00 -0.00000000000E+00 -0.74505805969E-08  0.93827000000E+00  0.93827000000E+00 0.  1.
     999902    2    1    2    0    0  0.13099578335E-01  0.16633051882E-03  0.55742602043E-02  0.10296927603E+01  0.10295943286E+01 0.  0.
     999903    2    3    3    0    0 -0.78845713830E-01 -0.10481453939E+00 -0.11501427591E-01  0.13853256204E+00  0.43084262225E-01 0.  0.
         14    1    1    2    0    0 -0.13099578335E-01 -0.16633051882E-03 -0.55742602043E-02  0.14237239734E-01  0.00000000000E+00 0. -1.
     999901    1    3    3    0    0  0.91945292165E-01  0.10498086990E+00  0.17075687795E-01  0.89116019823E+00  0.88000000000E+00 0.  1.
        -11    1    4    4    0    0 -0.38261462585E-01 -0.60002726964E-01 -0.27003676428E-01  0.76116531870E-01  0.51100000000E-03 0. -1.
         11    1    4    4    0    0 -0.40584251244E-01 -0.44811812422E-01  0.15502248837E-01  0.62416030165E-01  0.51100000000E-03 0.  1.
</event>
<event>
 8    1  0.2025822E+004  0.1043930E+01  0.7957747E-01            NaN
         13   -1    0    0    0    0  0.00000000000E+00  0.00000000000E+00  0.74505805969E-08  0.10566000000E+00  0.10566000000E+00 0.  1.
     999900   -1    0    0    0    0 -0.00000000000E+00 -0.00000000000E+00 -0.74505805969E-08  0.93827000000E+00  0.93827000000E+00 0. -1.
     999902    2    1    2    0    0  0.83927204320E-02  0.60363263894E-02  0.65136011950E-02  0.10317110805E+01  0.10316387215E+01 0.  0.
     999903    2    3    3    0    0 -0.10694448300E+00 -0.74395409564E-01  0.26297115178E-01  0.14032826598E+00  0.45040920931E-01 0.  0.
         14    1    1    2    0    0 -0.83927204320E-02 -0.60363263894E-02 -0.65136011950E-02  0.12218919472E-01  0.00000000000E+00 0. -1.
     999901    1    3    3    0    0  0.11533720343E+00  0.80431735953E-01 -0.19783513983E-01  0.89138281455E+00  0.88000000000E+00 0.  1.
        -11    1    4    4    0    0 -0.85014996004E-01 -0.36769596378E-01  0.76223631476E-02  0.92940380375E-01  0.51100000000E-03 0.  1.
         11    1    4    4    0    0 -0.21929486996E-01 -0.37625813186E-01  0.18674752030E-01  0.47387885606E-01  0.51100000000E-03 0. -1.
</event>
<event>
 8    1  0.2025822E+004  0.1043930E+01  0.7957747E-01            NaN
         13   -1    0    0    0    0  0.00000000000E+00  0.00000000000E+00  0.74505805969E-08  0.10566000000E+00  0.10566000000E+00 0. -1.
     999900   -1    0    0    0    0 -0.00000000000E+00 -0.00000000000E+00 -0.74505805969E-08  0.93827000000E+00  0.93827000000E+00 0. -1.
     999902    2    1    2    0    0 -0.52210641602E-02 -0.29743347039E-02 -0.10764344296E-01  0.10316020932E+01  0.10315284298E+01 0.  0.
     999903    2    3    3    0    0  0.88655942058E-01 -0.75210795484E-01 -0.67651359094E-01  0.14184531126E+00  0.45020507764E-01 0.  0.
         14    1    1    2    0    0  0.52210641602E-02  0.29743347039E-02  0.10764344296E-01  0.12327906798E-01  0.00000000000E+00 0. -1.
     999901    1    3    3    0    0 -0.93877006218E-01  0.72236460780E-01  0.56887014797E-01  0.88975678194E+00  0.88000000000E+00 0. -1.
        -11    1    4    4    0    0  0.34523299580E-01 -0.23438290270E-01 -0.49551673371E-01  0.64783031108E-01  0.51100000000E-03 0.  1.
         11    1    4    4    0    0  0.54132642478E-01 -0.51772505214E-01 -0.18099685723E-01  0.77062280151E-01  0.51100000000E-03 0. -1.
</event>
<event>
 8    1  0.2025822E+004  0.1043930E+01  0.7957747E-01            NaN
         13   -1    0    0    0    0  0.00000000000E+00  0.00000000000E+00  0.74505805969E-08  0.10566000000E+00  0.10566000000E+00 0. -1.
     999900   -1    0    0    0    0 -0.00000000000E+00 -0.00000000000E+00 -0.74505805969E-08  0.93827000000E+00  0.93827000000E+00 0.  1.
     999902    2    1    2    0    0 -0.64984326158E-02 -0.32247405358E-02 -0.12109474114E-01  0.10298137703E+01  0.10297170162E+01 0.  0.
     999903    2    3    3    0    0 -0.58265529891E-01  0.10583868365E+00  0.52192306783E-01  0.13924688235E+00  0.45485804679E-01 0.  0.
         14    1    1    2    0    0  0.64984326158E-02  0.32247405358E-02  0.12109474114E-01  0.14116229713E-01  0.00000000000E+00 0. -1.
     999901    1    3    3    0    0  0.51767097275E-01 -0.10906342419E+00 -0.64301780897E-01  0.89056688793E+00  0.88000000000E+00 0.  1.
        -11    1    4    4    0    0 -0.22165487283E-01  0.38194183729E-01  0.43653444065E-01  0.62096608578E-01  0.51100000000E-03 0. -1.
         11    1    4    4    0    0 -0.36100042608E-01  0.67644499923E-01  0.85388627186E-02  0.77150273776E-01  0.51100000000E-03 0.  1.
</event>
<event>
 8    1  0.2025822E+004  0.1043930E+01  0.7957747E-01            NaN
         13   -1    0    0    0    0  0.00000000000E+00  0.00000000000E+00  0.74505805969E-08  0.10566000000E+00  0.10566000000E+00 0. -1.
     999900   -1    0    0    0    0 -0.00000000000E+00 -0.00000000000E+00 -0.74505805969E-08  0.93827000000E+00  0.93827000000E+00 0.  1.
     999902    2    1    2    0    0 -0.12411891562E-01 -0.82929736839E-03  0.54260781109E-02  0.10303585185E+01  0.10302691355E+01 0.  0.
     999903    2    3    3    0    0 -0.21307511705E-01 -0.86756479612E-01 -0.97564613981E-01  0.14015084871E+00  0.46289412215E-01 0.  0.
         14    1    1    2    0    0  0.12411891562E-01  0.82929736839E-03 -0.54260781109E-02  0.13571481493E-01  0.00000000000E+00 0. -1.
     999901    1    3    3    0    0  0.88956201438E-02  0.85927182244E-01  0.10299069209E+00  0.89020766980E+00  0.88000000000E+00 0. -1.
        -11    1    4    4    0    0  0.13697082122E-01 -0.39448181969E-01 -0.40237455422E-01  0.57992094799E-01  0.51100000000E-03 0.  1.
         11    1    4    4    0    0 -0.35004593827E-01 -0.47308297643E-01 -0.57327158559E-01  0.82158753912E-01  0.51100000000E-03 0. -1.
</event>
<event>
 8    1  0.2025822E+004  0.1043930E+01  0.7957747E-01            NaN
         13   -1    0    0    0    0  0.00000000000E+00  0.00000000000E+00  0.74505805969E-08  0.10566000000E+00  0.10566000000E+00 0.  1.
     999900   -1    0    0    0    0 -0.00000000000E+00 -0.00000000000E+00 -0.74505805969E-08  0.93827000000E+00  0.93827000000E+00 0. -1.
     999902    2    1    2    0    0 -0.11826599876E-01 -0.37777218244E-02  0.52971401024E-02  0.10304318764E+01  0.10303434634E+01 0.  0.
     999903    2    3    3    0    0  0.72636683271E-01  0.81490991750E-01 -0.73145040966E-01  0.13882771791E+00  0.44789158826E-01 0.  0.
         14    1    1    2    0    0  0.11826599876E-01  0.37777218244E-02 -0.52971401024E-02  0.13498123576E-01  0.00000000000E+00 0. -1.
     999901    1    3    3    0    0 -0.84463283147E-01 -0.85268713574E-01  0.78442181068E-01  0.89160415852E+00  0.88000000000E+00 0.  1.
        -11    1    4    4    0    0  0.11599217414E-01  0.22620061496E-01 -0.40782253992E-01  0.48058947016E-01  0.51100000000E-03 0.  1.
         11    1    4    4    0    0  0.61037465857E-01  0.58870930254E-01 -0.32362786974E-01  0.90768770890E-01  0.51100000000E-03 0. -1.
</event>
<event>
 8    1  0.2025822E+004  0.1043930E+01  0.7957747E-01            NaN
         13   -1    0    0    0    0  0.00000000000E+00  0.00000000000E+00  0.74505805969E-08  0.10566000000E+00  0.10566000000E+00 0. -1.
     999900   -1    0    0    0    0 -0.00000000000E+00 -0.00000000000E+00 -0.74505805969E-08  0.93827000000E+00  0.93827000000E+00 0.  1.
     999902    2    1    2    0    0  0.63949754004E-02 -0.82415813302E-02  0.78071990121E-02  0.10309003519E+01  0.10308180071E+01 0.  0.
     999903    2    3    3    0    0 -0.75993647368E-02  0.53841785958E-01  0.12230150112E+00  0.14120426263E+00  0.44992203202E-01 0.  0.
         14    1    1    2    0    0 -0.63949754004E-02  0.82415813302E-02 -0.78071990121E-02  0.13029648100E-01  0.00000000000E+00 0.  1.
     999901    1    3    3    0    0  0.13994340137E-01 -0.62083367288E-01 -0.11449430211E+00  0.88969608927E+00  0.88000000000E+00 0.  1.
        -11    1    4    4    0    0  0.87691437667E-02  0.49802210639E-01  0.70764212059E-01  0.86976967619E-01  0.51100000000E-03 0. -1.
         11    1    4    4    0    0 -0.16368508504E-01  0.40395753196E-02  0.51537289060E-01  0.54227295010E-01  0.51100000000E-03 0.  1.
</event>
<event>
 8    1  0.2025822E+004  0.1043930E+01  0.7957747E-01            NaN
         13   -1    0    0    0    0  0.00000000000E+00  0.00000000000E+00  0.74505805969E-08  0.10566000000E+00  0.10566000000E+00 0. -1.
     999900   -1    0    0    0    0 -0.00000000000E+00 -0.00000000000E+00 -0.74505805969E-08  0.93827000000E+00  0.93827000000E+00 0.  1.
     999902    2    1    2    0    0 -0.23916697186E-02 -0.84128902768E-04 -0.12660883985E-01  0.10310449255E+01  0.10309644093E+01 0.  0.
     999903    2    3    3    0    0  0.12159287178E-01 -0.66822656647E-01  0.11237473705E+00  0.13958563424E+00  0.47359814756E-01 0.  0.
         14    1    1    2    0    0  0.23916697186E-02  0.84128902768E-04  0.12660883985E-01  0.12885074505E-01  0.00000000000E+00 0. -1.
     999901    1    3    3    0    0 -0.14550956897E-01  0.66738527744E-01 -0.12503562104E+00  0.89145929125E+00  0.88000000000E+00 0.  1.
        -11    1    4    4    0    0  0.25303416064E-02 -0.71362142997E-01  0.90741626961E-01  0.11546974524E+00  0.51100000000E-03 0. -1.
         11    1    4    4    0    0  0.96289455719E-02  0.45394863496E-02  0.21633110090E-01  0.24115889001E-01  0.51100000000E-03 0.  1.
</event>
<event>
 8    1  0.2025822E+004  0.1043930E+01  0.7957747E-01            NaN
         13   -1    0    0    0    0  0.00000000000E+00  0.00000000000E+00  0.74505805969E-08  0.10566000000E+00  0.10566000000E+00 0. -1.
     999900   -1    0    0    0    0 -0.00000000000E+00 -0.00000000000E+00 -0.74505805969E-08  0.93827000000E+00  0.93827000000E+00 0. -1.
     999902    2    1    2    0    0  0.72437396261E-02  0.70632318494E-02  0.95292316404E-02  0.10300315374E+01  0.10299377655E+01 0.  0.
     999903    2    3    3    0    0  0.64592196808E-01 -0.83428072723E-01  0.80909700170E-01  0.14066508138E+00  0.45911766809E-01 0.  0.
         14    1    1    2    0    0 -0.72437396261E-02 -0.70632318494E-02 -0.95292316404E-02  0.13898462634E-01  0.00000000000E+00 0.  1.
     999901    1    3    3    0    0 -0.57348457182E-01  0.90491304572E-01 -0.71380468529E-01  0.88936645599E+00  0.88000000000E+00 0.  1.
        -11    1    4    4    0    0 -0.50078371919E-02 -0.10009247998E-01  0.13047529628E-03  0.11204535851E-01  0.51100000000E-03 0.  1.
         11    1    4    4    0    0  0.69600034000E-01 -0.73418824725E-01  0.80779224874E-01  0.12946054553E+00  0.51100000000E-03 0. -1.
</event>
<event>
 8    1  0.2025822E+004  0.1043930E+01  0.7957747E-01            NaN
         13   -1    0    0    0    0  0.00000000000E+00  0.00000000000E+00  0.74505805969E-08  0.10566000000E+00  0.10566000000E+00 0. -1.
     999900   -1    0    0    0    0 -0.00000000000E+00 -0.00000000000E+00 -0.74505805969E-08  0.93827000000E+00  0.93827000000E+00 0.  1.
     999902    2    1    2    0    0  0.13785373317E-01  0.34111024370E-02 -0.51349650816E-02  0.10288290065E+01  0.10287181755E+01 0.  0.
     999903    2    3    3    0    0 -0.56430044374E-01 -0.12591711647E-01 -0.11879859003E+00  0.13860110617E+00  0.41883893425E-01 0.  0.
         14    1    1    2    0    0 -0.13785373317E-01 -0.34111024370E-02  0.51349650816E-02  0.15100993468E-01  0.00000000000E+00 0. -1.
     999901    1    3    3    0    0  0.70215417690E-01  0.16002814084E-01  0.11366362495E+00  0.89022790036E+00  0.88000000000E+00 0. -1.
        -11    1    4    4    0    0 -0.46539177011E-01 -0.36570406516E-02 -0.49547214953E-01  0.68076843154E-01  0.51100000000E-03 0. -1.
         11    1    4    4    0    0 -0.98908673624E-02 -0.89346709953E-02 -0.69251375080E-01  0.70524263019E-01  0.51100000000E-03 0.  1.
</event>
<event>
 8    1  0.2025822E+004  0.1043930E+01  0.7957747E-01            NaN
         13   -1    0    0    0    0  0.00000000000E+00  0.00000000000E+00  0.74505805969E-08  0.10566000000E+00  0.10566000000E+00 0. -1.
     999900   -1    0    0    0    0 -0.00000000000E+00 -0.00000000000E+00 -0.74505805969E-08  0.93827000000E+00  0.93827000000E+00 0.  1.
     999902    2    1    2    0    0  0.66135664046E-03  0.12708000113E-01  0.80023188346E-02  0.10288977757E+01  0.10287879593E+01 0.  0.
     999903    2    3    3    0    0  0.22212845639E-01 -0.94866748430E-01 -0.85423516548E-01  0.13717742724E+00  0.45026202338E-01 0.  0.
         14    1    1    2    0    0 -0.66135664046E-03 -0.12708000113E-01 -0.80023188346E-02  0.15032224260E-01  0.00000000000E+00 0. -1.
     999901    1    3    3    0    0 -0.21551488998E-01  0.10757474854E+00  0.93425835383E-01  0.89172034849E+00  0.88000000000E+00 0. -1.
        -11    1    4    4    0    0  0.22154356701E-01 -0.49094977416E-01 -0.20271861723E-01  0.57552948031E-01  0.51100000000E-03 0. -1.
         11    1    4    4    0    0  0.58488937951E-04 -0.45771771014E-01 -0.65151654825E-01  0.79624479214E-01  0.51100000000E-03 0.  1.
</event>
<event>
 8    1  0.2025822E+004  0.1043930E+01  0.7957747E-01            NaN
         13   -1    0    0    0    0  0.00000000000E+00  0.00000000000E+00  0.74505805969E-08  0.10566000000E+00  0.10566000000E+00 0. -1.
     999900   -1    0    0    0    0 -0.00000000000E+00 -0.00000000000E+00 -0.74505805969E-08  0.93827000000E+00  0.93827000000E+00 0.  1.
     999902    2    1    2    0    0  0.44179040077E-02 -0.64057049277E-02 -0.10458197633E-01  0.10308944782E+01  0.10308120587E+01 0.  0.
     999903    2    3    3    0    0  0.50096298185E-01 -0.49445636190E-03  0.12240545436E+00  0.13972995432E+00  0.45071956895E-01 0.  0.
         14    1    1    2    0    0 -0.44179040077E-02  0.64057049277E-02  0.10458197633E-01  0.13035521822E-01  0.00000000000E+00 0. -1.
     999901    1    3    3    0    0 -0.45678394177E-01 -0.59112485658E-02 -0.13286365200E+00  0.89116452385E+00  0.88000000000E+00 0.  1.
        -11    1    4    4    0    0  0.38910462867E-01 -0.10566434318E-01  0.11695867670E+00  0.12371445684E+00  0.51100000000E-03 0. -1.
         11    1    4    4    0    0  0.11185835318E-01  0.10071977956E-01  0.54467776622E-02  0.16015497482E-01  0.51100000000E-03 0.  1.
</event>
<event>
 8    1  0.2025822E+004  0.1043930E+01  0.7957747E-01            NaN
         13   -1    0    0    0    0  0.00000000000E+00  0.00000000000E+00  0.74505805969E-08  0.10566000000E+00  0.10566000000E+00 0. -1.
     999900   -1    0    0    0    0 -0.00000000000E+00 -0.00000000000E+00 -0.74505805969E-08  0.93827000000E+00  0.93827000000E+00 0. -1.
     999902    2    1    2    0    0  0.10292743980E-01  0.17613235676E-02 -0.75318514892E-02  0.10310547669E+01  0.10309743745E+01 0.  0.
     999903    2    3    3    0    0  0.22566821867E-01 -0.93699238250E-01  0.91730989242E-01  0.14025934520E+00  0.44376805103E-01 0.  0.
         14    1    1    2    0    0 -0.10292743980E-01 -0.17613235676E-02  0.75318514892E-02  0.12875233054E-01  0.00000000000E+00 0. -1.
     999901    1    3    3    0    0 -0.12274077887E-01  0.95460561818E-01 -0.99262840731E-01  0.89079542174E+00  0.88000000000E+00 0. -1.
        -11    1    4    4    0    0  0.23078273079E-01 -0.15836972431E-01  0.20158578079E-01  0.34497040094E-01  0.51100000000E-03 0.  1.
         11    1    4    4    0    0 -0.51145121195E-03 -0.77862265819E-01  0.71572411164E-01  0.10576230511E+00  0.51100000000E-03 0. -1.
</event>
<event>
 8    1  0.2025822E+004  0.1043930E+01  0.7957747E-01            NaN
         13   -1    0    0    0    0  0.00000000000E+00  0.00000000000E+00  0.74505805969E-08  0.10566000000E+00  0.10566000000E+00 0. -1.
     999900   -1    0    0    0    0 -0.00000000000E+00 -0.00000000000E+00 -0.74505805969E-08  0.93827000000E+00  0.93827000000E+00 0. -1.
     999902    2    1    2    0    0 -0.13752536281E-01  0.21808742934E-03  0.35286846247E-03  0.10301712089E+01  0.10300793248E+01 0.  0.
     999903    2    3    3    0    0 -0.12083904755E+00 -0.57081088726E-01 -0.14560208822E-01  0.14170448676E+00  0.44808880628E-01 0.  0.
         14    1    1    2    0    0  0.13752536281E-01 -0.21808742934E-03 -0.35286846247E-03  0.13758791096E-01  0.00000000000E+00 0. -1.
     999901    1    3    3    0    0  0.10708651127E+00  0.57299176155E-01  0.14913077285E-01  0.88846672214E+00  0.88000000000E+00 0.  1.
        -11    1    4    4    0    0 -0.60429371477E-01 -0.31784109228E-01  0.14903382347E-01  0.69887842025E-01  0.51100000000E-03 0. -1.
         11    1    4    4    0    0 -0.60409676076E-01 -0.25296979498E-01 -0.29463591169E-01  0.71816644734E-01  0.51100000000E-03 0.  1.
</event>
<event>
 8    1  0.2025822E+004  0.1043930E+01  0.7957747E-01            NaN
         13   -1    0    0    0    0  0.00000000000E+00  0.00000000000E+00  0.74505805969E-08  0.10566000000E+00  0.10566000000E+00 0. -1.
     999900   -1    0    0    0    0 -0.00000000000E+00 -0.00000000000E+00 -0.74505805969E-08  0.93827000000E+00  0.93827000000E+00 0.  1.
     999902    2    1    2    0    0 -0.49779659302E-02 -0.12823845958E-01 -0.20329483448E-02  0.10300244598E+01  0.10299305917E+01 0.  0.
     999903    2    3    3    0    0 -0.38908262679E-02 -0.50903821780E-02  0.13211932740E+00  0.13982345920E+00  0.45321435899E-01 0.  0.
         14    1    1    2    0    0  0.49779659302E-02  0.12823845958E-01  0.20329483448E-02  0.13905540224E-01  0.00000000000E+00 0. -1.
     999901    1    3    3    0    0 -0.10871396623E-02 -0.77334637799E-02 -0.13415227574E+00  0.89020100057E+00  0.88000000000E+00 0.  1.
        -11    1    4    4    0    0  0.51524473859E-02 -0.20942717184E-01  0.10457886072E+00  0.10678082388E+00  0.51100000000E-03 0.  1.
         11    1    4    4    0    0 -0.90432736539E-02  0.15852335006E-01  0.27540466672E-01  0.33042635323E-01  0.51100000000E-03 0. -1.
</event>
<event>
 8    1  0.2025822E+004  0.1043930E+01  0.7957747E-01            NaN
         13   -1    0    0    0    0  0.00000000000E+00  0.00000000000E+00  0.74505805969E-08  0.10566000000E+00  0.10566000000E+00 0. -1.
     999900   -1    0    0    0    0 -0.00000000000E+00 -0.00000000000E+00 -0.74505805969E-08  0.93827000000E+00  0.93827000000E+00 0. -1.
     999902    2    1    2    0    0 -0.13626123955E-01 -0.89422200162E-03  0.18651868323E-02  0.10301477720E+01  0.10300555724E+01 0.  0.
     999903    2    3    3    0    0  0.11867524971E+00 -0.24889225607E-02 -0.55283194268E-01  0.13842352425E+00  0.44886867432E-01 0.  0.
         14    1    1    2    0    0  0.13626123955E-01  0.89422200162E-03 -0.18651868323E-02  0.13782228011E-01  0.00000000000E+00 0.  1.
     999901    1    3    3    0    0 -0.13230137367E+00  0.15947005591E-02  0.57148381101E-01  0.89172424774E+00  0.88000000000E+00 0.  1.
        -11    1    4    4    0    0  0.26438602085E-01 -0.51541166226E-02 -0.34609653103E-01  0.43859477964E-01  0.51100000000E-03 0.  1.
         11    1    4    4    0    0  0.92236647626E-01  0.26651940619E-02 -0.20673541165E-01  0.94564046286E-01  0.51100000000E-03 0. -1.
</event>
<event>
 8    1  0.2025822E+004  0.1043930E+01  0.7957747E-01            NaN
         13   -1    0    0    0    0  0.00000000000E+00  0.00000000000E+00  0.74505805969E-08  0.10566000000E+00  0.10566000000E+00 0.  1.
     999900   -1    0    0    0    0 -0.00000000000E+00 -0.00000000000E+00 -0.74505805969E-08  0.93827000000E+00  0.93827000000E+00 0.  1.
     999902    2    1    2    0    0  0.25475963710E-02 -0.96790831878E-02  0.75282778014E-02  0.10314060284E+01  0.10313299887E+01 0.  0.
     999903    2    3    3    0    0 -0.68643811994E-01  0.90402789748E-01 -0.67255396403E-01  0.13973501514E+00  0.46021177643E-01 0.  0.
         14    1    1    2    0    0 -0.25475963710E-02  0.96790831878E-02 -0.75282778014E-02  0.12523971626E-01  0.00000000000E+00 0. -1.
     999901    1    3    3    0    0  0.71191408365E-01 -0.10008187294E+00  0.74783674204E-01  0.89167101323E+00  0.88000000000E+00 0. -1.
        -11    1    4    4    0    0 -0.36563346479E-01  0.13193229343E-01 -0.21482644739E-01  0.44415141024E-01  0.51100000000E-03 0.  1.
         11    1    4    4    0    0 -0.32080465515E-01  0.77209560405E-01 -0.45772751664E-01  0.95319874116E-01  0.51100000000E-03 0. -1.
</event>
<event>
 8    1  0.2025822E+004  0.1043930E+01  0.7957747E-01            NaN
         13   -1    0    0    0    0  0.00000000000E+00  0.00000000000E+00  0.74505805969E-08  0.10566000000E+00  0.10566000000E+00 0. -1.
     999900   -1    0    0    0    0 -0.00000000000E+00 -0.00000000000E+00 -0.74505805969E-08  0.93827000000E+00  0.93827000000E+00 0. -1.
     999902    2    1    2    0    0  0.13086852662E-01 -0.44986051151E-02  0.92290424861E-03  0.10300607926E+01  0.10299674177E+01 0.  0.
     999903    2    3    3    0    0  0.22667826175E-01  0.83433353079E-01  0.10084215259E+00  0.14000030002E+00  0.44226570277E-01 0.  0.
         14    1    1    2    0    0 -0.13086852662E-01  0.44986051151E-02 -0.92290424861E-03  0.13869207361E-01  0.00000000000E+00 0. -1.
     999901    1    3    3    0    0 -0.95809735135E-02 -0.87931958194E-01 -0.99919248341E-01  0.89006049262E+00  0.88000000000E+00 0. -1.
        -11    1    4    4    0    0 -0.30546418533E-02  0.46951825208E-01  0.74651768900E-01  0.88243710530E-01  0.51100000000E-03 0.  1.
         11    1    4    4    0    0  0.25722468028E-01  0.36481527870E-01  0.26190383689E-01  0.51756589494E-01  0.51100000000E-03 0. -1.
</event>
<event>
 8    1  0.2025822E+004  0.1043930E+01  0.7957747E-01            NaN
         13   -1    0    0    0    0  0.00000000000E+00  0.00000000000E+00  0.74505805969E-08  0.10566000000E+00  0.10566000000E+00 0.  1.
     999900   -1    0    0    0    0 -0.00000000000E+00 -0.00000000000E+00 -0.74505805969E-08  0.93827000000E+00  0.93827000000E+00 0.  1.
     999902    2    1    2    0    0 -0.10018198198E-01  0.10049621671E-01  0.31321558996E-02  0.10293983245E+01  0.10292957500E+01 0.  0.
     999903    2    3    3    0    0  0.10148682497E+00  0.59054225577E-01  0.58974880837E-01  0.13925607113E+00  0.46122007491E-01 0.  0.
         14    1    1    2    0    0  0.10018198198E-01 -0.10049621671E-01 -0.31321558996E-02  0.14531675453E-01  0.00000000000E+00 0. -1.
     999901    1    3    3    0    0 -0.11150502317E+00 -0.49004603905E-01 -0.55842724937E-01  0.89014225342E+00  0.88000000000E+00 0. -1.
        -11    1    4    4    0    0  0.29922712682E-01  0.40710412053E-01  0.12762274451E-01  0.52113752062E-01  0.51100000000E-03 0.  1.
         11    1    4    4    0    0  0.71564112288E-01  0.18343813524E-01  0.46212606386E-01  0.87142319066E-01  0.51100000000E-03 0. -1.
</event>
<event>
 8    1  0.2025822E+004  0.1043930E+01  0.7957747E-01            NaN
         13   -1    0    0    0    0  0.00000000000E+00  0.00000000000E+00  0.74505805969E-08  0.10566000000E+00  0.10566000000E+00 0. -1.
     999900   -1    0    0    0    0 -0.00000000000E+00 -0.00000000000E+00 -0.74505805969E-08  0.93827000000E+00  0.93827000000E+00 0.  1.
     999902    2    1    2    0    0  0.50151834280E-02  0.10563516867E-01 -0.51504376570E-02  0.10311524039E+01  0.10310732337E+01 0.  0.
     999903    2    3    3    0    0 -0.85518569477E-01  0.10285355591E+00 -0.11336972933E-01  0.14168509989E+00  0.45319542006E-01 0.  0.
         14    1    1    2    0    0 -0.50151834280E-02 -0.10563516867E-01  0.51504376570E-02  0.12777596076E-01  0.00000000000E+00 0. -1.
     999901    1    3    3    0    0  0.90533752905E-01 -0.92290039044E-01  0.61865352764E-02  0.88946730403E+00  0.88000000000E+00 0.  1.
        -11    1    4    4    0    0 -0.60923123687E-01  0.37892503583E-01 -0.69500767211E-02  0.72083517637E-01  0.51100000000E-03 0. -1.
         11    1    4    4    0    0 -0.24595445790E-01  0.64961052328E-01 -0.43868962123E-02  0.69601582256E-01  0.51100000000E-03 0.  1.
</event>
<event>
 8    1  0.2025822E+004  0.1043930E+01  0.7957747E-01            NaN
         13   -1    0    0    0    0  0.00000000000E+00  0.00000000000E+00  0.74505805969E-08  0.10566000000E+00  0.10566000000E+00 0. -1.
     999900   -1    0    0    0    0 -0.00000000000E+00 -0.00000000000E+00 -0.74505805969E-08  0.93827000000E+00  0.93827000000E+00 0.  1.
     999902    2    1    2    0    0 -0.71477204974E-02  0.74342595746E-02  0.14396224548E-01  0.10262209796E+01  0.10260681700E+01 0.  0.
     999903    2    3    3    0    0 -0.10573177291E+00  0.19350205820E-01 -0.70057460625E-01  0.13661812991E+00  0.46934287721E-01 0.  0.
         14    1    1    2    0    0  0.71477204974E-02 -0.74342595746E-02 -0.14396224548E-01  0.17709020441E-01  0.00000000000E+00 0.  1.
     999901    1    3    3    0    0  0.98584052409E-01 -0.11915946245E-01  0.84453685173E-01  0.88960284965E+00  0.88000000000E+00 0. -1.
        -11    1    4    4    0    0 -0.92120482449E-01 -0.14291965797E-02 -0.51011433266E-01  0.10531217087E+00  0.51100000000E-03 0. -1.
         11    1    4    4    0    0 -0.13611290457E-01  0.20779402400E-01 -0.19046027359E-01  0.31305959036E-01  0.51100000000E-03 0.  1.
</event>
<event>
 8    1  0.2025822E+004  0.1043930E+01  0.7957747E-01            NaN
         13   -1    0    0    0    0  0.00000000000E+00  0.00000000000E+00  0.74505805969E-08  0.10566000000E+00  0.10566000000E+00 0. -1.
     999900   -1    0    0    0    0 -0.00000000000E+00 -0.00000000000E+00 -0.74505805969E-08  0.93827000000E+00  0.93827000000E+00 0. -1.
     999902    2    1    2    0    0 -0.91182782553E-02 -0.16471875781E-02 -0.10439496535E-01  0.10299715147E+01  0.10298769255E+01 0.  0.
     999903    2    3    3    0    0 -0.44862580000E-01  0.10189877379E+00 -0.73876123088E-01  0.14091379616E+00  0.44754946114E-01 0.  0.
         14    1    1    2    0    0  0.91182782553E-02  0.16471875781E-02  0.10439496535E-01  0.13958485346E-01  0.00000000000E+00 0. -1.
     999901    1    3    3    0    0  0.35744301745E-01 -0.10354596137E+00  0.63436626553E-01  0.88905771849E+00  0.88000000000E+00 0.  1.
        -11    1    4    4    0    0 -0.15169533796E-01  0.49875479082E-01 -0.95253804861E-02  0.52996907114E-01  0.51100000000E-03 0. -1.
         11    1    4    4    0    0 -0.29693046204E-01  0.52023294708E-01 -0.64350742602E-01  0.87916889047E-01  0.51100000000E-03 0.  1.
</event>
<event>
 8    1  0.2025822E+004  0.1043930E+01  0.7957747E-01            NaN
         13   -1    0    0    0    0  0.00000000000E+00  0.00000000000E+00  0.74505805969E-08  0.10566000000E+00  0.10566000000E+00 0. -1.
     999900   -1    0    0    0    0 -0.00000000000E+00 -0.00000000000E+00 -0.74505805969E-08  0.93827000000E+00  0.93827000000E+00 0. -1.
     999902    2    1    2    0    0  0.49653513999E-02  0.28034352405E-02  0.98339012549E-02  0.10325625211E+01  0.10324999469E+01 0.  0.
     999903    2    3    3    0    0  0.10279176668E+00  0.86583190907E-03 -0.86822032270E-01  0.14187956325E+00  0.44998313515E-01 0.  0.
         14    1    1    2    0    0 -0.49653513999E-02 -0.28034352405E-02 -0.98339012549E-02  0.11367478945E-01  0.00000000000E+00 0.  1.
     999901    1    3    3    0    0 -0.97826415281E-01  0.19376033314E-02  0.96655933525E-01  0.89068295780E+00  0.88000000000E+00 0. -1.
        -11    1    4    4    0    0  0.56875106654E-01  0.21374334544E-01 -0.37286611328E-01  0.71289497399E-01  0.51100000000E-03 0.  1.
         11    1    4    4    0    0  0.45916660026E-01 -0.20508502635E-01 -0.49535420942E-01  0.70590065854E-01  0.51100000000E-03 0. -1.
</event>
<event>
 8    1  0.2025822E+004  0.1043930E+01  0.7957747E-01            NaN
         13   -1    0    0    0    0  0.00000000000E+00  0.00000000000E+00  0.74505805969E-08  0.10566000000E+00  0.10566000000E+00 0. -1.
     999900   -1    0    0    0    0 -0.00000000000E+00 -0.00000000000E+00 -0.74505805969E-08  0.93827000000E+00  0.93827000000E+00 0.  1.
     999902    2    1    2    0    0 -0.35045956066E-02  0.20951325724E-02 -0.13238565489E-01  0.10300760696E+01  0.10299829017E+01 0.  0.
     999903    2    3    3    0    0 -0.86405218454E-01 -0.75875430480E-01  0.64447143146E-01  0.13935333425E+00  0.45199278540E-01 0.  0.
         14    1    1    2    0    0  0.35045956066E-02 -0.20951325724E-02  0.13238565489E-01  0.13853930384E-01  0.00000000000E+00 0. -1.
     999901    1    3    3    0    0  0.82900622847E-01  0.77970563052E-01 -0.77685708635E-01  0.89072273537E+00  0.88000000000E+00 0.  1.
        -11    1    4    4    0    0 -0.50727532856E-01 -0.16033112373E-01  0.20720418040E-01  0.57095885375E-01  0.51100000000E-03 0. -1.
         11    1    4    4    0    0 -0.35677685598E-01 -0.59842318107E-01  0.43726725106E-01  0.82257448876E-01  0.51100000000E-03 0.  1.
</event>
<event>
 8    1  0.2025822E+004  0.1043930E+01  0.7957747E-01            NaN
         13   -1    0    0    0    0  0.00000000000E+00  0.00000000000E+00  0.74505805969E-08  0.10566000000E+00  0.10566000000E+00 0. -1.
     999900   -1    0    0    0    0 -0.00000000000E+00 -0.00000000000E+00 -0.74505805969E-08  0.93827000000E+00  0.93827000000E+00 0.  1.
     999902    2    1    2    0    0 -0.72192462869E-03 -0.86107874217E-02  0.10851482722E-01  0.10300583919E+01  0.10299649844E+01 0.  0.
     999903    2    3    3    0    0  0.85281649031E-01 -0.70469521080E-01 -0.72710897232E-01  0.13977428610E+00  0.44844881729E-01 0.  0.
         14    1    1    2    0    0  0.72192462869E-03  0.86107874217E-02 -0.10851482722E-01  0.13871608143E-01  0.00000000000E+00 0.  1.
     999901    1    3    3    0    0 -0.86003573659E-01  0.61858733658E-01  0.83562379954E-01  0.89028410575E+00  0.88000000000E+00 0. -1.
        -11    1    4    4    0    0  0.35697175168E-01 -0.65144496634E-02 -0.35270853930E-01  0.50606527517E-01  0.51100000000E-03 0. -1.
         11    1    4    4    0    0  0.49584473863E-01 -0.63955071416E-01 -0.37440043302E-01  0.89167758587E-01  0.51100000000E-03 0.  1.
</event>
<event>
 8    1  0.2025822E+004  0.1043930E+01  0.7957747E-01            NaN
         13   -1    0    0    0    0  0.00000000000E+00  0.00000000000E+00  0.74505805969E-08  0.10566000000E+00  0.10566000000E+00 0.  1.
     999900   -1    0    0    0    0 -0.00000000000E+00 -0.00000000000E+00 -0.74505805969E-08  0.93827000000E+00  0.93827000000E+00 0.  1.
     999902    2    1    2    0    0 -0.20197244652E-02 -0.96481811068E-02 -0.83393306049E-02  0.10310183339E+01  0.10309374830E+01 0.  0.
     999903    2    3    3    0    0  0.80300041127E-01 -0.10203666775E+00 -0.35909462912E-01  0.14193324888E+00  0.44676385708E-01 0.  0.
         14    1    1    2    0    0  0.20197244652E-02  0.96481811068E-02  0.83393306049E-02  0.12911666063E-01  0.00000000000E+00 0.  1.
     999901    1    3    3    0    0 -0.82319765593E-01  0.92388486648E-01  0.27570132307E-01  0.88908508506E+00  0.88000000000E+00 0.  1.
        -11    1    4    4    0    0  0.40480021716E-01 -0.49163139148E-01 -0.40678344891E-01  0.75568745345E-01  0.51100000000E-03 0. -1.
         11    1    4    4    0    0  0.39820019411E-01 -0.52873528607E-01  0.47688819796E-02  0.66364503536E-01  0.51100000000E-03 0.  1.
</event>
<event>
 8    1  0.2025822E+004  0.1043930E+01  0.7957747E-01            NaN
         13   -1    0    0    0    0  0.00000000000E+00  0.00000000000E+00  0.74505805969E-08  0.10566000000E+00  0.10566000000E+00 0.  1.
     999900   -1    0    0    0    0 -0.00000000000E+00 -0.00000000000E+00 -0.74505805969E-08  0.93827000000E+00  0.93827000000E+00 0.  1.
     999902    2    1    2    0    0  0.79716230764E-02 -0.67049065733E-03 -0.11732518445E-01  0.10297297070E+01  0.10296317891E+01 0.  0.
     999903    2    3    3    0    0 -0.54327625382E-02 -0.12375352278E+00  0.44946613399E-01  0.13925700425E+00  0.45031831739E-01 0.  0.
         14    1    1    2    0    0 -0.79716230764E-02  0.67049065733E-03  0.11732518445E-01  0.14200292999E-01  0.00000000000E+00 0.  1.
     999901    1    3    3    0    0  0.13404385615E-01  0.12308303212E+00 -0.56679131844E-01  0.89047270275E+00  0.88000000000E+00 0.  1.
        -11    1    4    4    0    0  0.18631490886E-01 -0.68616616203E-01  0.18059968908E-01  0.73360725662E-01  0.51100000000E-03 0.  1.
         11    1    4    4    0    0 -0.24064253425E-01 -0.55136906574E-01  0.26886644491E-01  0.65896278593E-01  0.51100000000E-03 0. -1.
</event>
<event>
 8    1  0.2025822E+004  0.1043930E+01  0.7957747E-01            NaN
         13   -1    0    0    0    0  0.00000000000E+00  0.00000000000E+00  0.74505805969E-08  0.10566000000E+00  0.10566000000E+00 0.  1.
     999900   -1    0    0    0    0 -0.00000000000E+00 -0.00000000000E+00 -0.74505805969E-08  0.93827000000E+00  0.93827000000E+00 0.  1.
     999902    2    1    2    0    0  0.30111827810E-02 -0.87774595864E-02  0.88215595412E-02  0.10311264485E+01  0.10310469542E+01 0.  0.
     999903    2    3    3    0    0 -0.13020287467E+00 -0.49754608852E-02  0.24888886419E-01  0.14094747812E+00  0.47636027736E-01 0.  0.
         14    1    1    2    0    0 -0.30111827810E-02  0.87774595864E-02 -0.88215595412E-02  0.12803551510E-01  0.00000000000E+00 0. -1.
     999901    1    3    3    0    0  0.13321405745E+00 -0.38019987013E-02 -0.16067326878E-01  0.89017897037E+00  0.88000000000E+00 0.  1.
        -11    1    4    4    0    0 -0.79223937627E-01  0.13343096418E-01  0.31657581783E-01  0.86353541447E-01  0.51100000000E-03 0. -1.
         11    1    4    4    0    0 -0.50978937041E-01 -0.18318557304E-01 -0.67686953638E-02  0.54593936673E-01  0.51100000000E-03 0.  1.
</event>
<event>
 8    1  0.2025822E+004  0.1043930E+01  0.7957747E-01            NaN
         13   -1    0    0    0    0  0.00000000000E+00  0.00000000000E+00  0.74505805969E-08  0.10566000000E+00  0.10566000000E+00 0. -1.
     999900   -1    0    0    0    0 -0.00000000000E+00 -0.00000000000E+00 -0.74505805969E-08  0.93827000000E+00  0.93827000000E+00 0.  1.
     999902    2    1    2    0    0  0.98136209612E-03 -0.13492332301E-01  0.19523884109E-02  0.10302618647E+01  0.10301711954E+01 0.  0.
     999903    2    3    3    0    0  0.17888451622E-01  0.12902984021E+00  0.16501609849E-01  0.13851632969E+00  0.44110929458E-01 0.  0.
         14    1    1    2    0    0 -0.98136209612E-03  0.13492332301E-01 -0.19523884109E-02  0.13668135315E-01  0.00000000000E+00 0.  1.
     999901    1    3    3    0    0 -0.16907089526E-01 -0.14252217251E+00 -0.14549221438E-01  0.89174553499E+00  0.88000000000E+00 0.  1.
        -11    1    4    4    0    0  0.91699812142E-04  0.10366153751E+00  0.24478417754E-01  0.10651374008E+00  0.51100000000E-03 0.  1.
         11    1    4    4    0    0  0.17796751810E-01  0.25368302697E-01 -0.79768079050E-02  0.32002589615E-01  0.51100000000E-03 0. -1.
</event>
<event>
 8    1  0.2025822E+004  0.1043930E+01  0.7957747E-01            NaN
         13   -1    0    0    0    0  0.00000000000E+00  0.00000000000E+00  0.74505805969E-08  0.10566000000E+00  0.10566000000E+00 0.  1.
     999900   -1    0    0    0    0 -0.00000000000E+00 -0.00000000000E+00 -0.74505805969E-08  0.93827000000E+00  0.93827000000E+00 0.  1.
     999902    2    1    2    0    0 -0.17496004170E-01  0.95559682554E-03  0.15738128756E-01  0.10203776748E+01  0.10201058215E+01 0.  0.
     999903    2    3    3    0    0 -0.12355531114E+00 -0.24139585099E-01 -0.78230019880E-02  0.13334133299E+00  0.43244389725E-01 0.  0.
         14    1    1    2    0    0  0.17496004170E-01 -0.95559682554E-03 -0.15738128756E-01  0.23552325234E-01  0.00000000000E+00 0. -1.
     999901    1    3    3    0    0  0.10605930697E+00  0.25095181924E-01  0.23561130744E-01  0.88703634178E+00  0.88000000000E+00 0.  1.
        -11    1    4    4    0    0 -0.53462837435E-01  0.74814706073E-02 -0.15217371687E-01  0.56089900259E-01  0.51100000000E-03 0. -1.
         11    1    4    4    0    0 -0.70092473708E-01 -0.31621055706E-01  0.73943696995E-02  0.77251432729E-01  0.51100000000E-03 0.  1.
</event>
<event>
 8    1  0.2025822E+004  0.1043930E+01  0.7957747E-01            NaN
         13   -1    0    0    0    0  0.00000000000E+00  0.00000000000E+00  0.74505805969E-08  0.10566000000E+00  0.10566000000E+00 0.  1.
     999900   -1    0    0    0    0 -0.00000000000E+00 -0.00000000000E+00 -0.74505805969E-08  0.93827000000E+00  0.93827000000E+00 0.  1.
     999902    2    1    2    0    0 -0.91568758712E-02  0.45540327777E-02  0.52799284891E-03  0.10336895719E+01  0.10336388464E+01 0.  0.
     999903    2    3    3    0    0  0.10721370302E+00 -0.82749308843E-01 -0.51598728914E-02  0.14172750050E+00  0.41446759578E-01 0.  0.
         14    1    1    2    0    0  0.91568758712E-02 -0.45540327777E-02 -0.52799284891E-03  0.10240428053E-01  0.00000000000E+00 0.  1.
     999901    1    3    3    0    0 -0.11637057889E+00  0.87303341620E-01  0.56878657404E-02  0.89196207145E+00  0.88000000000E+00 0.  1.
        -11    1    4    4    0    0  0.58842588269E-01 -0.30614992429E-01  0.14586761549E-01  0.67917322452E-01  0.51100000000E-03 0.  1.
         11    1    4    4    0    0  0.48371114751E-01 -0.52134316413E-01 -0.19746634440E-01  0.73810178044E-01  0.51100000000E-03 0. -1.
</event>
<event>
 8    1  0.2025822E+004  0.1043930E+01  0.7957747E-01            NaN
         13   -1    0    0    0    0  0.00000000000E+00  0.00000000000E+00  0.74505805969E-08  0.10566000000E+00  0.10566000000E+00 0.  1.
     999900   -1    0    0    0    0 -0.00000000000E+00 -0.00000000000E+00 -0.74505805969E-08  0.93827000000E+00  0.93827000000E+00 0. -1.
     999902    2    1    2    0    0 -0.66493627455E-02  0.56105023408E-02  0.97408161523E-02  0.10308695536E+01  0.10307868166E+01 0.  0.
     999903    2    3    3    0    0  0.93509067112E-01 -0.30704536790E-02  0.95865255539E-01  0.14096816065E+00  0.43914710297E-01 0.  0.
         14    1    1    2    0    0  0.66493627455E-02 -0.56105023408E-02 -0.97408161523E-02  0.13060446422E-01  0.00000000000E+00 0.  1.
     999901    1    3    3    0    0 -0.10015842986E+00  0.86809560198E-02 -0.86124439387E-01  0.88990139292E+00  0.88000000000E+00 0. -1.
        -11    1    4    4    0    0  0.72337527395E-02  0.11716513901E-01  0.24161321501E-01  0.27814285078E-01  0.51100000000E-03 0.  1.
         11    1    4    4    0    0  0.86275314373E-01 -0.14786967580E-01  0.71703934037E-01  0.11315387558E+00  0.51100000000E-03 0. -1.
</event>
<event>
 8    1  0.2025822E+004  0.1043930E+01  0.7957747E-01            NaN
         13   -1    0    0    0    0  0.00000000000E+00  0.00000000000E+00  0.74505805969E-08  0.10566000000E+00  0.10566000000E+00 0.  1.
     999900   -1    0    0    0    0 -0.00000000000E+00 -0.00000000000E+00 -0.74505805969E-08  0.93827000000E+00  0.93827000000E+00 0. -1.
     999902    2    1    2    0    0 -0.11259018408E-02 -0.11515626831E-01 -0.75243059301E-02  0.10301280981E+01  0.10300356334E+01 0.  0.
     999903    2    3    3    0    0 -0.52934011631E-01  0.27709393637E-01  0.11697799173E+00  0.13899202286E+00  0.45443501040E-01 0.  0.
         14    1    1    2    0    0  0.11259018408E-02  0.11515626831E-01  0.75243059301E-02  0.13801901898E-01  0.00000000000E+00 0.  1.
     999901    1    3    3    0    0  0.51808109791E-01 -0.39225020469E-01 -0.12450229766E+00  0.89113607524E+00  0.88000000000E+00 0. -1.
        -11    1    4    4    0    0  0.24037862428E-02  0.14562448327E-01  0.10009700636E-01  0.17840916944E-01  0.51100000000E-03 0.  1.
         11    1    4    4    0    0 -0.55337797874E-01  0.13146945310E-01  0.10696829109E+00  0.12115110592E+00  0.51100000000E-03 0. -1.
</event>
<event>
 8    1  0.2025822E+004  0.1043930E+01  0.7957747E-01            NaN
         13   -1    0    0    0    0  0.00000000000E+00  0.00000000000E+00  0.74505805969E-08  0.10566000000E+00  0.10566000000E+00 0.  1.
     999900   -1    0    0    0    0 -0.00000000000E+00 -0.00000000000E+00 -0.74505805969E-08  0.93827000000E+00  0.93827000000E+00 0. -1.
     999902    2    1    2    0    0  0.20702583132E-01  0.54820458117E-02  0.27625324228E-02  0.10223364510E+01  0.10221083786E+01 0.  0.
     999903    2    3    3    0    0 -0.10221656193E+00  0.61401250611E-01  0.33817278987E-01  0.13149388857E+00  0.43916913190E-01 0.  0.
         14    1    1    2    0    0 -0.20702583132E-01 -0.54820458117E-02 -0.27625324228E-02  0.21593549037E-01  0.00000000000E+00 0.  1.
     999901    1    3    3    0    0  0.12291914506E+00 -0.55919204800E-01 -0.31054746564E-01  0.89084256239E+00  0.88000000000E+00 0.  1.
        -11    1    4    4    0    0 -0.62839613322E-02  0.95460954548E-02 -0.87766970439E-02  0.14419002755E-01  0.51100000000E-03 0. -1.
         11    1    4    4    0    0 -0.95932600595E-01  0.51855155156E-01  0.42593976031E-01  0.11707488581E+00  0.51100000000E-03 0.  1.
</event>
<event>
 8    1  0.2025822E+004  0.1043930E+01  0.7957747E-01            NaN
         13   -1    0    0    0    0  0.00000000000E+00  0.00000000000E+00  0.74505805969E-08  0.10566000000E+00  0.10566000000E+00 0.  1.
     999900   -1    0    0    0    0 -0.00000000000E+00 -0.00000000000E+00 -0.74505805969E-08  0.93827000000E+00  0.93827000000E+00 0. -1.
     999902    2    1    2    0    0 -0.11658354818E-01  0.70084756557E-02  0.50832952795E-02  0.10294084347E+01  0.10293060038E+01 0.  0.
     999903    2    3    3    0    0 -0.39660934243E-01  0.67445612066E-01 -0.10721564875E+00  0.13977488949E+00  0.43816938541E-01 0.  0.
         14    1    1    2    0    0  0.11658354818E-01 -0.70084756557E-02 -0.50832952795E-02  0.14521565307E-01  0.00000000000E+00 0. -1.
     999901    1    3    3    0    0  0.28002579426E-01 -0.60437136411E-01  0.11229894403E+00  0.88963354520E+00  0.88000000000E+00 0.  1.
        -11    1    4    4    0    0 -0.33000100228E-01  0.26802869973E-01 -0.79422715768E-01  0.90086787903E-01  0.51100000000E-03 0. -1.
         11    1    4    4    0    0 -0.66608340155E-02  0.40642742094E-01 -0.27792932987E-01  0.49688101591E-01  0.51100000000E-03 0.  1.
</event>
<event>
 8    1  0.2025822E+004  0.1043930E+01  0.7957747E-01            NaN
         13   -1    0    0    0    0  0.00000000000E+00  0.00000000000E+00  0.74505805969E-08  0.10566000000E+00  0.10566000000E+00 0. -1.
     999900   -1    0    0    0    0 -0.00000000000E+00 -0.00000000000E+00 -0.74505805969E-08  0.93827000000E+00  0.93827000000E+00 0. -1.
     999902    2    1    2    0    0  0.92385965356E-03 -0.70123962066E-02  0.61021622228E-02  0.10345885011E+01  0.10345463272E+01 0.  0.
     999903    2    3    3    0    0 -0.11337501216E+00  0.72793271945E-01  0.79434014817E-03  0.14359952829E+00  0.49673330118E-01 0.  0.
         14    1    1    2    0    0 -0.92385965356E-03  0.70123962066E-02 -0.61021622228E-02  0.93414988632E-02  0.00000000000E+00 0.  1.
     999901    1    3    3    0    0  0.11429887181E+00 -0.79805668151E-01  0.53078220746E-02  0.89098897285E+00  0.88000000000E+00 0.  1.
        -11    1    4    4    0    0 -0.49551697627E-01  0.30412210528E-01 -0.24247768328E-01  0.62995941749E-01  0.51100000000E-03 0. -1.
         11    1    4    4    0    0 -0.63823314532E-01  0.42381061417E-01  0.25042108476E-01  0.80603586537E-01  0.51100000000E-03 0.  1.
</event>
<event>
 8    1  0.2025822E+004  0.1043930E+01  0.7957747E-01            NaN
         13   -1    0    0    0    0  0.00000000000E+00  0.00000000000E+00  0.74505805969E-08  0.10566000000E+00  0.10566000000E+00 0. -1.
     999900   -1    0    0    0    0 -0.00000000000E+00 -0.00000000000E+00 -0.74505805969E-08  0.93827000000E+00  0.93827000000E+00 0.  1.
     999902    2    1    2    0    0  0.13088965967E-02  0.12285410824E-01  0.84759709581E-02  0.10289471227E+01  0.10288380313E+01 0.  0.
     999903    2    3    3    0    0  0.53138432413E-01 -0.85263471514E-01  0.84546818391E-01  0.13878485709E+00  0.44939064125E-01 0.  0.
         14    1    1    2    0    0 -0.13088965967E-02 -0.12285410824E-01 -0.84759709581E-02  0.14982877330E-01  0.00000000000E+00 0.  1.
     999901    1    3    3    0    0 -0.51829535816E-01  0.97548882338E-01 -0.76070847433E-01  0.89016226558E+00  0.88000000000E+00 0. -1.
        -11    1    4    4    0    0  0.26861148833E-01 -0.63729390561E-01  0.31988884519E-01  0.76200435640E-01  0.51100000000E-03 0. -1.
         11    1    4    4    0    0  0.26277283579E-01 -0.21534080953E-01  0.52557933871E-01  0.62584421453E-01  0.51100000000E-03 0.  1.
</event>
<event>
 8    1  0.2025822E+004  0.1043930E+01  0.7957747E-01            NaN
         13   -1    0    0    0    0  0.00000000000E+00  0.00000000000E+00  0.74505805969E-08  0.10566000000E+00  0.10566000000E+00 0.  1.
     999900   -1    0    0    0    0 -0.00000000000E+00 -0.00000000000E+00 -0.74505805969E-08  0.93827000000E+00  0.93827000000E+00 0.  1.
     999902    2    1    2    0    0 -0.10288573668E-01  0.51523139816E-02 -0.71761405247E-02  0.10303690974E+01  0.10302798546E+01 0.  0.
     999903    2    3    3    0    0 -0.11962302681E-01 -0.13148127847E+00  0.15569668354E-01  0.13953302278E+00  0.42386632315E-01 0.  0.
         14    1    1    2    0    0  0.10288573668E-01 -0.51523139816E-02  0.71761405247E-02  0.13560902637E-01  0.00000000000E+00 0.  1.
     999901    1    3    3    0    0  0.16737290125E-02  0.13663359246E+00 -0.22745808878E-01  0.89083607458E+00  0.88000000000E+00 0. -1.
        -11    1    4    4    0    0 -0.17423048767E-01 -0.48696361266E-01  0.22236090847E-01  0.56299228112E-01  0.51100000000E-03 0.  1.
         11    1    4    4    0    0  0.54607460864E-02 -0.82784917209E-01 -0.66664224932E-02  0.83233794669E-01  0.51100000000E-03 0. -1.
</event>
<event>
 8    1  0.2305642E+004  0.1043930E+01  0.7957747E-01            NaN
         13   -1    0    0    0    0  0.00000000000E+00  0.00000000000E+00  0.74505805969E-08  0.10566000000E+00  0.10566000000E+00 0.  1.
     999900   -1    0    0    0    0 -0.00000000000E+00 -0.00000000000E+00 -0.74505805969E-08  0.93827000000E+00  0.93827000000E+00 0.  1.
     999902    2    1    2    0    0  0.34352244238E-02 -0.95455981688E-02  0.98845761264E-02  0.10297658178E+01  0.10296684008E+01 0.  0.
     999903    2    3    3    0    0  0.15785045170E-01  0.93382518383E-02  0.13290736498E+00  0.14092177952E+00  0.43106956266E-01 0.  0.
         14    1    1    2    0    0 -0.34352244238E-02  0.95455981688E-02 -0.98845761264E-02  0.14164182166E-01  0.00000000000E+00 0. -1.
     999901    1    3    3    0    0 -0.12349820746E-01 -0.18883850007E-01 -0.12302278886E+00  0.88884403831E+00  0.88000000000E+00 0.  1.
        -11    1    4    4    0    0  0.25649505221E-01  0.16969779638E-01  0.65428638773E-01  0.72298260227E-01  0.51100000000E-03 0.  1.
         11    1    4    4    0    0 -0.98644600510E-02 -0.76315277995E-02  0.67478726210E-01  0.68623519296E-01  0.51100000000E-03 0. -1.
</event>
<event>
 8    1  0.2025822E+004  0.1043930E+01  0.7957747E-01            NaN
         13   -1    0    0    0    0  0.00000000000E+00  0.00000000000E+00  0.74505805969E-08  0.10566000000E+00  0.10566000000E+00 0.  1.
     999900   -1    0    0    0    0 -0.00000000000E+00 -0.00000000000E+00 -0.74505805969E-08  0.93827000000E+00  0.93827000000E+00 0.  1.
     999902    2    1    2    0    0  0.34292189988E-02  0.13493607073E-01 -0.44263074252E-04  0.10300073949E+01  0.10299132947E+01 0.  0.
     999903    2    3    3    0    0 -0.86841688277E-01  0.70430033691E-01 -0.74158006977E-01  0.14046625449E+00  0.41587139621E-01 0.  0.
         14    1    1    2    0    0 -0.34292189988E-02 -0.13493607073E-01  0.44263074252E-04  0.13922605144E-01  0.00000000000E+00 0.  1.
     999901    1    3    3    0    0  0.90270907275E-01 -0.56936426618E-01  0.74113743903E-01  0.88954114037E+00  0.88000000000E+00 0. -1.
        -11    1    4    4    0    0 -0.59854204411E-01  0.27851565521E-01 -0.26650155521E-01  0.71194995596E-01  0.51100000000E-03 0. -1.
         11    1    4    4    0    0 -0.26987483865E-01  0.42578468170E-01 -0.47507851457E-01  0.69271258889E-01  0.51100000000E-03 0.  1.
</event>
<event>
 8    1  0.2025822E+004  0.1043930E+01  0.7957747E-01            NaN
         13   -1    0    0    0    0  0.00000000000E+00  0.00000000000E+00  0.74505805969E-08  0.10566000000E+00  0.10566000000E+00 0.  1.
     999900   -1    0    0    0    0 -0.00000000000E+00 -0.00000000000E+00 -0.74505805969E-08  0.93827000000E+00  0.93827000000E+00 0. -1.
     999902    2    1    2    0    0  0.47938244546E-02 -0.10477191656E-01 -0.49312354245E-03  0.10323976339E+01  0.10323332209E+01 0.  0.
     999903    2    3    3    0    0  0.99787503283E-02 -0.13174232345E+00  0.29385376225E-01  0.14356421843E+00  0.47870337696E-01 0.  0.
         14    1    1    2    0    0 -0.47938244546E-02  0.10477191656E-01  0.49312354245E-03  0.11532366138E-01  0.00000000000E+00 0. -1.
     999901    1    3    3    0    0 -0.51849258737E-02  0.12126513179E+00 -0.29878499768E-01  0.88883341543E+00  0.88000000000E+00 0. -1.
        -11    1    4    4    0    0 -0.11377008602E-01 -0.53952115369E-01 -0.60160688722E-02  0.55468200649E-01  0.51100000000E-03 0.  1.
         11    1    4    4    0    0  0.21355758930E-01 -0.77790208079E-01  0.35401445098E-01  0.88096017779E-01  0.51100000000E-03 0. -1.
</event>
<event>
 8    1  0.2025822E+004  0.1043930E+01  0.7957747E-01            NaN
         13   -1    0    0    0    0  0.00000000000E+00  0.00000000000E+00  0.74505805969E-08  0.10566000000E+00  0.10566000000E+00 0.  1.
     999900   -1    0    0    0    0 -0.00000000000E+00 -0.00000000000E+00 -0.74505805969E-08  0.93827000000E+00  0.93827000000E+00 0. -1.
     999902    2    1    2    0    0 -0.69414784018E-02 -0.11203904920E-01  0.12620421996E-02  0.10306897448E+01  0.10306046990E+01 0.  0.
     999903    2    3    3    0    0  0.51693450208E-01  0.38491452480E-01  0.11608262622E+00  0.13990837434E+00  0.44106375884E-01 0.  0.
         14    1    1    2    0    0  0.69414784018E-02  0.11203904920E-01 -0.12620421996E-02  0.13240255223E-01  0.00000000000E+00 0.  1.
     999901    1    3    3    0    0 -0.58634928610E-01 -0.49695357400E-01 -0.11482058402E+00  0.89078137043E+00  0.88000000000E+00 0. -1.
        -11    1    4    4    0    0  0.31366422320E-01  0.37469956000E-01  0.46677583525E-01  0.67578901859E-01  0.51100000000E-03 0.  1.
         11    1    4    4    0    0  0.20327027888E-01  0.10214964804E-02  0.69405042690E-01  0.72329472483E-01  0.51100000000E-03 0. -1.
</event>
<event>
 8    1  0.2025822E+004  0.1043930E+01  0.7957747E-01            NaN
         13   -1    0    0    0    0  0.00000000000E+00  0.00000000000E+00  0.74505805969E-08  0.10566000000E+00  0.10566000000E+00 0.  1.
     999900   -1    0    0    0    0 -0.00000000000E+00 -0.00000000000E+00 -0.74505805969E-08  0.93827000000E+00  0.93827000000E+00 0. -1.
     999902    2    1    2    0    0 -0.10548045076E-01 -0.87570648270E-02 -0.41931418013E-02  0.10295936868E+01  0.10294938708E+01 0.  0.
     999903    2    3    3    0    0 -0.54869068074E-01 -0.50142716073E-01  0.10970443032E+00  0.14018389248E+00  0.45733522415E-01 0.  0.
         14    1    1    2    0    0  0.10548045076E-01  0.87570648270E-02  0.41931418013E-02  0.14336313246E-01  0.00000000000E+00 0.  1.
     999901    1    3    3    0    0  0.44321022998E-01  0.41385651246E-01 -0.11389757213E+00  0.88940979427E+00  0.88000000000E+00 0. -1.
        -11    1    4    4    0    0 -0.12855014422E-01 -0.51085345833E-02  0.58416740327E-01  0.60034366764E-01  0.51100000000E-03 0. -1.
         11    1    4    4    0    0 -0.42014053652E-01 -0.45034181490E-01  0.51287689998E-01  0.80149525719E-01  0.51100000000E-03 0.  1.
</event>
<event>
 8    1  0.2025822E+004  0.1043930E+01  0.7957747E-01            NaN
         13   -1    0    0    0    0  0.00000000000E+00  0.00000000000E+00  0.74505805969E-08  0.10566000000E+00  0.10566000000E+00 0.  1.
     999900   -1    0    0    0    0 -0.00000000000E+00 -0.00000000000E+00 -0.74505805969E-08  0.93827000000E+00  0.93827000000E+00 0.  1.
     999902    2    1    2    0    0 -0.20502258241E-02  0.28432571282E-02  0.13817280132E-01  0.10296750090E+01  0.10295763301E+01 0.  0.
     999903    2    3    3    0    0  0.12061753218E-01  0.13077308651E+00  0.20749256921E-01  0.14028575708E+00  0.44749032743E-01 0.  0.
         14    1    1    2    0    0  0.20502258241E-02 -0.28432571282E-02 -0.13817280132E-01  0.14254990960E-01  0.00000000000E+00 0. -1.
     999901    1    3    3    0    0 -0.14111979042E-01 -0.12792982938E+00 -0.69319767885E-02  0.88938925196E+00  0.88000000000E+00 0.  1.
        -11    1    4    4    0    0  0.13325091812E-01  0.15316716379E-01 -0.70942986744E-02  0.21511626324E-01  0.51100000000E-03 0.  1.
         11    1    4    4    0    0 -0.12633385938E-02  0.11545637013E+00  0.27843555595E-01  0.11877413076E+00  0.51100000000E-03 0. -1.
</event>
<event>
 8    1  0.2025822E+004  0.1043930E+01  0.7957747E-01            NaN
         13   -1    0    0    0    0  0.00000000000E+00  0.00000000000E+00  0.74505805969E-08  0.10566000000E+00  0.10566000000E+00 0.  1.
     999900   -1    0    0    0    0 -0.00000000000E+00 -0.00000000000E+00 -0.74505805969E-08  0.93827000000E+00  0.93827000000E+00 0.  1.
     999902    2    1    2    0    0  0.97230903022E-02 -0.66112872801E-02 -0.77954086814E-02  0.10298226969E+01  0.10297260660E+01 0.  0.
     999903    2    3    3    0    0  0.23095216368E-01  0.11964851546E+00 -0.51112225478E-01  0.13965602814E+00  0.45190600027E-01 0.  0.
         14    1    1    2    0    0 -0.97230903022E-02  0.66112872801E-02  0.77954086814E-02  0.14107303110E-01  0.00000000000E+00 0.  1.
     999901    1    3    3    0    0 -0.13372126066E-01 -0.12625980274E+00  0.43316816796E-01  0.89016666875E+00  0.88000000000E+00 0. -1.
        -11    1    4    4    0    0 -0.12542582142E-01  0.32167787541E-01 -0.62891761456E-02  0.35098401384E-01  0.51100000000E-03 0.  1.
         11    1    4    4    0    0  0.35637798510E-01  0.87480727918E-01 -0.44823049332E-01  0.10455762675E+00  0.51100000000E-03 0. -1.
</event>
<event>
 8    1  0.2025822E+004  0.1043930E+01  0.7957747E-01            NaN
         13   -1    0    0    0    0  0.00000000000E+00  0.00000000000E+00  0.74505805969E-08  0.10566000000E+00  0.10566000000E+00 0. -1.
     999900   -1    0    0    0    0 -0.00000000000E+00 -0.00000000000E+00 -0.74505805969E-08  0.93827000000E+00  0.93827000000E+00 0. -1.
     999902    2    1    2    0    0 -0.66555994730E-02  0.12547930331E-02 -0.12158668606E-01  0.10300122153E+01  0.10299181807E+01 0.  0.
     999903    2    3    3    0    0 -0.10406559603E+00 -0.78970155814E-01  0.23747715719E-01  0.14028528058E+00  0.45277722553E-01 0.  0.
         14    1    1    2    0    0  0.66555994730E-02 -0.12547930331E-02  0.12158668606E-01  0.13917784743E-01  0.00000000000E+00 0. -1.
     999901    1    3    3    0    0  0.97409996560E-01  0.80224948847E-01 -0.35906384325E-01  0.88972693467E+00  0.88000000000E+00 0.  1.
        -11    1    4    4    0    0 -0.80735249480E-01 -0.62834332972E-01  0.37234529556E-01  0.10887150785E+00  0.51100000000E-03 0.  1.
         11    1    4    4    0    0 -0.23330346554E-01 -0.16135822842E-01 -0.13486813837E-01  0.31413772737E-01  0.51100000000E-03 0. -1.
</event>
<event>
 8    1  0.2025822E+004  0.1043930E+01  0.7957747E-01            NaN
         13   -1    0    0    0    0  0.00000000000E+00  0.00000000000E+00  0.74505805969E-08  0.10566000000E+00  0.10566000000E+00 0. -1.
     999900   -1    0    0    0    0 -0.00000000000E+00 -0.00000000000E+00 -0.74505805969E-08  0.93827000000E+00  0.93827000000E+00 0.  1.
     999902    2    1    2    0    0 -0.39324960123E-02 -0.33391227544E-02 -0.62126443862E-02  0.10358546538E+01  0.10358231763E+01 0.  0.
     999903    2    3    3    0    0  0.11537717747E+00 -0.65950751266E-01  0.35176955235E-01  0.14463744507E+00  0.44957509552E-01 0.  0.
         14    1    1    2    0    0  0.39324960123E-02  0.33391227544E-02  0.62126443862E-02  0.80753461799E-02  0.00000000000E+00 0. -1.
     999901    1    3    3    0    0 -0.11930967348E+00  0.62611628511E-01 -0.41389599621E-01  0.89121720875E+00  0.88000000000E+00 0. -1.
        -11    1    4    4    0    0  0.82520165880E-01 -0.24343306918E-01  0.31008657234E-01  0.91454755551E-01  0.51100000000E-03 0.  1.
         11    1    4    4    0    0  0.32857011586E-01 -0.41607444348E-01  0.41682980004E-02  0.53182689522E-01  0.51100000000E-03 0. -1.
</event>
<event>
 8    1  0.2025822E+004  0.1043930E+01  0.7957747E-01            NaN
         13   -1    0    0    0    0  0.00000000000E+00  0.00000000000E+00  0.74505805969E-08  0.10566000000E+00  0.10566000000E+00 0.  1.
     999900   -1    0    0    0    0 -0.00000000000E+00 -0.00000000000E+00 -0.74505805969E-08  0.93827000000E+00  0.93827000000E+00 0. -1.
     999902    2    1    2    0    0  0.14403160268E-01 -0.10209248713E-04 -0.13246505466E-02  0.10294660507E+01  0.10293644368E+01 0.  0.
     999903    2    3    3    0    0  0.15197090143E-01 -0.37127300320E-01  0.12441135156E+00  0.13975382139E+00  0.49432360037E-01 0.  0.
         14    1    1    2    0    0 -0.14403160268E-01  0.10209248713E-04  0.13246505466E-02  0.14463949288E-01  0.00000000000E+00 0.  1.
     999901    1    3    3    0    0 -0.79392987529E-03  0.37117091071E-01 -0.12573600211E+00  0.88971222932E+00  0.88000000000E+00 0. -1.
        -11    1    4    4    0    0 -0.62620859546E-02 -0.65697254162E-02  0.84909230926E-01  0.85394459012E-01  0.51100000000E-03 0. -1.
         11    1    4    4    0    0  0.21459176097E-01 -0.30557574904E-01  0.39502120635E-01  0.54359362381E-01  0.51100000000E-03 0.  1.
</event>
<event>
 8    1  0.2025822E+004  0.1043930E+01  0.7957747E-01            NaN
         13   -1    0    0    0    0  0.00000000000E+00  0.00000000000E+00  0.74505805969E-08  0.10566000000E+00  0.10566000000E+00 0. -1.
     999900   -1    0    0    0    0 -0.00000000000E+00 -0.00000000000E+00 -0.74505805969E-08  0.93827000000E+00  0.93827000000E+00 0.  1.
     999902    2    1    2    0    0  0.39695121317E-02 -0.13233524688E-01  0.12101610985E-01  0.10255633947E+01  0.10253989196E+01 0.  0.
     999903    2    3    3    0    0  0.10831796474E+00 -0.39895092808E-01  0.60102139222E-01  0.13769882760E+00  0.44992222302E-01 0.  0.
         14    1    1    2    0    0 -0.39695121317E-02  0.13233524688E-01 -0.12101610985E-01  0.18366605311E-01  0.00000000000E+00 0.  1.
     999901    1    3    3    0    0 -0.10434845261E+00  0.26661568120E-01 -0.48000528237E-01  0.88786456709E+00  0.88000000000E+00 0. -1.
        -11    1    4    4    0    0  0.26542477867E-01  0.20856854949E-02  0.31884807569E-01  0.41542210942E-01  0.51100000000E-03 0.  1.
         11    1    4    4    0    0  0.81775486876E-01 -0.41980778303E-01  0.28217331654E-01  0.96156616660E-01  0.51100000000E-03 0. -1.
</event>
<event>
 8    1  0.2025822E+004  0.1043930E+01  0.7957747E-01            NaN
         13   -1    0    0    0    0  0.00000000000E+00  0.00000000000E+00  0.74505805969E-08  0.10566000000E+00  0.10566000000E+00 0.  1.
     999900   -1    0    0    0    0 -0.00000000000E+00 -0.00000000000E+00 -0.74505805969E-08  0.93827000000E+00  0.93827000000E+00 0.  1.
     999902    2    1    2    0    0  0.14877254812E-01  0.12624560490E-01 -0.10710131952E-02  0.10243887793E+01  0.10242023783E+01 0.  0.
     999903    2    3    3    0    0  0.73323503723E-01  0.10157867317E+00 -0.34256727405E-01  0.13735434375E+00  0.44700439955E-01 0.  0.
         14    1    1    2    0    0 -0.14877254812E-01 -0.12624560490E-01  0.10710131952E-02  0.19541220728E-01  0.00000000000E+00 0. -1.
     999901    1    3    3    0    0 -0.58446248912E-01 -0.88954112684E-01  0.33185714210E-01  0.88703443552E+00  0.88000000000E+00 0.  1.
        -11    1    4    4    0    0  0.12143653642E-01  0.27051316193E-01  0.99483416336E-02  0.31280547531E-01  0.51100000000E-03 0.  1.
         11    1    4    4    0    0  0.61179850081E-01  0.74527356981E-01 -0.44205069038E-01  0.10607379622E+00  0.51100000000E-03 0. -1.
</event>
<event>
 8    1  0.2025822E+004  0.1043930E+01  0.7957747E-01            NaN
         13   -1    0    0    0    0  0.00000000000E+00  0.00000000000E+00  0.74505805969E-08  0.10566000000E+00  0.10566000000E+00 0.  1.
     999900   -1    0    0    0    0 -0.00000000000E+00 -0.00000000000E+00 -0.74505805969E-08  0.93827000000E+00  0.93827000000E+00 0.  1.
     999902    2    1    2    0    0  0.83460708723E-02  0.23091053692E-02 -0.11157184573E-01  0.10298065573E+01  0.10297097036E+01 0.  0.
     999903    2    3    3    0    0 -0.11257846530E+00 -0.30371067818E-01  0.58775228448E-01  0.13818933024E+00  0.45226661427E-01 0.  0.
         14    1    1    2    0    0 -0.83460708723E-02 -0.23091053692E-02  0.11157184573E-01  0.14123442718E-01  0.00000000000E+00 0.  1.
     999901    1    3    3    0    0  0.12092453617E+00  0.32680173188E-01 -0.69932413021E-01  0.89161722704E+00  0.88000000000E+00 0.  1.
        -11    1    4    4    0    0 -0.88502619517E-01 -0.18584516825E-01  0.64109272588E-01  0.11085286591E+00  0.51100000000E-03 0.  1.
         11    1    4    4    0    0 -0.24075845781E-01 -0.11786550993E-01 -0.53340441394E-02  0.27336464333E-01  0.51100000000E-03 0. -1.
</event>
<event>
 8    1  0.2025822E+004  0.1043930E+01  0.7957747E-01            NaN
         13   -1    0    0    0    0  0.00000000000E+00  0.00000000000E+00  0.74505805969E-08  0.10566000000E+00  0.10566000000E+00 0.  1.
     999900   -1    0    0    0    0 -0.00000000000E+00 -0.00000000000E+00 -0.74505805969E-08  0.93827000000E+00  0.93827000000E+00 0.  1.
     999902    2    1    2    0    0 -0.57815014520E-02 -0.12465405843E-01  0.91099141960E-03  0.10301589431E+01  0.10300668940E+01 0.  0.
     999903    2    3    3    0    0  0.11569463146E+00 -0.23847595654E-01 -0.59513686688E-01  0.13968876012E+00  0.44912306044E-01 0.  0.
         14    1    1    2    0    0  0.57815014520E-02  0.12465405843E-01 -0.91099141960E-03  0.13771056867E-01  0.00000000000E+00 0. -1.
     999901    1    3    3    0    0 -0.12147613291E+00  0.11382189811E-01  0.60424678107E-01  0.89047018301E+00  0.88000000000E+00 0.  1.
        -11    1    4    4    0    0  0.30502144292E-01  0.82952170755E-02 -0.30989454038E-01  0.44269615035E-01  0.51100000000E-03 0. -1.
         11    1    4    4    0    0  0.85192487165E-01 -0.32142812729E-01 -0.28524232649E-01  0.95419145085E-01  0.51100000000E-03 0.  1.
</event>
<event>
 8    1  0.2025822E+004  0.1043930E+01  0.7957747E-01            NaN
         13   -1    0    0    0    0  0.00000000000E+00  0.00000000000E+00  0.74505805969E-08  0.10566000000E+00  0.10566000000E+00 0.  1.
     999900   -1    0    0    0    0 -0.00000000000E+00 -0.00000000000E+00 -0.74505805969E-08  0.93827000000E+00  0.93827000000E+00 0.  1.
     999902    2    1    2    0    0  0.11155886476E-01  0.22104242697E-02 -0.85235790828E-02  0.10297176399E+01  0.10296195544E+01 0.  0.
     999903    2    3    3    0    0 -0.12819716935E+00 -0.15947745471E-01  0.17782786851E-01  0.13817907195E+00  0.45698835894E-01 0.  0.
         14    1    1    2    0    0 -0.11155886476E-01 -0.22104242697E-02  0.85235790828E-02  0.14212360075E-01  0.00000000000E+00 0.  1.
     999901    1    3    3    0    0  0.13935305583E+00  0.18158169740E-01 -0.26306365934E-01  0.89153856797E+00  0.88000000000E+00 0. -1.
        -11    1    4    4    0    0 -0.78041843652E-01 -0.22813559481E-01 -0.73818435991E-02  0.81643986874E-01  0.51100000000E-03 0. -1.
         11    1    4    4    0    0 -0.50155325698E-01  0.68658140107E-02  0.25164630451E-01  0.56535085077E-01  0.51100000000E-03 0.  1.
</event>
<event>
 8    1  0.2025822E+004  0.1043930E+01  0.7957747E-01            NaN
         13   -1    0    0    0    0  0.00000000000E+00  0.00000000000E+00  0.74505805969E-08  0.10566000000E+00  0.10566000000E+00 0.  1.
     999900   -1    0    0    0    0 -0.00000000000E+00 -0.00000000000E+00 -0.74505805969E-08  0.93827000000E+00  0.93827000000E+00 0.  1.
     999902    2    1    2    0    0 -0.16186571486E-02  0.28884795134E-02  0.13273826584E-01  0.10302494358E+01  0.10301586005E+01 0.  0.
     999903    2    3    3    0    0  0.12143068781E+00 -0.39705626848E-01  0.30435529887E-01  0.14050232383E+00  0.49926273407E-01 0.  0.
         14    1    1    2    0    0  0.16186571486E-02 -0.28884795134E-02 -0.13273826584E-01  0.13680564208E-01  0.00000000000E+00 0. -1.
     999901    1    3    3    0    0 -0.12304934496E+00  0.42594106362E-01 -0.17161703303E-01  0.88974711197E+00  0.88000000000E+00 0. -1.
        -11    1    4    4    0    0  0.42214559827E-01 -0.39570885462E-01  0.10409467311E-01  0.58792364881E-01  0.51100000000E-03 0. -1.
         11    1    4    4    0    0  0.79216127981E-01 -0.13474138568E-03  0.20026062575E-01  0.81709958945E-01  0.51100000000E-03 0.  1.
</event>
<event>
 8    1  0.2025822E+004  0.1043930E+01  0.7957747E-01            NaN
         13   -1    0    0    0    0  0.00000000000E+00  0.00000000000E+00  0.74505805969E-08  0.10566000000E+00  0.10566000000E+00 0.  1.
     999900   -1    0    0    0    0 -0.00000000000E+00 -0.00000000000E+00 -0.74505805969E-08  0.93827000000E+00  0.93827000000E+00 0.  1.
     999902    2    1    2    0    0  0.53956327831E-02  0.11765948743E-01 -0.43800996956E-02  0.10302648737E+01  0.10301742447E+01 0.  0.
     999903    2    3    3    0    0  0.12730626235E+00  0.25753262197E-01 -0.30866235387E-01  0.14135578842E+00  0.46460945828E-01 0.  0.
         14    1    1    2    0    0 -0.53956327831E-02 -0.11765948743E-01  0.43800996956E-02  0.13665126282E-01  0.00000000000E+00 0.  1.
     999901    1    3    3    0    0 -0.12191062956E+00 -0.13987313454E-01  0.26486135691E-01  0.88890908530E+00  0.88000000000E+00 0. -1.
        -11    1    4    4    0    0  0.11312589733E+00  0.16450300325E-01 -0.10426565745E-01  0.11479135605E+00  0.51100000000E-03 0. -1.
         11    1    4    4    0    0  0.14180365011E-01  0.93029618722E-02 -0.20439669641E-01  0.26564432377E-01  0.51100000000E-03 0.  1.
</event>
<event>
 8    1  0.2025822E+004  0.1043930E+01  0.7957747E-01            NaN
         13   -1    0    0    0    0  0.00000000000E+00  0.00000000000E+00  0.74505805969E-08  0.10566000000E+00  0.10566000000E+00 0.  1.
     999900   -1    0    0    0    0 -0.00000000000E+00 -0.00000000000E+00 -0.74505805969E-08  0.93827000000E+00  0.93827000000E+00 0. -1.
     999902    2    1    2    0    0  0.69090287679E-02 -0.13717878283E-01 -0.47205398015E-03  0.10285632275E+01  0.10284484310E+01 0.  0.
     999903    2    3    3    0    0 -0.11652417546E+00 -0.11664838434E-01  0.57401853922E-01  0.13806372713E+00  0.45306379188E-01 0.  0.
         14    1    1    2    0    0 -0.69090287679E-02  0.13717878283E-01  0.47205398015E-03  0.15366772532E-01  0.00000000000E+00 0.  1.
     999901    1    3    3    0    0  0.12343320422E+00 -0.20530398485E-02 -0.57873907902E-01  0.89049950033E+00  0.88000000000E+00 0.  1.
        -11    1    4    4    0    0 -0.34725460341E-01  0.15786135398E-01  0.26343597505E-01  0.46360607386E-01  0.51100000000E-03 0.  1.
         11    1    4    4    0    0 -0.81798715116E-01 -0.27450973833E-01  0.31058256417E-01  0.91703119749E-01  0.51100000000E-03 0. -1.
</event>
<event>
 8    1  0.2025822E+004  0.1043930E+01  0.7957747E-01            NaN
         13   -1    0    0    0    0  0.00000000000E+00  0.00000000000E+00  0.74505805969E-08  0.10566000000E+00  0.10566000000E+00 0. -1.
     999900   -1    0    0    0    0 -0.00000000000E+00 -0.00000000000E+00 -0.74505805969E-08  0.93827000000E+00  0.93827000000E+00 0. -1.
     999902    2    1    2    0    0  0.91664939253E-02  0.63003561924E-02  0.75966531111E-02  0.10304604700E+01  0.10303724337E+01 0.  0.
     999903    2    3    3    0    0 -0.11027747658E-01 -0.43962691828E-01 -0.12343285107E+00  0.13911154152E+00  0.45409500892E-01 0.  0.
         14    1    1    2    0    0 -0.91664939253E-02 -0.63003561924E-02 -0.75966531111E-02  0.13469529967E-01  0.00000000000E+00 0.  1.
     999901    1    3    3    0    0  0.20194241583E-01  0.50263048021E-01  0.13102950418E+00  0.89134892851E+00  0.88000000000E+00 0.  1.
        -11    1    4    4    0    0 -0.22615715001E-01 -0.32126672616E-01 -0.48755651665E-01  0.62617636083E-01  0.51100000000E-03 0.  1.
         11    1    4    4    0    0  0.11587967343E-01 -0.11836019212E-01 -0.74677199403E-01  0.76493905441E-01  0.51100000000E-03 0. -1.
</event>
<event>
 8    1  0.2025822E+004  0.1043930E+01  0.7957747E-01            NaN
         13   -1    0    0    0    0  0.00000000000E+00  0.00000000000E+00  0.74505805969E-08  0.10566000000E+00  0.10566000000E+00 0. -1.
     999900   -1    0    0    0    0 -0.00000000000E+00 -0.00000000000E+00 -0.74505805969E-08  0.93827000000E+00  0.93827000000E+00 0. -1.
     999902    2    1    2    0    0  0.63381810631E-02  0.12140023114E-01 -0.25077691257E-02  0.10300072989E+01  0.10299131974E+01 0.  0.
     999903    2    3    3    0    0  0.64162043119E-01 -0.30245066082E-01 -0.11238417151E+00  0.14028098219E+00  0.44911247584E-01 0.  0.
         14    1    1    2    0    0 -0.63381810631E-02 -0.12140023114E-01  0.25077691257E-02  0.13922701117E-01  0.00000000000E+00 0. -1.
     999901    1    3    3    0    0 -0.57823862056E-01  0.42385089196E-01  0.10987640238E+00  0.88972631669E+00  0.88000000000E+00 0.  1.
        -11    1    4    4    0    0  0.77969086443E-02 -0.22449013076E-01 -0.52724507534E-01  0.57834978933E-01  0.51100000000E-03 0. -1.
         11    1    4    4    0    0  0.56365134474E-01 -0.77960530065E-02 -0.59659663977E-01  0.82446003260E-01  0.51100000000E-03 0.  1.
</event>
<event>
 8    1  0.2025822E+004  0.1043930E+01  0.7957747E-01            NaN
         13   -1    0    0    0    0  0.00000000000E+00  0.00000000000E+00  0.74505805969E-08  0.10566000000E+00  0.10566000000E+00 0.  1.
     999900   -1    0    0    0    0 -0.00000000000E+00 -0.00000000000E+00 -0.74505805969E-08  0.93827000000E+00  0.93827000000E+00 0.  1.
     999902    2    1    2    0    0  0.84750763260E-02 -0.44496804242E-02 -0.11722004011E-01  0.10287961983E+01  0.10286848817E+01 0.  0.
     999903    2    3    3    0    0  0.88182600476E-01  0.28688798770E-01  0.92645671679E-01  0.13843444044E+00  0.44515790645E-01 0.  0.
         14    1    1    2    0    0 -0.84750763260E-02  0.44496804242E-02  0.11722004011E-01  0.15133801658E-01  0.00000000000E+00 0. -1.
     999901    1    3    3    0    0 -0.79707524150E-01 -0.33138479194E-01 -0.10436767569E+00  0.89036175790E+00  0.88000000000E+00 0.  1.
        -11    1    4    4    0    0  0.75084500780E-01  0.33468542132E-01  0.56669449000E-01  0.99847449346E-01  0.51100000000E-03 0. -1.
         11    1    4    4    0    0  0.13098099696E-01 -0.47797433623E-02  0.35976222679E-01  0.38586991092E-01  0.51100000000E-03 0.  1.
</event>
<event>
 8    1  0.2025822E+004  0.1043930E+01  0.7957747E-01            NaN
         13   -1    0    0    0    0  0.00000000000E+00  0.00000000000E+00  0.74505805969E-08  0.10566000000E+00  0.10566000000E+00 0.  1.
     999900   -1    0    0    0    0 -0.00000000000E+00 -0.00000000000E+00 -0.74505805969E-08  0.93827000000E+00  0.93827000000E+00 0.  1.
     999902    2    1    2    0    0 -0.89345939946E-02 -0.98104295386E-02  0.34841918764E-02  0.10302109953E+01  0.10301196453E+01 0.  0.
     999903    2    3    3    0    0 -0.32774130942E-01  0.81717047188E-01  0.99181880568E-01  0.13998425442E+00  0.44796502006E-01 0.  0.
         14    1    1    2    0    0  0.89345939946E-02  0.98104295386E-02 -0.34841918764E-02  0.13719004724E-01  0.00000000000E+00 0. -1.
     999901    1    3    3    0    0  0.23839536947E-01 -0.91527476726E-01 -0.95697688692E-01  0.89022674086E+00  0.88000000000E+00 0.  1.
        -11    1    4    4    0    0 -0.43941794327E-01  0.69470021061E-01  0.82314042596E-01  0.11633068316E+00  0.51100000000E-03 0. -1.
         11    1    4    4    0    0  0.11167663385E-01  0.12247026126E-01  0.16867837972E-01  0.23653571258E-01  0.51100000000E-03 0.  1.
</event>
<event>
 8    1  0.2025822E+004  0.1043930E+01  0.7957747E-01            NaN
         13   -1    0    0    0    0  0.00000000000E+00  0.00000000000E+00  0.74505805969E-08  0.10566000000E+00  0.10566000000E+00 0. -1.
     999900   -1    0    0    0    0 -0.00000000000E+00 -0.00000000000E+00 -0.74505805969E-08  0.93827000000E+00  0.93827000000E+00 0. -1.
     999902    2    1    2    0    0  0.64460071171E-03  0.13533138933E-01 -0.16738686973E-02  0.10302785094E+01  0.10301880623E+01 0.  0.
     999903    2    3    3    0    0 -0.87913346794E-01  0.93057018057E-01 -0.40138978403E-01  0.14143312234E+00  0.44764107866E-01 0.  0.
         14    1    1    2    0    0 -0.64460071171E-03 -0.13533138933E-01  0.16738686973E-02  0.13651490610E-01  0.00000000000E+00 0.  1.
     999901    1    3    3    0    0  0.88557947506E-01 -0.79523879124E-01  0.38465109706E-01  0.88884538705E+00  0.88000000000E+00 0.  1.
        -11    1    4    4    0    0 -0.20849907396E-01  0.14247469172E-01 -0.27241991759E-01  0.37149646731E-01  0.51100000000E-03 0.  1.
         11    1    4    4    0    0 -0.67063439398E-01  0.78809548885E-01 -0.12896986644E-01  0.10428347561E+00  0.51100000000E-03 0. -1.
</event>
<event>
 8    1  0.2025822E+004  0.1043930E+01  0.7957747E-01            NaN
         13   -1    0    0    0    0  0.00000000000E+00  0.00000000000E+00  0.74505805969E-08  0.10566000000E+00  0.10566000000E+00 0.  1.
     999900   -1    0    0    0    0 -0.00000000000E+00 -0.00000000000E+00 -0.74505805969E-08  0.93827000000E+00  0.93827000000E+00 0.  1.
     999902    2    1    2    0    0 -0.10634850757E-01 -0.84422116199E-02 -0.24567455250E-02  0.10301312107E+01  0.10300387879E+01 0.  0.
     999903    2    3    3    0    0 -0.18310658861E-01  0.26017067139E-01 -0.12896631938E+00  0.14038347555E+00  0.45420707422E-01 0.  0.
         14    1    1    2    0    0  0.10634850757E-01  0.84422116199E-02  0.24567455250E-02  0.13798789303E-01  0.00000000000E+00 0. -1.
     999901    1    3    3    0    0  0.76758081041E-02 -0.34459278759E-01  0.12650957385E+00  0.88974773515E+00  0.88000000000E+00 0.  1.
        -11    1    4    4    0    0  0.32299451559E-03 -0.29836843539E-02 -0.82339378745E-01  0.82395637694E-01  0.51100000000E-03 0.  1.
         11    1    4    4    0    0 -0.18633653377E-01  0.29000751493E-01 -0.46626940634E-01  0.57987837856E-01  0.51100000000E-03 0. -1.
</event>
<event>
 8    1  0.2025822E+004  0.1043930E+01  0.7957747E-01            NaN
         13   -1    0    0    0    0  0.00000000000E+00  0.00000000000E+00  0.74505805969E-08  0.10566000000E+00  0.10566000000E+00 0. -1.
     999900   -1    0    0    0    0 -0.00000000000E+00 -0.00000000000E+00 -0.74505805969E-08  0.93827000000E+00  0.93827000000E+00 0.  1.
     999902    2    1    2    0    0 -0.10296878935E-01  0.89267505280E-02  0.30210699461E-02  0.10299715096E+01  0.10298769204E+01 0.  0.
     999903    2    3    3    0    0 -0.69786388964E-01  0.59778165701E-01  0.96887526307E-01  0.14152579946E+00  0.46891256960E-01 0.  0.
         14    1    1    2    0    0  0.10296878935E-01 -0.89267505280E-02 -0.30210699461E-02  0.13958490406E-01  0.00000000000E+00 0.  1.
     999901    1    3    3    0    0  0.59489510030E-01 -0.50851415173E-01 -0.93866456361E-01  0.88844571014E+00  0.88000000000E+00 0.  1.
        -11    1    4    4    0    0 -0.10935937469E-01 -0.53806418714E-02  0.25854401294E-01  0.28587711040E-01  0.51100000000E-03 0.  1.
         11    1    4    4    0    0 -0.58850451496E-01  0.65158807572E-01  0.71033125013E-01  0.11293808842E+00  0.51100000000E-03 0. -1.
</event>
<event>
 8    1  0.2025822E+004  0.1043930E+01  0.7957747E-01            NaN
         13   -1    0    0    0    0  0.00000000000E+00  0.00000000000E+00  0.74505805969E-08  0.10566000000E+00  0.10566000000E+00 0. -1.
     999900   -1    0    0    0    0 -0.00000000000E+00 -0.00000000000E+00 -0.74505805969E-08  0.93827000000E+00  0.93827000000E+00 0. -1.
     999902    2    1    2    0    0  0.72934102011E-02  0.66032496564E-02 -0.97508430075E-02  0.10300780804E+01  0.10299849397E+01 0.  0.
     999903    2    3    3    0    0 -0.95553117334E-01 -0.51415510304E-01  0.72700110891E-01  0.13837087251E+00  0.45686314179E-01 0.  0.
         14    1    1    2    0    0 -0.72934102011E-02 -0.66032496564E-02  0.97508430075E-02  0.13851919641E-01  0.00000000000E+00 0. -1.
     999901    1    3    3    0    0  0.10284652754E+00  0.58018759960E-01 -0.82450953898E-01  0.89170720785E+00  0.88000000000E+00 0. -1.
        -11    1    4    4    0    0 -0.20123856842E-01 -0.28434097667E-01  0.39893887430E-01  0.52964619319E-01  0.51100000000E-03 0.  1.
         11    1    4    4    0    0 -0.75429260492E-01 -0.22981412637E-01  0.32806223461E-01  0.85406253190E-01  0.51100000000E-03 0. -1.
</event>
<event>
 8    1  0.2025822E+004  0.1043930E+01  0.7957747E-01            NaN
         13   -1    0    0    0    0  0.00000000000E+00  0.00000000000E+00  0.74505805969E-08  0.10566000000E+00  0.10566000000E+00 0. -1.
     999900   -1    0    0    0    0 -0.00000000000E+00 -0.00000000000E+00 -0.74505805969E-08  0.93827000000E+00  0.93827000000E+00 0. -1.
     999902    2    1    2    0    0  0.11267135604E-02 -0.63585054702E-02  0.11105106025E-01  0.10310838545E+01  0.10310038271E+01 0.  0.
     999903    2    3    3    0    0 -0.10119330699E+00  0.52445671599E-01 -0.67223270077E-01  0.13975750999E+00  0.44972877493E-01 0.  0.
         14    1    1    2    0    0 -0.11267135604E-02  0.63585054702E-02 -0.11105106025E-01  0.12846145534E-01  0.00000000000E+00 0.  1.
     999901    1    3    3    0    0  0.10232002055E+00 -0.58804177069E-01  0.78328376102E-01  0.89132634447E+00  0.88000000000E+00 0.  1.
        -11    1    4    4    0    0 -0.13781237424E-01  0.28864726468E-01 -0.17609207240E-01  0.36516301012E-01  0.51100000000E-03 0.  1.
         11    1    4    4    0    0 -0.87412069570E-01  0.23580945131E-01 -0.49614062837E-01  0.10324120898E+00  0.51100000000E-03 0. -1.
</event>
<event>
 8    1  0.2025822E+004  0.1043930E+01  0.7957747E-01            NaN
         13   -1    0    0    0    0  0.00000000000E+00  0.00000000000E+00  0.74505805969E-08  0.10566000000E+00  0.10566000000E+00 0.  1.
     999900   -1    0    0    0    0 -0.00000000000E+00 -0.00000000000E+00 -0.74505805969E-08  0.93827000000E+00  0.93827000000E+00 0. -1.
     999902    2    1    2    0    0 -0.81384931834E-02  0.82326084568E-02 -0.78648169051E-02  0.10299347773E+01  0.10298396862E+01 0.  0.
     999903    2    3    3    0    0  0.11101769486E+00 -0.29518605059E-01 -0.64988854797E-01  0.13926844979E+00  0.44450795747E-01 0.  0.
         14    1    1    2    0    0  0.81384931834E-02 -0.82326084568E-02  0.78648169051E-02  0.13995222694E-01  0.00000000000E+00 0.  1.
     999901    1    3    3    0    0 -0.11915618804E+00  0.37751213516E-01  0.57124037892E-01  0.89066632752E+00  0.88000000000E+00 0. -1.
        -11    1    4    4    0    0  0.66784854529E-01 -0.15112053255E-02 -0.53693147323E-01  0.85707150965E-01  0.51100000000E-03 0. -1.
         11    1    4    4    0    0  0.44232840327E-01 -0.28007399733E-01 -0.11295707474E-01  0.53561298823E-01  0.51100000000E-03 0.  1.
</event>
<event>
 8    1  0.2025822E+004  0.1043930E+01  0.7957747E-01            NaN
         13   -1    0    0    0    0  0.00000000000E+00  0.00000000000E+00  0.74505805969E-08  0.10566000000E+00  0.10566000000E+00 0. -1.
     999900   -1    0    0    0    0 -0.00000000000E+00 -0.00000000000E+00 -0.74505805969E-08  0.93827000000E+00  0.93827000000E+00 0. -1.
     999902    2    1    2    0    0 -0.60611746193E-02 -0.14075219862E-02  0.25820916338E-03  0.10377021892E+01  0.10376835008E+01 0.  0.
     999903    2    3    3    0    0 -0.21622595628E-01 -0.67923888283E-01 -0.11996368969E+00  0.14690485543E+00  0.45919042498E-01 0.  0.
         14    1    1    2    0    0  0.60611746193E-02  0.14075219862E-02 -0.25820916338E-03  0.62278108416E-02  0.00000000000E+00 0.  1.
     999901    1    3    3    0    0  0.15561421009E-01  0.66516366297E-01  0.12022189886E+00  0.89079733373E+00  0.88000000000E+00 0.  1.
        -11    1    4    4    0    0  0.50525737354E-02 -0.23106822218E-01 -0.72934516398E-01  0.76675671093E-01  0.51100000000E-03 0.  1.
         11    1    4    4    0    0 -0.26675169364E-01 -0.44817066066E-01 -0.47029173294E-01  0.70229184340E-01  0.51100000000E-03 0. -1.
</event>
<event>
 8    1  0.2025822E+004  0.1043930E+01  0.7957747E-01            NaN
         13   -1    0    0    0    0  0.00000000000E+00  0.00000000000E+00  0.74505805969E-08  0.10566000000E+00  0.10566000000E+00 0. -1.
     999900   -1    0    0    0    0 -0.00000000000E+00 -0.00000000000E+00 -0.74505805969E-08  0.93827000000E+00  0.93827000000E+00 0. -1.
     999902    2    1    2    0    0 -0.64088095587E-02  0.10691663257E-01 -0.62549057964E-02  0.10299833750E+01  0.10298889476E+01 0.  0.
     999903    2    3    3    0    0 -0.37466685794E-01  0.11455260198E+00  0.59358426732E-01  0.14090700273E+00  0.42488933031E-01 0.  0.
         14    1    1    2    0    0  0.64088095587E-02 -0.10691663257E-01  0.62549057964E-02  0.13946625028E-01  0.00000000000E+00 0. -1.
     999901    1    3    3    0    0  0.31057876235E-01 -0.10386093872E+00 -0.65613332528E-01  0.88907637224E+00  0.88000000000E+00 0.  1.
        -11    1    4    4    0    0 -0.43225779231E-01  0.10273348835E+00  0.61919396225E-01  0.12750258965E+00  0.51100000000E-03 0.  1.
         11    1    4    4    0    0  0.57590934368E-02  0.11819113635E-01 -0.25609694929E-02  0.13404413082E-01  0.51100000000E-03 0. -1.
</event>
<event>
 8    1  0.2025822E+004  0.1043930E+01  0.7957747E-01            NaN
         13   -1    0    0    0    0  0.00000000000E+00  0.00000000000E+00  0.74505805969E-08  0.10566000000E+00  0.10566000000E+00 0. -1.
     999900   -1    0    0    0    0 -0.00000000000E+00 -0.00000000000E+00 -0.74505805969E-08  0.93827000000E+00  0.93827000000E+00 0.  1.
     999902    2    1    2    0    0  0.62901604424E-02  0.11416394073E-01  0.26122049067E-02  0.10306362501E+01  0.10305505112E+01 0.  0.
     999903    2    3    3    0    0  0.36636910446E-01  0.61918243298E-01 -0.11271878754E+00  0.14115741402E+00  0.45207946304E-01 0.  0.
         14    1    1    2    0    0 -0.62901604424E-02 -0.11416394073E-01 -0.26122049067E-02  0.13293749903E-01  0.00000000000E+00 0.  1.
     999901    1    3    3    0    0 -0.30346750004E-01 -0.50501849225E-01  0.11533099244E+00  0.88947883608E+00  0.88000000000E+00 0. -1.
        -11    1    4    4    0    0 -0.59377334828E-02  0.31984838878E-01 -0.36921327519E-01  0.49211097770E-01  0.51100000000E-03 0.  1.
         11    1    4    4    0    0  0.42574643929E-01  0.29933404419E-01 -0.75797460017E-01  0.91946316250E-01  0.51100000000E-03 0. -1.
</event>
<event>
 8    1  0.2025822E+004  0.1043930E+01  0.7957747E-01            NaN
         13   -1    0    0    0    0  0.00000000000E+00  0.00000000000E+00  0.74505805969E-08  0.10566000000E+00  0.10566000000E+00 0. -1.
     999900   -1    0    0    0    0 -0.00000000000E+00 -0.00000000000E+00 -0.74505805969E-08  0.93827000000E+00  0.93827000000E+00 0.  1.
     999902    2    1    2    0    0  0.92562288782E-02  0.34866384142E-02 -0.10400716473E-01  0.10295769751E+01  0.10294769246E+01 0.  0.
     999903    2    3    3    0    0 -0.95272310891E-01 -0.47896347251E-01 -0.78012074897E-01  0.13933109748E+00  0.44231183488E-01 0.  0.
         14    1    1    2    0    0 -0.92562288782E-02 -0.34866384142E-02  0.10400716473E-01  0.14353024894E-01  0.00000000000E+00 0. -1.
     999901    1    3    3    0    0  0.10452853977E+00  0.51382985665E-01  0.67611358424E-01  0.89024587763E+00  0.88000000000E+00 0. -1.
        -11    1    4    4    0    0  0.41615228573E-03 -0.12694035789E-01 -0.14158355309E-01  0.19027135186E-01  0.51100000000E-03 0.  1.
         11    1    4    4    0    0 -0.95688463176E-01 -0.35202311462E-01 -0.63853719587E-01  0.12030396229E+00  0.51100000000E-03 0. -1.
</event>
<event>
 8    1  0.2344941E+004  0.1043930E+01  0.7957747E-01            NaN
         13   -1    0    0    0    0  0.00000000000E+00  0.00000000000E+00  0.74505805969E-08  0.10566000000E+00  0.10566000000E+00 0. -1.
     999900   -1    0    0    0    0 -0.00000000000E+00 -0.00000000000E+00 -0.74505805969E-08  0.93827000000E+00  0.93827000000E+00 0. -1.
     999902    2    1    2    0    0  0.38990418031E-04  0.96534916858E-02 -0.91266192801E-02  0.10306451740E+01  0.10305595510E+01 0.  0.
     999903    2    3    3    0    0 -0.34141298418E-01  0.70595625605E-01 -0.10974265882E+00  0.14216004570E+00  0.44907202271E-01 0.  0.
         14    1    1    2    0    0 -0.38990418031E-04 -0.96534916858E-02  0.91266192801E-02  0.13284825986E-01  0.00000000000E+00 0. -1.
     999901    1    3    3    0    0  0.34180288836E-01 -0.60942133919E-01  0.10061603954E+00  0.88848512832E+00  0.88000000000E+00 0.  1.
        -11    1    4    4    0    0 -0.14495952825E-01  0.48443506510E-01 -0.34272867144E-01  0.61088431920E-01  0.51100000000E-03 0. -1.
         11    1    4    4    0    0 -0.19645345593E-01  0.22152119095E-01 -0.75469791674E-01  0.81071613775E-01  0.51100000000E-03 0.  1.
</event>
<event>
 8    1  0.2025822E+004  0.1043930E+01  0.7957747E-01            NaN
         13   -1    0    0    0    0  0.00000000000E+00  0.00000000000E+00  0.74505805969E-08  0.10566000000E+00  0.10566000000E+00 0.  1.
     999900   -1    0    0    0    0 -0.00000000000E+00 -0.00000000000E+00 -0.74505805969E-08  0.93827000000E+00  0.93827000000E+00 0.  1.
     999902    2    1    2    0    0 -0.13928556825E-01 -0.93753821968E-03 -0.31410631307E-03  0.10299663924E+01  0.10298717334E+01 0.  0.
     999903    2    3    3    0    0  0.29886944731E-01 -0.12166781388E+00  0.27044088127E-01  0.14022257064E+00  0.56874424969E-01 0.  0.
         14    1    1    2    0    0  0.13928556825E-01  0.93753821968E-03  0.31410631307E-03  0.13963607554E-01  0.00000000000E+00 0. -1.
     999901    1    3    3    0    0 -0.43815501556E-01  0.12073027566E+00 -0.27358194440E-01  0.88974382180E+00  0.88000000000E+00 0. -1.
        -11    1    4    4    0    0 -0.14258866699E-01 -0.42395699297E-01 -0.24862953830E-02  0.44801265430E-01  0.51100000000E-03 0. -1.
         11    1    4    4    0    0  0.44145811430E-01 -0.79272114580E-01  0.29530383510E-01  0.95421305211E-01  0.51100000000E-03 0.  1.
</event>
<event>
 8    1  0.2025822E+004  0.1043930E+01  0.7957747E-01            NaN
         13   -1    0    0    0    0  0.00000000000E+00  0.00000000000E+00  0.74505805969E-08  0.10566000000E+00  0.10566000000E+00 0. -1.
     999900   -1    0    0    0    0 -0.00000000000E+00 -0.00000000000E+00 -0.74505805969E-08  0.93827000000E+00  0.93827000000E+00 0. -1.
     999902    2    1    2    0    0  0.16927060539E-02  0.15133023662E-01  0.39038721168E-03  0.10286975983E+01  0.10285848155E+01 0.  0.
     999903    2    3    3    0    0 -0.16005076578E-02 -0.12651289708E-01  0.13124900871E+00  0.13858143053E+00  0.42613305966E-01 0.  0.
         14    1    1    2    0    0 -0.16927060539E-02 -0.15133023662E-01 -0.39038721168E-03  0.15232401686E-01  0.00000000000E+00 0.  1.
     999901    1    3    3    0    0  0.32932137117E-02  0.27784313370E-01 -0.13085862150E+00  0.89011616778E+00  0.88000000000E+00 0. -1.
        -11    1    4    4    0    0  0.72050666760E-02  0.13786991037E-01  0.62244087739E-01  0.64160592945E-01  0.51100000000E-03 0.  1.
         11    1    4    4    0    0 -0.88055743338E-02 -0.26438280745E-01  0.69004920970E-01  0.74420837587E-01  0.51100000000E-03 0. -1.
</event>
<event>
 8    1  0.2025822E+004  0.1043930E+01  0.7957747E-01            NaN
         13   -1    0    0    0    0  0.00000000000E+00  0.00000000000E+00  0.74505805969E-08  0.10566000000E+00  0.10566000000E+00 0.  1.
     999900   -1    0    0    0    0 -0.00000000000E+00 -0.00000000000E+00 -0.74505805969E-08  0.93827000000E+00  0.93827000000E+00 0.  1.
     999902    2    1    2    0    0 -0.35982783246E-03 -0.76325670854E-03 -0.17728032177E-01  0.10261818970E+01  0.10260284063E+01 0.  0.
     999903    2    3    3    0    0 -0.13382836242E-01 -0.12384657138E+00  0.31261856456E-01  0.13617116090E+00  0.45257130325E-01 0.  0.
         14    1    1    2    0    0  0.35982783246E-03  0.76325670854E-03  0.17728032177E-01  0.17748103046E-01  0.00000000000E+00 0.  1.
     999901    1    3    3    0    0  0.13023008410E-01  0.12308331467E+00 -0.48989888633E-01  0.89001073605E+00  0.88000000000E+00 0.  1.
        -11    1    4    4    0    0  0.11503146325E-01 -0.83753924642E-01  0.12836713604E-01  0.85510728014E-01  0.51100000000E-03 0.  1.
         11    1    4    4    0    0 -0.24885982567E-01 -0.40092646733E-01  0.18425142852E-01  0.50660432889E-01  0.51100000000E-03 0. -1.
</event>
<event>
 8    1  0.2025822E+004  0.1043930E+01  0.7957747E-01            NaN
         13   -1    0    0    0    0  0.00000000000E+00  0.00000000000E+00  0.74505805969E-08  0.10566000000E+00  0.10566000000E+00 0.  1.
     999900   -1    0    0    0    0 -0.00000000000E+00 -0.00000000000E+00 -0.74505805969E-08  0.93827000000E+00  0.93827000000E+00 0. -1.
     999902    2    1    2    0    0 -0.12542217888E-01 -0.68866196313E-02  0.37437888543E-02  0.10291398440E+01  0.10290335611E+01 0.  0.
     999903    2    3    3    0    0 -0.12622377331E+00 -0.22646576946E-01 -0.36212553280E-01  0.14078834737E+00  0.45438984846E-01 0.  0.
         14    1    1    2    0    0  0.12542217888E-01  0.68866196313E-02 -0.37437888543E-02  0.14790155999E-01  0.00000000000E+00 0. -1.
     999901    1    3    3    0    0  0.11368155542E+00  0.15759957315E-01  0.39956342134E-01  0.88835149663E+00  0.88000000000E+00 0.  1.
        -11    1    4    4    0    0 -0.40815787730E-01  0.13759470570E-01 -0.86161373269E-02  0.43928925571E-01  0.51100000000E-03 0.  1.
         11    1    4    4    0    0 -0.85407985577E-01 -0.36406047516E-01 -0.27596415953E-01  0.96859421795E-01  0.51100000000E-03 0. -1.
</event>
<event>
 8    1  0.2025822E+004  0.1043930E+01  0.7957747E-01            NaN
         13   -1    0    0    0    0  0.00000000000E+00  0.00000000000E+00  0.74505805969E-08  0.10566000000E+00  0.10566000000E+00 0.  1.
     999900   -1    0    0    0    0 -0.00000000000E+00 -0.00000000000E+00 -0.74505805969E-08  0.93827000000E+00  0.93827000000E+00 0. -1.
     999902    2    1    2    0    0 -0.39608055130E-02 -0.54416123471E-02  0.11314363042E-01  0.10307651249E+01  0.10306810509E+01 0.  0.
     999903    2    3    3    0    0  0.29523375321E-01  0.25335283343E-01  0.12882279068E+00  0.14179007563E+00  0.44672227114E-01 0.  0.
         14    1    1    2    0    0  0.39608055130E-02  0.54416123471E-02 -0.11314363042E-01  0.13164875096E-01  0.00000000000E+00 0. -1.
     999901    1    3    3    0    0 -0.33484180834E-01 -0.30776895690E-01 -0.11750842764E+00  0.88897504928E+00  0.88000000000E+00 0. -1.
        -11    1    4    4    0    0  0.22158546211E-01 -0.26435426505E-02  0.93502896638E-01  0.96130340105E-01  0.51100000000E-03 0.  1.
         11    1    4    4    0    0  0.73648291100E-02  0.27978825994E-01  0.35319894040E-01  0.45659735521E-01  0.51100000000E-03 0. -1.
</event>
<event>
 8    1  0.2025822E+004  0.1043930E+01  0.7957747E-01            NaN
         13   -1    0    0    0    0  0.00000000000E+00  0.00000000000E+00  0.74505805969E-08  0.10566000000E+00  0.10566000000E+00 0. -1.
     999900   -1    0    0    0    0 -0.00000000000E+00 -0.00000000000E+00 -0.74505805969E-08  0.93827000000E+00  0.93827000000E+00 0.  1.
     999902    2    1    2    0    0 -0.36712081639E-02 -0.13709041484E-01 -0.27932605877E-02  0.10294656337E+01  0.10293640139E+01 0.  0.
     999903    2    3    3    0    0  0.12833018486E+00 -0.13132264910E-01 -0.25585260283E-01  0.13932846692E+00  0.46007862607E-01 0.  0.
         14    1    1    2    0    0  0.36712081639E-02  0.13709041484E-01  0.27932605877E-02  0.14464366302E-01  0.00000000000E+00 0. -1.
     999901    1    3    3    0    0 -0.13200139303E+00 -0.57677657438E-03  0.22791999695E-01  0.89013716678E+00  0.88000000000E+00 0.  1.
        -11    1    4    4    0    0  0.65764348968E-01  0.29788077143E-02  0.83304059005E-02  0.66358719654E-01  0.51100000000E-03 0. -1.
         11    1    4    4    0    0  0.62565835894E-01 -0.16111072624E-01 -0.33915666183E-01  0.72969747265E-01  0.51100000000E-03 0.  1.
</event>
<event>
 8    1  0.2616902E+004  0.1043930E+01  0.7957747E-01            NaN
         13   -1    0    0    0    0  0.00000000000E+00  0.00000000000E+00  0.74505805969E-08  0.10566000000E+00  0.10566000000E+00 0.  1.
     999900   -1    0    0    0    0 -0.00000000000E+00 -0.00000000000E+00 -0.74505805969E-08  0.93827000000E+00  0.93827000000E+00 0.  1.
     999902    2    1    2    0    0 -0.11198701078E-01 -0.71297314433E-02  0.37115666203E-02  0.10301452366E+01  0.10300530029E+01 0.  0.
     999903    2    3    3    0    0  0.10121126859E+00  0.80334061618E-01  0.22267853492E-01  0.13850054715E+00  0.44601142519E-01 0.  0.
         14    1    1    2    0    0  0.11198701078E-01  0.71297314433E-02 -0.37115666203E-02  0.13784763439E-01  0.00000000000E+00 0.  1.
     999901    1    3    3    0    0 -0.11240996967E+00 -0.87463793062E-01 -0.18556286872E-01  0.89164468941E+00  0.88000000000E+00 0.  1.
        -11    1    4    4    0    0  0.72378428820E-01  0.56911629801E-01  0.36042276822E-01  0.98878093654E-01  0.51100000000E-03 0.  1.
         11    1    4    4    0    0  0.28832839775E-01  0.23422431817E-01 -0.13774423330E-01  0.39622453493E-01  0.51100000000E-03 0. -1.
</event>
<event>
 8    1  0.2025822E+004  0.1043930E+01  0.7957747E-01            NaN
         13   -1    0    0    0    0  0.00000000000E+00  0.00000000000E+00  0.74505805969E-08  0.10566000000E+00  0.10566000000E+00 0.  1.
     999900   -1    0    0    0    0 -0.00000000000E+00 -0.00000000000E+00 -0.74505805969E-08  0.93827000000E+00  0.93827000000E+00 0. -1.
     999902    2    1    2    0    0 -0.90117646707E-02 -0.15612021089E-01  0.44311132030E-02  0.10253670835E+01  0.10251990412E+01 0.  0.
     999903    2    3    3    0    0  0.36561508366E-01  0.10727475461E+00 -0.54832646003E-01  0.13368873565E+00  0.44960450430E-01 0.  0.
         14    1    1    2    0    0  0.90117646707E-02  0.15612021089E-01 -0.44311132030E-02  0.18562916505E-01  0.00000000000E+00 0. -1.
     999901    1    3    3    0    0 -0.45573273036E-01 -0.12288677569E+00  0.59263759206E-01  0.89167834784E+00  0.88000000000E+00 0.  1.
        -11    1    4    4    0    0 -0.39847409372E-02  0.45018992457E-01 -0.81043264983E-02  0.45918722447E-01  0.51100000000E-03 0. -1.
         11    1    4    4    0    0  0.40546249303E-01  0.62255762149E-01 -0.46728319505E-01  0.87770013205E-01  0.51100000000E-03 0.  1.
</event>
<event>
 8    1  0.2025822E+004  0.1043930E+01  0.7957747E-01            NaN
         13   -1    0    0    0    0  0.00000000000E+00  0.00000000000E+00  0.74505805969E-08  0.10566000000E+00  0.10566000000E+00 0. -1.
     999900   -1    0    0    0    0 -0.00000000000E+00 -0.00000000000E+00 -0.74505805969E-08  0.93827000000E+00  0.93827000000E+00 0. -1.
     999902    2    1    2    0    0 -0.18115333757E-01 -0.11094669976E-01  0.11819225992E-01  0.10196205137E+01  0.10193306828E+01 0.  0.
     999903    2    3    3    0    0 -0.64850639720E-02 -0.11258666717E+00  0.53354538392E-01  0.13273773071E+00  0.45329733143E-01 0.  0.
         14    1    1    2    0    0  0.18115333757E-01  0.11094669976E-01 -0.11819225992E-01  0.24309486257E-01  0.00000000000E+00 0. -1.
     999901    1    3    3    0    0 -0.11630269785E-01  0.10149199719E+00 -0.41535312399E-01  0.88688278304E+00  0.88000000000E+00 0. -1.
        -11    1    4    4    0    0  0.73921461663E-02 -0.69491020607E-01  0.11014166264E-01  0.70747570626E-01  0.51100000000E-03 0. -1.
         11    1    4    4    0    0 -0.13877210138E-01 -0.43095646564E-01  0.42340372128E-01  0.61990160081E-01  0.51100000000E-03 0.  1.
</event>
<event>
 8    1  0.2025822E+004  0.1043930E+01  0.7957747E-01            NaN
         13   -1    0    0    0    0  0.00000000000E+00  0.00000000000E+00  0.74505805969E-08  0.10566000000E+00  0.10566000000E+00 0.  1.
     999900   -1    0    0    0    0 -0.00000000000E+00 -0.00000000000E+00 -0.74505805969E-08  0.93827000000E+00  0.93827000000E+00 0. -1.
     999902    2    1    2    0    0 -0.40627614906E-02  0.68024528457E-02 -0.11424034734E-01  0.10300271958E+01  0.10299333649E+01 0.  0.
     999903    2    3    3    0    0  0.65594749599E-01 -0.45455147493E-01  0.10320243477E+00  0.13833091724E+00  0.45998462084E-01 0.  0.
         14    1    1    2    0    0  0.40627614906E-02 -0.68024528457E-02  0.11424034734E-01  0.13902804223E-01  0.00000000000E+00 0.  1.
     999901    1    3    3    0    0 -0.69657511090E-01  0.52257600339E-01 -0.11462646950E+00  0.89169627854E+00  0.88000000000E+00 0. -1.
        -11    1    4    4    0    0 -0.42269416885E-02 -0.11929439763E-01  0.59248266718E-02  0.13983678385E-01  0.51100000000E-03 0. -1.
         11    1    4    4    0    0  0.69821691288E-01 -0.33525707730E-01  0.97277608096E-01  0.12434723886E+00  0.51100000000E-03 0.  1.
</event>
<event>
 8    1  0.2025822E+004  0.1043930E+01  0.7957747E-01            NaN
         13   -1    0    0    0    0  0.00000000000E+00  0.00000000000E+00  0.74505805969E-08  0.10566000000E+00  0.10566000000E+00 0.  1.
     999900   -1    0    0    0    0 -0.00000000000E+00 -0.00000000000E+00 -0.74505805969E-08  0.93827000000E+00  0.93827000000E+00 0. -1.
     999902    2    1    2    0    0  0.31257851422E-02  0.64990927356E-02 -0.11771149530E-01  0.10301253377E+01  0.10300328358E+01 0.  0.
     999903    2    3    3    0    0  0.30803748415E-01  0.12709176604E+00  0.26440085089E-01  0.14064865959E+00  0.44517181320E-01 0.  0.
         14    1    1    2    0    0 -0.31257851422E-02 -0.64990927356E-02  0.11771149530E-01  0.13804662271E-01  0.00000000000E+00 0. -1.
     999901    1    3    3    0    0 -0.27677963273E-01 -0.12059267331E+00 -0.38211234619E-01  0.88947667814E+00  0.88000000000E+00 0.  1.
        -11    1    4    4    0    0  0.30140239866E-01  0.35616563949E-01  0.92116507323E-02  0.47561426776E-01  0.51100000000E-03 0. -1.
         11    1    4    4    0    0  0.66350854911E-03  0.91475202092E-01  0.17228434356E-01  0.93087232813E-01  0.51100000000E-03 0.  1.
</event>
<event>
 8    1  0.2025822E+004  0.1043930E+01  0.7957747E-01            NaN
         13   -1    0    0    0    0  0.00000000000E+00  0.00000000000E+00  0.74505805969E-08  0.10566000000E+00  0.10566000000E+00 0. -1.
     999900   -1    0    0    0    0 -0.00000000000E+00 -0.00000000000E+00 -0.74505805969E-08  0.93827000000E+00  0.93827000000E+00 0. -1.
     999902    2    1    2    0    0 -0.12967284963E-01  0.15550186566E-02  0.25441698876E-02  0.10306243109E+01  0.10305384170E+01 0.  0.
     999903    2    3    3    0    0  0.11398350306E+00  0.58620967795E-01  0.29210466474E-01  0.13928592593E+00  0.46028914564E-01 0.  0.
         14    1    1    2    0    0  0.12967284963E-01 -0.15550186566E-02 -0.25441698876E-02  0.13305689112E-01  0.00000000000E+00 0.  1.
     999901    1    3    3    0    0 -0.12695078802E+00 -0.57065949139E-01 -0.26666296586E-01  0.89133838496E+00  0.88000000000E+00 0.  1.
        -11    1    4    4    0    0  0.15666380655E-01  0.32464266135E-02  0.20641576957E-01  0.26121075569E-01  0.51100000000E-03 0.  1.
         11    1    4    4    0    0  0.98317122401E-01  0.55374541182E-01  0.85688895162E-02  0.11316485036E+00  0.51100000000E-03 0. -1.
</event>
<event>
 8    1  0.2025822E+004  0.1043930E+01  0.7957747E-01            NaN
         13   -1    0    0    0    0  0.00000000000E+00  0.00000000000E+00  0.74505805969E-08  0.10566000000E+00  0.10566000000E+00 0. -1.
     999900   -1    0    0    0    0 -0.00000000000E+00 -0.00000000000E+00 -0.74505805969E-08  0.93827000000E+00  0.93827000000E+00 0. -1.
     999902    2    1    2    0    0  0.11177434768E-01  0.25550939555E-02  0.73643582661E-02  0.10303029194E+01  0.10302127976E+01 0.  0.
     999903    2    3    3    0    0 -0.12230622218E+00 -0.29800677630E-01  0.38705590394E-01  0.13909752474E+00  0.44756075462E-01 0.  0.
         14    1    1    2    0    0 -0.11177434768E-01 -0.25550939555E-02 -0.73643582661E-02  0.13627080604E-01  0.00000000000E+00 0. -1.
     999901    1    3    3    0    0  0.13348365695E+00  0.32355771585E-01 -0.31341232128E-01  0.89120539465E+00  0.88000000000E+00 0. -1.
        -11    1    4    4    0    0 -0.22737874435E-02 -0.11809776772E-01  0.56803329179E-02  0.13310456033E-01  0.51100000000E-03 0.  1.
         11    1    4    4    0    0 -0.12003243474E+00 -0.17990900858E-01  0.33025257476E-01  0.12578706871E+00  0.51100000000E-03 0. -1.
</event>
<event>
 8    1  0.2025822E+004  0.1043930E+01  0.7957747E-01            NaN
         13   -1    0    0    0    0  0.00000000000E+00  0.00000000000E+00  0.74505805969E-08  0.10566000000E+00  0.10566000000E+00 0. -1.
     999900   -1    0    0    0    0 -0.00000000000E+00 -0.00000000000E+00 -0.74505805969E-08  0.93827000000E+00  0.93827000000E+00 0.  1.
     999902    2    1    2    0    0  0.97933758739E-02 -0.18438802831E-02 -0.82088121654E-02  0.10310189697E+01  0.10309381268E+01 0.  0.
     999903    2    3    3    0    0 -0.73366271704E-01  0.95506973747E-01  0.58435498809E-01  0.13925993280E+00  0.38398300787E-01 0.  0.
         14    1    1    2    0    0 -0.97933758739E-02  0.18438802831E-02  0.82088121654E-02  0.12911030272E-01  0.00000000000E+00 0. -1.
     999901    1    3    3    0    0  0.83159647578E-01 -0.97350854030E-01 -0.66644310974E-01  0.89175903693E+00  0.88000000000E+00 0.  1.
        -11    1    4    4    0    0 -0.41445310843E-02  0.17005507342E-01  0.22689603237E-01  0.28660837984E-01  0.51100000000E-03 0.  1.
         11    1    4    4    0    0 -0.69221740619E-01  0.78501466404E-01  0.35745895572E-01  0.11059909481E+00  0.51100000000E-03 0. -1.
</event>
<event>
 8    1  0.2025822E+004  0.1043930E+01  0.7957747E-01            NaN
         13   -1    0    0    0    0  0.00000000000E+00  0.00000000000E+00  0.74505805969E-08  0.10566000000E+00  0.10566000000E+00 0. -1.
     999900   -1    0    0    0    0 -0.00000000000E+00 -0.00000000000E+00 -0.74505805969E-08  0.93827000000E+00  0.93827000000E+00 0. -1.
     999902    2    1    2    0    0 -0.13880248336E-01 -0.35424781911E-02 -0.40049640764E-03  0.10295992344E+01  0.10294994962E+01 0.  0.
     999903    2    3    3    0    0  0.11822425150E+00  0.34041143318E-02  0.55580217514E-01  0.13795261473E+00  0.44195041511E-01 0.  0.
         14    1    1    2    0    0  0.13880248336E-01  0.35424781911E-02  0.40049640764E-03  0.14330765610E-01  0.00000000000E+00 0. -1.
     999901    1    3    3    0    0 -0.13210449984E+00 -0.69465925230E-02 -0.55980713921E-01  0.89164661966E+00  0.88000000000E+00 0.  1.
        -11    1    4    4    0    0  0.76767661988E-01  0.10514591713E-01  0.13876878561E-01  0.78718863340E-01  0.51100000000E-03 0.  1.
         11    1    4    4    0    0  0.41456589512E-01 -0.71104773812E-02  0.41703338953E-01  0.59233751387E-01  0.51100000000E-03 0. -1.
</event>
<event>
 8    1  0.2025822E+004  0.1043930E+01  0.7957747E-01            NaN
         13   -1    0    0    0    0  0.00000000000E+00  0.00000000000E+00  0.74505805969E-08  0.10566000000E+00  0.10566000000E+00 0.  1.
     999900   -1    0    0    0    0 -0.00000000000E+00 -0.00000000000E+00 -0.74505805969E-08  0.93827000000E+00  0.93827000000E+00 0. -1.
     999902    2    1    2    0    0  0.57626882072E-02  0.12654027430E-01 -0.13829678290E-02  0.10299569693E+01  0.10298621816E+01 0.  0.
     999903    2    3    3    0    0 -0.24874195167E-01  0.24289136248E-01 -0.12833213005E+00  0.14024348503E+00  0.44614031042E-01 0.  0.
         14    1    1    2    0    0 -0.57626882072E-02 -0.12654027430E-01  0.13829678290E-02  0.13973030652E-01  0.00000000000E+00 0. -1.
     999901    1    3    3    0    0  0.30636883374E-01 -0.11635108818E-01  0.12694916222E+00  0.88971348431E+00  0.88000000000E+00 0.  1.
        -11    1    4    4    0    0 -0.24872275687E-01  0.10782316983E-01 -0.12259897918E+00  0.12556137653E+00  0.51100000000E-03 0. -1.
         11    1    4    4    0    0 -0.19194804007E-05  0.13506819265E-01 -0.57331508686E-02  0.14682108507E-01  0.51100000000E-03 0.  1.
</event>
<event>
 8    1  0.2025822E+004  0.1043930E+01  0.7957747E-01            NaN
         13   -1    0    0    0    0  0.00000000000E+00  0.00000000000E+00  0.74505805969E-08  0.10566000000E+00  0.10566000000E+00 0.  1.
     999900   -1    0    0    0    0 -0.00000000000E+00 -0.00000000000E+00 -0.74505805969E-08  0.93827000000E+00  0.93827000000E+00 0. -1.
     999902    2    1    2    0    0 -0.72048638875E-02 -0.12201383289E-01 -0.28169453684E-03  0.10297573796E+01  0.10296598456E+01 0.  0.
     999903    2    3    3    0    0  0.29703299031E-02  0.52995029566E-01 -0.12076808760E+00  0.13909971373E+00  0.44119194898E-01 0.  0.
         14    1    1    2    0    0  0.72048638875E-02  0.12201383289E-01  0.28169453684E-03  0.14172620422E-01  0.00000000000E+00 0. -1.
     999901    1    3    3    0    0 -0.10175193791E-01 -0.65196412855E-01  0.12048639307E+00  0.89065766585E+00  0.88000000000E+00 0.  1.
        -11    1    4    4    0    0  0.91178604263E-02  0.54069709622E-01 -0.75015826479E-01  0.92920956844E-01  0.51100000000E-03 0.  1.
         11    1    4    4    0    0 -0.61475305232E-02 -0.10746800565E-02 -0.45752261124E-01  0.46178756888E-01  0.51100000000E-03 0. -1.
</event>
<event>
 8    1  0.2025822E+004  0.1043930E+01  0.7957747E-01            NaN
         13   -1    0    0    0    0  0.00000000000E+00  0.00000000000E+00  0.74505805969E-08  0.10566000000E+00  0.10566000000E+00 0.  1.
     999900   -1    0    0    0    0 -0.00000000000E+00 -0.00000000000E+00 -0.74505805969E-08  0.93827000000E+00  0.93827000000E+00 0.  1.
     999902    2    1    2    0    0  0.13450859547E-01 -0.60725663622E-02  0.88668896263E-03  0.10291452815E+01  0.10290390772E+01 0.  0.
     999903    2    3    3    0    0 -0.63037250570E-01  0.83322779189E-01 -0.77985377098E-01  0.13781887571E+00  0.44675977545E-01 0.  0.
         14    1    1    2    0    0 -0.13450859547E-01  0.60725663622E-02 -0.88668896263E-03  0.14784718533E-01  0.00000000000E+00 0.  1.
     999901    1    3    3    0    0  0.76488110117E-01 -0.89395345551E-01  0.78872066061E-01  0.89132640576E+00  0.88000000000E+00 0. -1.
        -11    1    4    4    0    0 -0.32282416679E-01  0.26078948903E-01 -0.79119118814E-02  0.42250745237E-01  0.51100000000E-03 0.  1.
         11    1    4    4    0    0 -0.30754833891E-01  0.57243830286E-01 -0.70073465217E-01  0.95568130473E-01  0.51100000000E-03 0. -1.
</event>
<event>
 8    1  0.2025822E+004  0.1043930E+01  0.7957747E-01            NaN
         13   -1    0    0    0    0  0.00000000000E+00  0.00000000000E+00  0.74505805969E-08  0.10566000000E+00  0.10566000000E+00 0. -1.
     999900   -1    0    0    0    0 -0.00000000000E+00 -0.00000000000E+00 -0.74505805969E-08  0.93827000000E+00  0.93827000000E+00 0. -1.
     999902    2    1    2    0    0 -0.54619170494E-02 -0.76612564818E-02  0.11035328586E-01  0.10294280737E+01  0.10293259217E+01 0.  0.
     999903    2    3    3    0    0 -0.19285280715E-01 -0.53647665830E-01 -0.11817825725E+00  0.13869692125E+00  0.44952657038E-01 0.  0.
         14    1    1    2    0    0  0.54619170494E-02  0.76612564818E-02 -0.11035328586E-01  0.14501926277E-01  0.00000000000E+00 0.  1.
     999901    1    3    3    0    0  0.13823363666E-01  0.45986409348E-01  0.12921358584E+00  0.89073115248E+00  0.88000000000E+00 0.  1.
        -11    1    4    4    0    0  0.12426082314E-01 -0.20658865270E-01 -0.24166546767E-01  0.34139117439E-01  0.51100000000E-03 0. -1.
         11    1    4    4    0    0 -0.31711363029E-01 -0.32988800560E-01 -0.94011710486E-01  0.10455780381E+00  0.51100000000E-03 0.  1.
</event>
<event>
 8    1  0.2029596E+004  0.1043930E+01  0.7957747E-01            NaN
         13   -1    0    0    0    0  0.00000000000E+00  0.00000000000E+00  0.74505805969E-08  0.10566000000E+00  0.10566000000E+00 0.  1.
     999900   -1    0    0    0    0 -0.00000000000E+00 -0.00000000000E+00 -0.74505805969E-08  0.93827000000E+00  0.93827000000E+00 0. -1.
     999902    2    1    2    0    0 -0.12746922571E-02  0.88643498744E-02 -0.13658543218E-01  0.10275972923E+01  0.10274674874E+01 0.  0.
     999903    2    3    3    0    0 -0.34389256207E-01  0.12384303247E+00  0.19419465939E-01  0.13888427532E+00  0.48908165370E-01 0.  0.
         14    1    1    2    0    0  0.12746922571E-02 -0.88643498744E-02  0.13658543218E-01  0.16332707733E-01  0.00000000000E+00 0.  1.
     999901    1    3    3    0    0  0.33114563950E-01 -0.11497868260E+00 -0.33078009157E-01  0.88871301694E+00  0.88000000000E+00 0. -1.
        -11    1    4    4    0    0  0.44389245027E-02  0.74230101104E-01  0.13772690925E-01  0.75629095571E-01  0.51100000000E-03 0. -1.
         11    1    4    4    0    0 -0.38828180710E-01  0.49612931369E-01  0.56467750142E-02  0.63255179751E-01  0.51100000000E-03 0.  1.
</event>
<event>
 8    1  0.2025822E+004  0.1043930E+01  0.7957747E-01            NaN
         13   -1    0    0    0    0  0.00000000000E+00  0.00000000000E+00  0.74505805969E-08  0.10566000000E+00  0.10566000000E+00 0. -1.
     999900   -1    0    0    0    0 -0.00000000000E+00 -0.00000000000E+00 -0.74505805969E-08  0.93827000000E+00  0.93827000000E+00 0. -1.
     999902    2    1    2    0    0  0.11905524203E-01 -0.13270117899E-02  0.12814583469E-02  0.10318824026E+01  0.10318120702E+01 0.  0.
     999903    2    3    3    0    0 -0.16769056878E-02 -0.13195702183E+00  0.24380533854E-01  0.14183619641E+00  0.45908915884E-01 0.  0.
         14    1    1    2    0    0 -0.11905524203E-01  0.13270117899E-02 -0.12814583469E-02  0.12047597367E-01  0.00000000000E+00 0.  1.
     999901    1    3    3    0    0  0.13582429891E-01  0.13063001004E+00 -0.23099075507E-01  0.89004620622E+00  0.88000000000E+00 0.  1.
        -11    1    4    4    0    0  0.10020849087E-01 -0.11177751057E+00  0.64512676304E-02  0.11241222914E+00  0.51100000000E-03 0. -1.
         11    1    4    4    0    0 -0.11697754775E-01 -0.20179511264E-01  0.17929266223E-01  0.29423967270E-01  0.51100000000E-03 0.  1.
</event>
<event>
 8    1  0.2025822E+004  0.1043930E+01  0.7957747E-01            NaN
         13   -1    0    0    0    0  0.00000000000E+00  0.00000000000E+00  0.74505805969E-08  0.10566000000E+00  0.10566000000E+00 0.  1.
     999900   -1    0    0    0    0 -0.00000000000E+00 -0.00000000000E+00 -0.74505805969E-08  0.93827000000E+00  0.93827000000E+00 0.  1.
     999902    2    1    2    0    0  0.32878569701E-02  0.28883280133E-02  0.18239669787E-01  0.10251726549E+01  0.10250010411E+01 0.  0.
     999903    2    3    3    0    0  0.50136490404E-01 -0.11556257701E+00  0.23861050373E-01  0.13598369224E+00  0.45319288988E-01 0.  0.
         14    1    1    2    0    0 -0.32878569701E-02 -0.28883280133E-02 -0.18239669787E-01  0.18757345124E-01  0.00000000000E+00 0. -1.
     999901    1    3    3    0    0 -0.46848633434E-01  0.11845090502E+00 -0.56213805858E-02  0.88918896264E+00  0.88000000000E+00 0.  1.
        -11    1    4    4    0    0  0.24255661531E-01 -0.70765431850E-01 -0.79788868695E-02  0.75233019465E-01  0.51100000000E-03 0.  1.
         11    1    4    4    0    0  0.25880828874E-01 -0.44797145161E-01  0.31839937243E-01  0.60750672773E-01  0.51100000000E-03 0. -1.
</event>
<event>
 8    1  0.2025822E+004  0.1043930E+01  0.7957747E-01            NaN
         13   -1    0    0    0    0  0.00000000000E+00  0.00000000000E+00  0.74505805969E-08  0.10566000000E+00  0.10566000000E+00 0.  1.
     999900   -1    0    0    0    0 -0.00000000000E+00 -0.00000000000E+00 -0.74505805969E-08  0.93827000000E+00  0.93827000000E+00 0. -1.
     999902    2    1    2    0    0 -0.10833797639E-01  0.73436721148E-02  0.76095567435E-03  0.10308197084E+01  0.10307363346E+01 0.  0.
     999903    2    3    3    0    0 -0.43161527566E-01 -0.22374594041E-01  0.12444350368E+00  0.14108624826E+00  0.45338768397E-01 0.  0.
         14    1    1    2    0    0  0.10833797639E-01 -0.73436721148E-02 -0.76095567435E-03  0.13110291566E-01  0.00000000000E+00 0. -1.
     999901    1    3    3    0    0  0.32327729928E-01  0.29718266156E-01 -0.12368254801E+00  0.88973346017E+00  0.88000000000E+00 0. -1.
        -11    1    4    4    0    0 -0.26498000470E-01  0.94525218763E-02  0.36503516733E-01  0.46089717439E-01  0.51100000000E-03 0. -1.
         11    1    4    4    0    0 -0.16663527097E-01 -0.31827115917E-01  0.87939986950E-01  0.94996530825E-01  0.51100000000E-03 0.  1.
</event>
<event>
 8    1  0.3283302E+004  0.1043930E+01  0.7957747E-01            NaN
         13   -1    0    0    0    0  0.00000000000E+00  0.00000000000E+00  0.74505805969E-08  0.10566000000E+00  0.10566000000E+00 0. -1.
     999900   -1    0    0    0    0 -0.00000000000E+00 -0.00000000000E+00 -0.74505805969E-08  0.93827000000E+00  0.93827000000E+00 0.  1.
     999902    2    1    2    0    0  0.10503846735E-01 -0.61918440371E-02  0.81310140431E-02  0.10292745192E+01  0.10291701767E+01 0.  0.
     999903    2    3    3    0    0  0.82768126153E-01 -0.10279014338E+00  0.23150265255E-01  0.14091708243E+00  0.43649891825E-01 0.  0.
         14    1    1    2    0    0 -0.10503846735E-01  0.61918440371E-02 -0.81310140431E-02  0.14655480824E-01  0.00000000000E+00 0. -1.
     999901    1    3    3    0    0 -0.72264279418E-01  0.96598299343E-01 -0.15019251212E-01  0.88835743675E+00  0.88000000000E+00 0.  1.
        -11    1    4    4    0    0  0.85156072952E-02 -0.42168968255E-01  0.44502427344E-02  0.43252782947E-01  0.51100000000E-03 0.  1.
         11    1    4    4    0    0  0.74252518857E-01 -0.60621175125E-01  0.18700022520E-01  0.97664299483E-01  0.51100000000E-03 0. -1.
</event>
<event>
 8    1  0.2025822E+004  0.1043930E+01  0.7957747E-01            NaN
         13   -1    0    0    0    0  0.00000000000E+00  0.00000000000E+00  0.74505805969E-08  0.10566000000E+00  0.10566000000E+00 0. -1.
     999900   -1    0    0    0    0 -0.00000000000E+00 -0.00000000000E+00 -0.74505805969E-08  0.93827000000E+00  0.93827000000E+00 0. -1.
     999902    2    1    2    0    0  0.13317313527E-01 -0.51599240538E-02  0.18233011457E-02  0.10295320806E+01  0.10294313988E+01 0.  0.
     999903    2    3    3    0    0 -0.61018497166E-01  0.10467487680E+00 -0.48487772744E-01  0.13817317400E+00  0.45394659136E-01 0.  0.
         14    1    1    2    0    0 -0.13317313527E-01  0.51599240538E-02 -0.18233011457E-02  0.14397919394E-01  0.00000000000E+00 0.  1.
     999901    1    3    3    0    0  0.74335810693E-01 -0.10983480085E+00  0.50311073889E-01  0.89135890661E+00  0.88000000000E+00 0.  1.
        -11    1    4    4    0    0 -0.38218699823E-01  0.58081912285E-01 -0.51013398462E-01  0.86236914917E-01  0.51100000000E-03 0.  1.
         11    1    4    4    0    0 -0.22799797343E-01  0.46592964515E-01  0.25256257185E-02  0.51936259082E-01  0.51100000000E-03 0. -1.
</event>
<event>
 8    1  0.2025822E+004  0.1043930E+01  0.7957747E-01            NaN
         13   -1    0    0    0    0  0.00000000000E+00  0.00000000000E+00  0.74505805969E-08  0.10566000000E+00  0.10566000000E+00 0.  1.
     999900   -1    0    0    0    0 -0.00000000000E+00 -0.00000000000E+00 -0.74505805969E-08  0.93827000000E+00  0.93827000000E+00 0. -1.
     999902    2    1    2    0    0  0.25894955626E-02  0.14175003766E-01 -0.59191177288E-03  0.10295082602E+01  0.10294072427E+01 0.  0.
     999903    2    3    3    0    0 -0.48050951501E-01 -0.11987521510E+00  0.15212059431E-01  0.13777753765E+00  0.45522324101E-01 0.  0.
         14    1    1    2    0    0 -0.25894955626E-02 -0.14175003766E-01  0.59191177288E-03  0.14421739790E-01  0.00000000000E+00 0.  1.
     999901    1    3    3    0    0  0.50640447064E-01  0.13405021887E+00 -0.15803971204E-01  0.89173072256E+00  0.88000000000E+00 0.  1.
        -11    1    4    4    0    0  0.95719623580E-03 -0.57107535651E-01  0.98558750550E-02  0.57961937915E-01  0.51100000000E-03 0.  1.
         11    1    4    4    0    0 -0.49008147737E-01 -0.62767679452E-01  0.53561843762E-02  0.79815599732E-01  0.51100000000E-03 0. -1.
</event>
<event>
 8    1  0.2025822E+004  0.1043930E+01  0.7957747E-01            NaN
         13   -1    0    0    0    0  0.00000000000E+00  0.00000000000E+00  0.74505805969E-08  0.10566000000E+00  0.10566000000E+00 0.  1.
     999900   -1    0    0    0    0 -0.00000000000E+00 -0.00000000000E+00 -0.74505805969E-08  0.93827000000E+00  0.93827000000E+00 0. -1.
     999902    2    1    2    0    0 -0.12259527814E-02 -0.13609110066E-01  0.28661380516E-02  0.10299684247E+01  0.10298737934E+01 0.  0.
     999903    2    3    3    0    0 -0.10429444394E+00 -0.58794086803E-01  0.59489626855E-01  0.14099653794E+00  0.44798798291E-01 0.  0.
         14    1    1    2    0    0  0.12259527814E-02  0.13609110066E-01 -0.28661380516E-02  0.13961575282E-01  0.00000000000E+00 0. -1.
     999901    1    3    3    0    0  0.10306849116E+00  0.45184976737E-01 -0.56623488803E-01  0.88897188678E+00  0.88000000000E+00 0.  1.
        -11    1    4    4    0    0 -0.92351401444E-01 -0.40417476631E-01  0.62880701007E-01  0.11881328817E+00  0.51100000000E-03 0.  1.
         11    1    4    4    0    0 -0.11943042498E-01 -0.18376610172E-01 -0.33910741525E-02  0.22183249772E-01  0.51100000000E-03 0. -1.
</event>
<event>
 8    1  0.2422923E+004  0.1043930E+01  0.7957747E-01            NaN
         13   -1    0    0    0    0  0.00000000000E+00  0.00000000000E+00  0.74505805969E-08  0.10566000000E+00  0.10566000000E+00 0.  1.
     999900   -1    0    0    0    0 -0.00000000000E+00 -0.00000000000E+00 -0.74505805969E-08  0.93827000000E+00  0.93827000000E+00 0.  1.
     999902    2    1    2    0    0 -0.12776272357E-01  0.22076217049E-02  0.64919461666E-02  0.10294299278E+01  0.10293278021E+01 0.  0.
     999903    2    3    3    0    0  0.50815887813E-01 -0.11885881745E+00 -0.23174359954E-01  0.13837373695E+00  0.43595494941E-01 0.  0.
         14    1    1    2    0    0  0.12776272357E-01 -0.22076217049E-02 -0.64919461666E-02  0.14500072206E-01  0.00000000000E+00 0.  1.
     999901    1    3    3    0    0 -0.63592160170E-01  0.12106643915E+00  0.29666306121E-01  0.89105619084E+00  0.88000000000E+00 0. -1.
        -11    1    4    4    0    0  0.18011585145E-01 -0.51531781004E-01  0.11582581368E-01  0.55806441967E-01  0.51100000000E-03 0. -1.
         11    1    4    4    0    0  0.32804302668E-01 -0.67327036442E-01 -0.34756941322E-01  0.82567294983E-01  0.51100000000E-03 0.  1.
</event>
<event>
 8    1  0.2025822E+004  0.1043930E+01  0.7957747E-01            NaN
         13   -1    0    0    0    0  0.00000000000E+00  0.00000000000E+00  0.74505805969E-08  0.10566000000E+00  0.10566000000E+00 0.  1.
     999900   -1    0    0    0    0 -0.00000000000E+00 -0.00000000000E+00 -0.74505805969E-08  0.93827000000E+00  0.93827000000E+00 0. -1.
     999902    2    1    2    0    0 -0.24804263178E-02  0.18239274326E-02 -0.89541032143E-02  0.10344613575E+01  0.10344180224E+01 0.  0.
     999903    2    3    3    0    0  0.84909469887E-01  0.76039957881E-01 -0.76758081348E-01  0.14443754178E+00  0.44482661260E-01 0.  0.
         14    1    1    2    0    0  0.24804263178E-02 -0.18239274326E-02  0.89541032143E-02  0.94686424777E-02  0.00000000000E+00 0.  1.
     999901    1    3    3    0    0 -0.87389896205E-01 -0.74216030448E-01  0.67803978134E-01  0.89002381574E+00  0.88000000000E+00 0.  1.
        -11    1    4    4    0    0  0.43893471362E-01  0.56310062964E-01 -0.25327547937E-01  0.75757546322E-01  0.51100000000E-03 0.  1.
         11    1    4    4    0    0  0.41015998525E-01  0.19729894916E-01 -0.51430533411E-01  0.68679995460E-01  0.51100000000E-03 0. -1.
</event>
<event>
 8    1  0.2025822E+004  0.1043930E+01  0.7957747E-01            NaN
         13   -1    0    0    0    0  0.00000000000E+00  0.00000000000E+00  0.74505805969E-08  0.10566000000E+00  0.10566000000E+00 0.  1.
     999900   -1    0    0    0    0 -0.00000000000E+00 -0.00000000000E+00 -0.74505805969E-08  0.93827000000E+00  0.93827000000E+00 0. -1.
     999902    2    1    2    0    0 -0.10896847936E-01 -0.56385801909E-02  0.56367915199E-02  0.10304278409E+01  0.10303393747E+01 0.  0.
     999903    2    3    3    0    0 -0.58365877019E-01  0.66236789789E-01  0.99922182793E-01  0.14120958168E+00  0.46495326895E-01 0.  0.
         14    1    1    2    0    0  0.10896847936E-01  0.56385801909E-02 -0.56367915199E-02  0.13502159092E-01  0.00000000000E+00 0. -1.
     999901    1    3    3    0    0  0.47469029083E-01 -0.71875369980E-01 -0.94285391274E-01  0.88921825923E+00  0.88000000000E+00 0. -1.
        -11    1    4    4    0    0 -0.79642950110E-02  0.27149877149E-02  0.38689908060E-01  0.39597616847E-01  0.51100000000E-03 0. -1.
         11    1    4    4    0    0 -0.50401582008E-01  0.63521802074E-01  0.61232274734E-01  0.10161196484E+00  0.51100000000E-03 0.  1.
</event>
<event>
 8    1  0.2025822E+004  0.1043930E+01  0.7957747E-01            NaN
         13   -1    0    0    0    0  0.00000000000E+00  0.00000000000E+00  0.74505805969E-08  0.10566000000E+00  0.10566000000E+00 0. -1.
     999900   -1    0    0    0    0 -0.00000000000E+00 -0.00000000000E+00 -0.74505805969E-08  0.93827000000E+00  0.93827000000E+00 0.  1.
     999902    2    1    2    0    0 -0.58779747167E-02 -0.11475903731E-01 -0.46055426695E-02  0.10302384706E+01  0.10301474887E+01 0.  0.
     999903    2    3    3    0    0 -0.11878804066E-01  0.12294753967E+00 -0.45240038764E-01  0.13908369487E+00  0.45170892994E-01 0.  0.
         14    1    1    2    0    0  0.58779747167E-02  0.11475903731E-01  0.46055426695E-02  0.13691529371E-01  0.00000000000E+00 0.  1.
     999901    1    3    3    0    0  0.60008293493E-02 -0.13442344340E+00  0.40634496095E-01  0.89115477576E+00  0.88000000000E+00 0. -1.
        -11    1    4    4    0    0  0.10421282303E-01  0.45578842123E-01 -0.33934039545E-01  0.57773818767E-01  0.51100000000E-03 0. -1.
         11    1    4    4    0    0 -0.22300086369E-01  0.77368697548E-01 -0.11305999219E-01  0.81309876101E-01  0.51100000000E-03 0.  1.
</event>
<event>
 8    1  0.2025822E+004  0.1043930E+01  0.7957747E-01            NaN
         13   -1    0    0    0    0  0.00000000000E+00  0.00000000000E+00  0.74505805969E-08  0.10566000000E+00  0.10566000000E+00 0. -1.
     999900   -1    0    0    0    0 -0.00000000000E+00 -0.00000000000E+00 -0.74505805969E-08  0.93827000000E+00  0.93827000000E+00 0.  1.
     999902    2    1    2    0    0  0.11036990351E-01 -0.66086492210E-04 -0.86855475032E-02  0.10298851341E+01  0.10297893625E+01 0.  0.
     999903    2    3    3    0    0 -0.13011721275E+00 -0.13287313773E-01  0.58779916036E-02  0.13841925891E+00  0.44925479319E-01 0.  0.
         14    1    1    2    0    0 -0.11036990351E-01  0.66086492210E-04  0.86855475032E-02  0.14044865926E-01  0.00000000000E+00 0. -1.
     999901    1    3    3    0    0  0.14115420310E+00  0.13221227281E-01 -0.14563539107E-01  0.89146587516E+00  0.88000000000E+00 0. -1.
        -11    1    4    4    0    0 -0.79037815726E-01  0.55115090225E-02 -0.14025374970E-01  0.80463192271E-01  0.51100000000E-03 0.  1.
         11    1    4    4    0    0 -0.51079397023E-01 -0.18798822796E-01  0.19903366573E-01  0.57956066643E-01  0.51100000000E-03 0. -1.
</event>
<event>
 8    1  0.2025822E+004  0.1043930E+01  0.7957747E-01            NaN
         13   -1    0    0    0    0  0.00000000000E+00  0.00000000000E+00  0.74505805969E-08  0.10566000000E+00  0.10566000000E+00 0. -1.
     999900   -1    0    0    0    0 -0.00000000000E+00 -0.00000000000E+00 -0.74505805969E-08  0.93827000000E+00  0.93827000000E+00 0. -1.
     999902    2    1    2    0    0 -0.12566660188E-01 -0.92155182257E-02 -0.88742678463E-03  0.10283212124E+01  0.10282027434E+01 0.  0.
     999903    2    3    3    0    0  0.35859619970E-01  0.12220653527E+00  0.22264997002E-01  0.13694424641E+00  0.45140302656E-01 0.  0.
         14    1    1    2    0    0  0.12566660188E-01  0.92155182257E-02  0.88742678463E-03  0.15608787613E-01  0.00000000000E+00 0.  1.
     999901    1    3    3    0    0 -0.48426280158E-01 -0.13142205350E+00 -0.23152423787E-01  0.89137696598E+00  0.88000000000E+00 0. -1.
        -11    1    4    4    0    0  0.26808032871E-01  0.40504634608E-01  0.25130524066E-01  0.54690953658E-01  0.51100000000E-03 0.  1.
         11    1    4    4    0    0  0.90515870986E-02  0.81701900666E-01 -0.28655270639E-02  0.82253292747E-01  0.51100000000E-03 0. -1.
</event>
<event>
 8    1  0.2025822E+004  0.1043930E+01  0.7957747E-01            NaN
         13   -1    0    0    0    0  0.00000000000E+00  0.00000000000E+00  0.74505805969E-08  0.10566000000E+00  0.10566000000E+00 0. -1.
     999900   -1    0    0    0    0 -0.00000000000E+00 -0.00000000000E+00 -0.74505805969E-08  0.93827000000E+00  0.93827000000E+00 0. -1.
     999902    2    1    2    0    0  0.74035402691E-02  0.14770845711E-01 -0.35410788601E-02  0.10270323809E+01  0.10268933644E+01 0.  0.
     999903    2    3    3    0    0 -0.22233522797E-01  0.11431016644E+00 -0.61559567026E-01  0.13902755161E+00  0.44473993823E-01 0.  0.
         14    1    1    2    0    0 -0.74035402691E-02 -0.14770845711E-01  0.35410788601E-02  0.16897619093E-01  0.00000000000E+00 0.  1.
     999901    1    3    3    0    0  0.29637063066E-01 -0.99539320734E-01  0.58018488166E-01  0.88800482929E+00  0.88000000000E+00 0. -1.
        -11    1    4    4    0    0 -0.31085825271E-01  0.80543250210E-01 -0.28422920985E-01  0.90893714004E-01  0.51100000000E-03 0. -1.
         11    1    4    4    0    0  0.88523024747E-02  0.33766916235E-01 -0.33136646041E-01  0.48133837609E-01  0.51100000000E-03 0.  1.
</event>
<event>
 8    1  0.2025822E+004  0.1043930E+01  0.7957747E-01            NaN
         13   -1    0    0    0    0  0.00000000000E+00  0.00000000000E+00  0.74505805969E-08  0.10566000000E+00  0.10566000000E+00 0.  1.
     999900   -1    0    0    0    0 -0.00000000000E+00 -0.00000000000E+00 -0.74505805969E-08  0.93827000000E+00  0.93827000000E+00 0.  1.
     999902    2    1    2    0    0 -0.39326693858E-02 -0.12782189042E-01  0.35530026079E-02  0.10300925843E+01  0.10299996399E+01 0.  0.
     999903    2    3    3    0    0 -0.11996935931E+00  0.45889410842E-01  0.33799291876E-01  0.14002421163E+00  0.44338499207E-01 0.  0.
         14    1    1    2    0    0  0.39326693858E-02  0.12782189042E-01 -0.35530026079E-02  0.13837415681E-01  0.00000000000E+00 0. -1.
     999901    1    3    3    0    0  0.11603668992E+00 -0.58671599883E-01 -0.30246289268E-01  0.89006837269E+00  0.88000000000E+00 0. -1.
        -11    1    4    4    0    0 -0.56438109423E-01  0.88699569000E-02 -0.41377765486E-02  0.57282795379E-01  0.51100000000E-03 0. -1.
         11    1    4    4    0    0 -0.63531249886E-01  0.37019453942E-01  0.37937068425E-01  0.82741416255E-01  0.51100000000E-03 0.  1.
</event>
<event>
 8    1  0.2025822E+004  0.1043930E+01  0.7957747E-01            NaN
         13   -1    0    0    0    0  0.00000000000E+00  0.00000000000E+00  0.74505805969E-08  0.10566000000E+00  0.10566000000E+00 0. -1.
     999900   -1    0    0    0    0 -0.00000000000E+00 -0.00000000000E+00 -0.74505805969E-08  0.93827000000E+00  0.93827000000E+00 0.  1.
     999902    2    1    2    0    0  0.49570586240E-03  0.34408737085E-02  0.13726723711E-01  0.10297699054E+01  0.10296725449E+01 0.  0.
     999903    2    3    3    0    0  0.55112380215E-01 -0.17790510879E-01  0.12083040684E+00  0.14134154486E+00  0.44984090047E-01 0.  0.
         14    1    1    2    0    0 -0.49570586240E-03 -0.34408737085E-02 -0.13726723711E-01  0.14160094633E-01  0.00000000000E+00 0.  1.
     999901    1    3    3    0    0 -0.54616674353E-01  0.21231384587E-01 -0.10710368313E+00  0.88842836050E+00  0.88000000000E+00 0.  1.
        -11    1    4    4    0    0  0.18839164473E-01 -0.18681065067E-01  0.89659920742E-01  0.93504325132E-01  0.51100000000E-03 0. -1.
         11    1    4    4    0    0  0.36273215742E-01  0.89055418870E-03  0.31170486096E-01  0.47837219730E-01  0.51100000000E-03 0.  1.
</event>
<event>
 8    1  0.2025822E+004  0.1043930E+01  0.7957747E-01            NaN
         13   -1    0    0    0    0  0.00000000000E+00  0.00000000000E+00  0.74505805969E-08  0.10566000000E+00  0.10566000000E+00 0. -1.
     999900   -1    0    0    0    0 -0.00000000000E+00 -0.00000000000E+00 -0.74505805969E-08  0.93827000000E+00  0.93827000000E+00 0.  1.
     999902    2    1    2    0    0  0.21537344983E-02 -0.99750713283E-02 -0.10155942030E-01  0.10295326468E+01  0.10294319730E+01 0.  0.
     999903    2    3    3    0    0 -0.94666440608E-01 -0.21158130731E-01 -0.91356473099E-01  0.14043606411E+00  0.44349537229E-01 0.  0.
         14    1    1    2    0    0 -0.21537344983E-02  0.99750713283E-02  0.10155942030E-01  0.14397353187E-01  0.00000000000E+00 0.  1.
     999901    1    3    3    0    0  0.96820175107E-01  0.11183059403E-01  0.81200531070E-01  0.88909658270E+00  0.88000000000E+00 0. -1.
        -11    1    4    4    0    0 -0.52615253395E-01  0.12943420581E-02 -0.71523146477E-01  0.88802375047E-01  0.51100000000E-03 0.  1.
         11    1    4    4    0    0 -0.42051187214E-01 -0.22452472789E-01 -0.19833326623E-01  0.51633689064E-01  0.51100000000E-03 0. -1.
</event>
<event>
 8    1  0.2025822E+004  0.1043930E+01  0.7957747E-01            NaN
         13   -1    0    0    0    0  0.00000000000E+00  0.00000000000E+00  0.74505805969E-08  0.10566000000E+00  0.10566000000E+00 0.  1.
     999900   -1    0    0    0    0 -0.00000000000E+00 -0.00000000000E+00 -0.74505805969E-08  0.93827000000E+00  0.93827000000E+00 0. -1.
     999902    2    1    2    0    0 -0.11513932794E-01  0.45189105682E-02  0.55551874384E-02  0.10303708220E+01  0.10302816020E+01 0.  0.
     999903    2    3    3    0    0 -0.63097034225E-01 -0.10710863257E+00 -0.47014673807E-01  0.14026683084E+00  0.44843164253E-01 0.  0.
         14    1    1    2    0    0  0.11513932794E-01 -0.45189105682E-02 -0.55551874384E-02  0.13559178020E-01  0.00000000000E+00 0.  1.
     999901    1    3    3    0    0  0.51583101431E-01  0.11162754314E+00  0.52569861246E-01  0.89010399114E+00  0.88000000000E+00 0.  1.
        -11    1    4    4    0    0  0.30543028445E-02 -0.31441335523E-01 -0.95787623187E-02  0.33013635878E-01  0.51100000000E-03 0.  1.
         11    1    4    4    0    0 -0.66151337069E-01 -0.75667297048E-01 -0.37435911488E-01  0.10725319496E+00  0.51100000000E-03 0. -1.
</event>
<event>
 8    1  0.2025822E+004  0.1043930E+01  0.7957747E-01            NaN
         13   -1    0    0    0    0  0.00000000000E+00  0.00000000000E+00  0.74505805969E-08  0.10566000000E+00  0.10566000000E+00 0.  1.
     999900   -1    0    0    0    0 -0.00000000000E+00 -0.00000000000E+00 -0.74505805969E-08  0.93827000000E+00  0.93827000000E+00 0.  1.
     999902    2    1    2    0    0  0.28720507227E-02  0.33351285870E-02 -0.13142985848E-01  0.10300696308E+01  0.10299763757E+01 0.  0.
     999903    2    3    3    0    0 -0.95281950396E-01  0.87565182387E-01 -0.30620277694E-01  0.14044366126E+00  0.45171997361E-01 0.  0.
         14    1    1    2    0    0 -0.28720507227E-02 -0.33351285870E-02  0.13142985848E-01  0.13860369224E-01  0.00000000000E+00 0.  1.
     999901    1    3    3    0    0  0.98154001119E-01 -0.84230053800E-01  0.17477291846E-01  0.88962596951E+00  0.88000000000E+00 0.  1.
        -11    1    4    4    0    0 -0.38097312223E-01  0.28770909193E-01 -0.33582271879E-01  0.58371230242E-01  0.51100000000E-03 0.  1.
         11    1    4    4    0    0 -0.57184638173E-01  0.58794273194E-01  0.29619941847E-02  0.82072431022E-01  0.51100000000E-03 0. -1.
</event>
<event>
 8    1  0.2025822E+004  0.1043930E+01  0.7957747E-01            NaN
         13   -1    0    0    0    0  0.00000000000E+00  0.00000000000E+00  0.74505805969E-08  0.10566000000E+00  0.10566000000E+00 0.  1.
     999900   -1    0    0    0    0 -0.00000000000E+00 -0.00000000000E+00 -0.74505805969E-08  0.93827000000E+00  0.93827000000E+00 0. -1.
     999902    2    1    2    0    0 -0.66608348884E-02 -0.44199782787E-02 -0.10494329515E-01  0.10307378098E+01  0.10306533844E+01 0.  0.
     999903    2    3    3    0    0  0.91330328358E-01 -0.85935937919E-01 -0.46098957558E-01  0.14084185564E+00  0.44554462278E-01 0.  0.
         14    1    1    2    0    0  0.66608348884E-02  0.44199782787E-02  0.10494329515E-01  0.13192190165E-01  0.00000000000E+00 0. -1.
     999901    1    3    3    0    0 -0.97991163247E-01  0.81515959640E-01  0.35604628043E-01  0.88989595419E+00  0.88000000000E+00 0.  1.
        -11    1    4    4    0    0  0.78932410731E-01 -0.90286706755E-01 -0.42020524803E-01  0.12707478313E+00  0.51100000000E-03 0.  1.
         11    1    4    4    0    0  0.12397917627E-01  0.43507688368E-02 -0.40784327543E-02  0.13767072517E-01  0.51100000000E-03 0. -1.
</event>
<event>
 8    1  0.2025822E+004  0.1043930E+01  0.7957747E-01            NaN
         13   -1    0    0    0    0  0.00000000000E+00  0.00000000000E+00  0.74505805969E-08  0.10566000000E+00  0.10566000000E+00 0.  1.
     999900   -1    0    0    0    0 -0.00000000000E+00 -0.00000000000E+00 -0.74505805969E-08  0.93827000000E+00  0.93827000000E+00 0.  1.
     999902    2    1    2    0    0  0.17715527884E-02 -0.77678664231E-02  0.11172362115E-01  0.10302077617E+01  0.10301163684E+01 0.  0.
     999903    2    3    3    0    0  0.12326154349E+00  0.53661916984E-01  0.26380373745E-02  0.13969876636E+00  0.37891643433E-01 0.  0.
         14    1    1    2    0    0 -0.17715527884E-02  0.77678664231E-02 -0.11172362115E-01  0.13722238275E-01  0.00000000000E+00 0. -1.
     999901    1    3    3    0    0 -0.12148999070E+00 -0.61429783407E-01  0.85343247404E-02  0.89050899537E+00  0.88000000000E+00 0. -1.
        -11    1    4    4    0    0  0.31919270108E-01  0.11445037070E-01  0.17195780258E-01  0.38023475084E-01  0.51100000000E-03 0.  1.
         11    1    4    4    0    0  0.91342273385E-01  0.42216879913E-01 -0.14557742884E-01  0.10167529127E+00  0.51100000000E-03 0. -1.
</event>
<event>
 8    1  0.2025822E+004  0.1043930E+01  0.7957747E-01            NaN
         13   -1    0    0    0    0  0.00000000000E+00  0.00000000000E+00  0.74505805969E-08  0.10566000000E+00  0.10566000000E+00 0.  1.
     999900   -1    0    0    0    0 -0.00000000000E+00 -0.00000000000E+00 -0.74505805969E-08  0.93827000000E+00  0.93827000000E+00 0.  1.
     999902    2    1    2    0    0 -0.55901869953E-02  0.13074724675E-01 -0.46626933128E-02  0.10289653976E+01  0.10288565741E+01 0.  0.
     999903    2    3    3    0    0 -0.12919199239E+00  0.20026057270E-01 -0.12292458315E-01  0.14026750707E+00  0.49317898776E-01 0.  0.
         14    1    1    2    0    0  0.55901869953E-02 -0.13074724675E-01  0.46626933128E-02  0.14964602397E-01  0.00000000000E+00 0.  1.
     999901    1    3    3    0    0  0.12360180540E+00 -0.69513325957E-02  0.76297650024E-02  0.88869789053E+00  0.88000000000E+00 0. -1.
        -11    1    4    4    0    0 -0.11114936937E+00  0.11578249029E-01  0.77281233470E-02  0.11201885187E+00  0.51100000000E-03 0. -1.
         11    1    4    4    0    0 -0.18042623021E-01  0.84478082413E-02 -0.20020581662E-01  0.28248655201E-01  0.51100000000E-03 0.  1.
</event>
<event>
 8    1  0.2025822E+004  0.1043930E+01  0.7957747E-01            NaN
         13   -1    0    0    0    0  0.00000000000E+00  0.00000000000E+00  0.74505805969E-08  0.10566000000E+00  0.10566000000E+00 0. -1.
     999900   -1    0    0    0    0 -0.00000000000E+00 -0.00000000000E+00 -0.74505805969E-08  0.93827000000E+00  0.93827000000E+00 0. -1.
     999902    2    1    2    0    0  0.51949049553E-02 -0.85544127318E-02  0.91517007847E-02  0.10303683393E+01  0.10302790864E+01 0.  0.
     999903    2    3    3    0    0 -0.12716621244E+00 -0.31275829754E-01 -0.20919395934E-01  0.13967198301E+00  0.43831707668E-01 0.  0.
         14    1    1    2    0    0 -0.51949049553E-02  0.85544127318E-02 -0.91517007847E-02  0.13561660737E-01  0.00000000000E+00 0. -1.
     999901    1    3    3    0    0  0.13236111740E+00  0.22721417022E-01  0.30071096719E-01  0.89069635626E+00  0.88000000000E+00 0.  1.
        -11    1    4    4    0    0 -0.90217910638E-01 -0.52007432129E-02 -0.13111061697E-02  0.90378643773E-01  0.51100000000E-03 0. -1.
         11    1    4    4    0    0 -0.36948301805E-01 -0.26075086541E-01 -0.19608289764E-01  0.49293339234E-01  0.51100000000E-03 0.  1.
</event>
<event>
 8    1  0.2025822E+004  0.1043930E+01  0.7957747E-01            NaN
         13   -1    0    0    0    0  0.00000000000E+00  0.00000000000E+00  0.74505805969E-08  0.10566000000E+00  0.10566000000E+00 0. -1.
     999900   -1    0    0    0    0 -0.00000000000E+00 -0.00000000000E+00 -0.74505805969E-08  0.93827000000E+00  0.93827000000E+00 0. -1.
     999902    2    1    2    0    0  0.27767522749E-02 -0.11759030275E-01 -0.52320074593E-02  0.10307634117E+01  0.10306793157E+01 0.  0.
     999903    2    3    3    0    0  0.35783261468E-01  0.62866707532E-02  0.12759506260E+00  0.14000075668E+00  0.44718540246E-01 0.  0.
         14    1    1    2    0    0 -0.27767522749E-02  0.11759030275E-01  0.52320074593E-02  0.13166588331E-01  0.00000000000E+00 0. -1.
     999901    1    3    3    0    0 -0.33006509193E-01 -0.18045701028E-01 -0.13282707006E+00  0.89076265498E+00  0.88000000000E+00 0. -1.
        -11    1    4    4    0    0  0.24711278575E-01  0.25106598890E-01  0.69147406206E-01  0.77605499178E-01  0.51100000000E-03 0.  1.
         11    1    4    4    0    0  0.11071982892E-01 -0.18819928137E-01  0.58447656395E-01  0.62395257507E-01  0.51100000000E-03 0. -1.
</event>
<event>
 8    1  0.2025822E+004  0.1043930E+01  0.7957747E-01            NaN
         13   -1    0    0    0    0  0.00000000000E+00  0.00000000000E+00  0.74505805969E-08  0.10566000000E+00  0.10566000000E+00 0.  1.
     999900   -1    0    0    0    0 -0.00000000000E+00 -0.00000000000E+00 -0.74505805969E-08  0.93827000000E+00  0.93827000000E+00 0.  1.
     999902    2    1    2    0    0  0.42901291503E-03  0.11352292231E-01  0.79278368886E-02  0.10300768708E+01  0.10299837137E+01 0.  0.
     999903    2    3    3    0    0 -0.26843155509E-01 -0.98480344803E-01 -0.81935004160E-01  0.13829084852E+00  0.44632729777E-01 0.  0.
         14    1    1    2    0    0 -0.42901291503E-03 -0.11352292231E-01 -0.79278368886E-02  0.13853129203E-01  0.00000000000E+00 0. -1.
     999901    1    3    3    0    0  0.27272168424E-01  0.10983263703E+00  0.89862841049E-01  0.89178602228E+00  0.88000000000E+00 0. -1.
        -11    1    4    4    0    0  0.77040112957E-02 -0.53853583907E-01 -0.47157922061E-01  0.71997854300E-01  0.51100000000E-03 0. -1.
         11    1    4    4    0    0 -0.34547166805E-01 -0.44626760896E-01 -0.34777082099E-01  0.66292994220E-01  0.51100000000E-03 0.  1.
</event>
<event>
 7    1  0.2025822E+004  0.1043930E+01  0.7957747E-01            NaN
         13   -1    0    0    0    0  0.00000000000E+00  0.00000000000E+00  0.74505805969E-08  0.10566000000E+00  0.10566000000E+00 0.  1.
     999900   -1    0    0    0    0 -0.00000000000E+00 -0.00000000000E+00 -0.74505805969E-08  0.93827000000E+00  0.93827000000E+00 0. -1.
     999903    2    1    2    0    0 -0.86220023122E-01  0.58154547514E-01  0.45801132813E-01  0.12221660822E+00  0.44981238033E-01 0.  0.
         14    1    1    2    0    0 -0.12067304746E-01 -0.52080921255E-03  0.28807131500E-01  0.31236867822E-01  0.00000000000E+00 0.  1.
     999901    1    1    2    0    0  0.98287327868E-01 -0.57633738302E-01 -0.74608264313E-01  0.89047652395E+00  0.88000000000E+00 0.  1.
        -11    1    3    3    0    0 -0.62178529774E-01  0.53452207940E-01  0.51802415790E-01  0.96989996913E-01  0.51100000000E-03 0.  1.
         11    1    3    3    0    0 -0.24041493347E-01  0.47023395740E-02 -0.60012829765E-02  0.25226611310E-01  0.51100000000E-03 0. -1.
</event>
<event>
 7    1  0.2025822E+004  0.1043930E+01  0.7957747E-01            NaN
         13   -1    0    0    0    0  0.00000000000E+00  0.00000000000E+00  0.74505805969E-08  0.10566000000E+00  0.10566000000E+00 0.  1.
     999900   -1    0    0    0    0 -0.00000000000E+00 -0.00000000000E+00 -0.74505805969E-08  0.93827000000E+00  0.93827000000E+00 0.  1.
     999903    2    1    2    0    0 -0.39080675128E-01 -0.93793617909E-01 -0.44548438705E-01  0.11952449768E+00  0.44463470694E-01 0.  0.
         14    1    1    2    0    0 -0.21090360069E-01 -0.21166209075E-01 -0.13936495963E-01  0.32970253475E-01  0.00000000000E+00 0. -1.
     999901    1    1    2    0    0  0.60171035197E-01  0.11495982698E+00  0.58484934668E-01  0.89143524884E+00  0.88000000000E+00 0. -1.
        -11    1    3    3    0    0 -0.34347409914E-01 -0.81517176078E-01 -0.18552271266E-01  0.90383861688E-01  0.51100000000E-03 0. -1.
         11    1    3    3    0    0 -0.47332652139E-02 -0.12276441831E-01 -0.25996167439E-01  0.29140635994E-01  0.51100000000E-03 0.  1.
</event>
<event>
 8    1  0.2025822E+004  0.1043930E+01  0.7957747E-01            NaN
         13   -1    0    0    0    0  0.00000000000E+00  0.00000000000E+00  0.74505805969E-08  0.10566000000E+00  0.10566000000E+00 0.  1.
     999900   -1    0    0    0    0 -0.00000000000E+00 -0.00000000000E+00 -0.74505805969E-08  0.93827000000E+00  0.93827000000E+00 0.  1.
     999902    2    1    2    0    0  0.23346726634E-02  0.12380185667E-01  0.32078951430E-02  0.10309296044E+01  0.10308476313E+01 0.  0.
     999903    2    3    3    0    0  0.89518764497E-01 -0.80234461899E-01  0.56238498840E-01  0.14020474021E+00  0.45204229377E-01 0.  0.
         14    1    1    2    0    0 -0.23346726634E-02 -0.12380185667E-01 -0.32078951430E-02  0.13000395565E-01  0.00000000000E+00 0.  1.
     999901    1    3    3    0    0 -0.87184091834E-01  0.92614647565E-01 -0.53030603697E-01  0.89072486422E+00  0.88000000000E+00 0.  1.
        -11    1    4    4    0    0  0.37009893762E-01 -0.41879727852E-01  0.26720360369E-02  0.55955739105E-01  0.51100000000E-03 0.  1.
         11    1    4    4    0    0  0.52508870736E-01 -0.38354734047E-01  0.53566462803E-01  0.84249001110E-01  0.51100000000E-03 0. -1.
</event>
<event>
 8    1  0.2025822E+004  0.1043930E+01  0.7957747E-01            NaN
         13   -1    0    0    0    0  0.00000000000E+00  0.00000000000E+00  0.74505805969E-08  0.10566000000E+00  0.10566000000E+00 0.  1.
     999900   -1    0    0    0    0 -0.00000000000E+00 -0.00000000000E+00 -0.74505805969E-08  0.93827000000E+00  0.93827000000E+00 0.  1.
     999902    2    1    2    0    0 -0.83150478265E-02  0.71971629932E-02  0.90517863746E-02  0.10296866151E+01  0.10295880979E+01 0.  0.
     999903    2    3    3    0    0  0.66294408115E-01 -0.95200707935E-01 -0.59283636451E-01  0.13799068889E+00  0.45483594089E-01 0.  0.
         14    1    1    2    0    0  0.83150478265E-02 -0.71971629932E-02 -0.90517863746E-02  0.14243384853E-01  0.00000000000E+00 0. -1.
     999901    1    3    3    0    0 -0.74609455942E-01  0.10239787093E+00  0.68335422826E-01  0.89169592625E+00  0.88000000000E+00 0. -1.
        -11    1    4    4    0    0  0.28232348308E-01 -0.23001361190E-01  0.11424709165E-02  0.36437542019E-01  0.51100000000E-03 0. -1.
         11    1    4    4    0    0  0.38062059807E-01 -0.72199346745E-01 -0.60426107367E-01  0.10155314687E+00  0.51100000000E-03 0.  1.
</event>
<event>
 8    1  0.2025822E+004  0.1043930E+01  0.7957747E-01            NaN
         13   -1    0    0    0    0  0.00000000000E+00  0.00000000000E+00  0.74505805969E-08  0.10566000000E+00  0.10566000000E+00 0.  1.
     999900   -1    0    0    0    0 -0.00000000000E+00 -0.00000000000E+00 -0.74505805969E-08  0.93827000000E+00  0.93827000000E+00 0. -1.
     999902    2    1    2    0    0 -0.52985779940E-02 -0.11204928773E-01  0.71647072172E-02  0.10296136322E+01  0.10295140957E+01 0.  0.
     999903    2    3    3    0    0  0.86807176494E-01  0.31747383361E-01 -0.92514666663E-01  0.13817415096E+00  0.44606616159E-01 0.  0.
         14    1    1    2    0    0  0.52985779940E-02  0.11204928773E-01 -0.71647072172E-02  0.14316367803E-01  0.00000000000E+00 0. -1.
     999901    1    3    3    0    0 -0.92105754488E-01 -0.42952312134E-01  0.99679373880E-01  0.89143948124E+00  0.88000000000E+00 0.  1.
        -11    1    4    4    0    0  0.49455444884E-01  0.10371833194E-01 -0.21034056513E-01  0.54736720827E-01  0.51100000000E-03 0. -1.
         11    1    4    4    0    0  0.37351731611E-01  0.21375550167E-01 -0.71480610149E-01  0.83437430135E-01  0.51100000000E-03 0.  1.
</event>
<event>
 8    1  0.2025822E+004  0.1043930E+01  0.7957747E-01            NaN
         13   -1    0    0    0    0  0.00000000000E+00  0.00000000000E+00  0.74505805969E-08  0.10566000000E+00  0.10566000000E+00 0.  1.
     999900   -1    0    0    0    0 -0.00000000000E+00 -0.00000000000E+00 -0.74505805969E-08  0.93827000000E+00  0.93827000000E+00 0.  1.
     999902    2    1    2    0    0  0.16641802823E-03  0.14051438603E-01 -0.10416168927E-01  0.10264380820E+01  0.10262890280E+01 0.  0.
     999903    2    3    3    0    0  0.54837328462E-01  0.11767622917E+00 -0.18173241128E-01  0.13863901807E+00  0.45118545334E-01 0.  0.
         14    1    1    2    0    0 -0.16641802823E-03 -0.14051438603E-01  0.10416168927E-01  0.17491918045E-01  0.00000000000E+00 0.  1.
     999901    1    3    3    0    0 -0.54670910433E-01 -0.10362479057E+00  0.77570722012E-02  0.88779906389E+00  0.88000000000E+00 0. -1.
        -11    1    4    4    0    0  0.97017454683E-02  0.50278123907E-01 -0.25473290250E-01  0.57194084011E-01  0.51100000000E-03 0.  1.
         11    1    4    4    0    0  0.45135582993E-01  0.67398105265E-01  0.73000491220E-02  0.81444934058E-01  0.51100000000E-03 0. -1.
</event>
<event>
 8    1  0.2025822E+004  0.1043930E+01  0.7957747E-01            NaN
         13   -1    0    0    0    0  0.00000000000E+00  0.00000000000E+00  0.74505805969E-08  0.10566000000E+00  0.10566000000E+00 0. -1.
     999900   -1    0    0    0    0 -0.00000000000E+00 -0.00000000000E+00 -0.74505805969E-08  0.93827000000E+00  0.93827000000E+00 0. -1.
     999902    2    1    2    0    0  0.30879589933E-02  0.71972303782E-02 -0.15211365636E-01  0.10268209012E+01  0.10266783537E+01 0.  0.
     999903    2    3    3    0    0 -0.12687638842E+00  0.79079870791E-02  0.21727952013E-01  0.13650873691E+00  0.44747929063E-01 0.  0.
         14    1    1    2    0    0 -0.30879589933E-02 -0.71972303782E-02  0.15211365636E-01  0.17109098760E-01  0.00000000000E+00 0. -1.
     999901    1    3    3    0    0  0.12996434741E+00 -0.71075670093E-03 -0.36939317649E-01  0.89031216433E+00  0.88000000000E+00 0. -1.
        -11    1    4    4    0    0 -0.87385244687E-01 -0.55043743001E-02 -0.37374077062E-02  0.87639651202E-01  0.51100000000E-03 0.  1.
         11    1    4    4    0    0 -0.39491143731E-01  0.13412361379E-01  0.25465359719E-01  0.48869085704E-01  0.51100000000E-03 0. -1.
</event>
<event>
 8    1  0.2025822E+004  0.1043930E+01  0.7957747E-01            NaN
         13   -1    0    0    0    0  0.00000000000E+00  0.00000000000E+00  0.74505805969E-08  0.10566000000E+00  0.10566000000E+00 0. -1.
     999900   -1    0    0    0    0 -0.00000000000E+00 -0.00000000000E+00 -0.74505805969E-08  0.93827000000E+00  0.93827000000E+00 0.  1.
     999902    2    1    2    0    0  0.14164646520E-01  0.23855285768E-02  0.87815770462E-03  0.10295390612E+01  0.10294384778E+01 0.  0.
     999903    2    3    3    0    0  0.18303051984E-01 -0.89367164368E-01 -0.95633012039E-01  0.13951092182E+00  0.44678099068E-01 0.  0.
         14    1    1    2    0    0 -0.14164646520E-01 -0.23855285768E-02 -0.87815770462E-03  0.14390938766E-01  0.00000000000E+00 0.  1.
     999901    1    3    3    0    0 -0.41384054639E-02  0.91752692945E-01  0.96511169744E-01  0.89002813941E+00  0.88000000000E+00 0.  1.
        -11    1    4    4    0    0  0.58194538793E-02 -0.44258643644E-02 -0.31514158409E-01  0.32355179185E-01  0.51100000000E-03 0. -1.
         11    1    4    4    0    0  0.12483598104E-01 -0.84941300004E-01 -0.64118853629E-01  0.10715574264E+00  0.51100000000E-03 0.  1.
</event>
<event>
 8    1  0.2025822E+004  0.1043930E+01  0.7957747E-01            NaN
         13   -1    0    0    0    0  0.00000000000E+00  0.00000000000E+00  0.74505805969E-08  0.10566000000E+00  0.10566000000E+00 0.  1.
     999900   -1    0    0    0    0 -0.00000000000E+00 -0.00000000000E+00 -0.74505805969E-08  0.93827000000E+00  0.93827000000E+00 0.  1.
     999902    2    1    2    0    0 -0.57324796345E-02 -0.55143530359E-02 -0.11269939518E-01  0.10301357639E+01  0.10300434026E+01 0.  0.
     999903    2    3    3    0    0 -0.12677301091E+00  0.66833393887E-02  0.40214874957E-01  0.14027606710E+00  0.44091671688E-01 0.  0.
         14    1    1    2    0    0  0.57324796345E-02  0.55143530359E-02  0.11269939518E-01  0.13794236075E-01  0.00000000000E+00 0.  1.
     999901    1    3    3    0    0  0.12104053128E+00 -0.12197692425E-01 -0.51484814475E-01  0.88985969683E+00  0.88000000000E+00 0.  1.
        -11    1    4    4    0    0 -0.11057499077E+00  0.87995515558E-02  0.49510869089E-01  0.12147365134E+00  0.51100000000E-03 0. -1.
         11    1    4    4    0    0 -0.16198020141E-01 -0.21162121671E-02 -0.92959941318E-02  0.18802415757E-01  0.51100000000E-03 0.  1.
</event>
<event>
 8    1  0.2025822E+004  0.1043930E+01  0.7957747E-01            NaN
         13   -1    0    0    0    0  0.00000000000E+00  0.00000000000E+00  0.74505805969E-08  0.10566000000E+00  0.10566000000E+00 0. -1.
     999900   -1    0    0    0    0 -0.00000000000E+00 -0.00000000000E+00 -0.74505805969E-08  0.93827000000E+00  0.93827000000E+00 0. -1.
     999902    2    1    2    0    0 -0.59255634709E-02  0.86470154765E-02 -0.10196606000E-01  0.10293062538E+01  0.10292023660E+01 0.  0.
     999903    2    3    3    0    0  0.10308596332E+00  0.62650510139E-01 -0.54788836541E-01  0.13981855999E+00  0.44672260456E-01 0.  0.
         14    1    1    2    0    0  0.59255634709E-02 -0.86470154765E-02  0.10196606000E-01  0.14623746203E-01  0.00000000000E+00 0. -1.
     999901    1    3    3    0    0 -0.10901152679E+00 -0.54003494663E-01  0.44592230541E-01  0.88948769381E+00  0.88000000000E+00 0.  1.
        -11    1    4    4    0    0  0.65513835399E-01  0.53285605439E-01 -0.17878782811E-01  0.86321088800E-01  0.51100000000E-03 0.  1.
         11    1    4    4    0    0  0.37572127919E-01  0.93649046999E-02 -0.36910053730E-01  0.53497471190E-01  0.51100000000E-03 0. -1.
</event>
<event>
 8    1  0.2025822E+004  0.1043930E+01  0.7957747E-01            NaN
         13   -1    0    0    0    0  0.00000000000E+00  0.00000000000E+00  0.74505805969E-08  0.10566000000E+00  0.10566000000E+00 0. -1.
     999900   -1    0    0    0    0 -0.00000000000E+00 -0.00000000000E+00 -0.74505805969E-08  0.93827000000E+00  0.93827000000E+00 0. -1.
     999902    2    1    2    0    0  0.11899589291E-01 -0.58790537650E-02  0.41944683038E-03  0.10306507141E+01  0.10305651629E+01 0.  0.
     999903    2    3    3    0    0  0.11871016321E+00 -0.65645799942E-01 -0.19027717175E-02  0.14217676662E+00  0.42533969091E-01 0.  0.
         14    1    1    2    0    0 -0.11899589291E-01  0.58790537650E-02 -0.41944683038E-03  0.13279285904E-01  0.00000000000E+00 0. -1.
     999901    1    3    3    0    0 -0.10681057392E+00  0.59766746177E-01  0.23222185479E-02  0.88847394748E+00  0.88000000000E+00 0. -1.
        -11    1    4    4    0    0  0.42484592462E-01 -0.18275086531E-02  0.30675583218E-02  0.42637441523E-01  0.51100000000E-03 0. -1.
         11    1    4    4    0    0  0.76225570746E-01 -0.63818291289E-01 -0.49703300394E-02  0.99539325095E-01  0.51100000000E-03 0.  1.
</event>
<event>
 8    1  0.2025822E+004  0.1043930E+01  0.7957747E-01            NaN
         13   -1    0    0    0    0  0.00000000000E+00  0.00000000000E+00  0.74505805969E-08  0.10566000000E+00  0.10566000000E+00 0. -1.
     999900   -1    0    0    0    0 -0.00000000000E+00 -0.00000000000E+00 -0.74505805969E-08  0.93827000000E+00  0.93827000000E+00 0. -1.
     999902    2    1    2    0    0  0.77426146200E-03  0.96347004754E-02 -0.94276720289E-02  0.10304278545E+01  0.10303393884E+01 0.  0.
     999903    2    3    3    0    0  0.55007587438E-01  0.53358969551E-01  0.10975116389E+00  0.13966601184E+00  0.39853012205E-01 0.  0.
         14    1    1    2    0    0 -0.77426146200E-03 -0.96347004754E-02  0.94276720289E-02  0.13502145531E-01  0.00000000000E+00 0.  1.
     999901    1    3    3    0    0 -0.54233325976E-01 -0.43724269076E-01 -0.11917883591E+00  0.89076184263E+00  0.88000000000E+00 0. -1.
        -11    1    4    4    0    0  0.32578218620E-01  0.41854584177E-01  0.98882441238E-01  0.11221027070E+00  0.51100000000E-03 0. -1.
         11    1    4    4    0    0  0.22429368818E-01  0.11504385375E-01  0.10868722648E-01  0.27455741138E-01  0.51100000000E-03 0.  1.
</event>
<event>
 8    1  0.2025822E+004  0.1043930E+01  0.7957747E-01            NaN
         13   -1    0    0    0    0  0.00000000000E+00  0.00000000000E+00  0.74505805969E-08  0.10566000000E+00  0.10566000000E+00 0. -1.
     999900   -1    0    0    0    0 -0.00000000000E+00 -0.00000000000E+00 -0.74505805969E-08  0.93827000000E+00  0.93827000000E+00 0. -1.
     999902    2    1    2    0    0  0.56536541385E-02 -0.11380741355E-01 -0.16249816592E-03  0.10312212831E+01  0.10311429694E+01 0.  0.
     999903    2    3    3    0    0 -0.10738887866E+00 -0.71764393273E-01 -0.34846852189E-01  0.14126184357E+00  0.45366352512E-01 0.  0.
         14    1    1    2    0    0 -0.56536541385E-02  0.11380741355E-01  0.16249816592E-03  0.12708716873E-01  0.00000000000E+00 0.  1.
     999901    1    3    3    0    0  0.11304253280E+00  0.60383651918E-01  0.34684354023E-01  0.88995943956E+00  0.88000000000E+00 0. -1.
        -11    1    4    4    0    0 -0.30534776151E-01  0.14618689914E-02 -0.10725645603E-01  0.32400774838E-01  0.51100000000E-03 0. -1.
         11    1    4    4    0    0 -0.76854102508E-01 -0.73226262264E-01 -0.24121206586E-01  0.10886106873E+00  0.51100000000E-03 0.  1.
</event>
<event>
 8    1  0.2025822E+004  0.1043930E+01  0.7957747E-01            NaN
         13   -1    0    0    0    0  0.00000000000E+00  0.00000000000E+00  0.74505805969E-08  0.10566000000E+00  0.10566000000E+00 0. -1.
     999900   -1    0    0    0    0 -0.00000000000E+00 -0.00000000000E+00 -0.74505805969E-08  0.93827000000E+00  0.93827000000E+00 0.  1.
     999902    2    1    2    0    0  0.11668679499E-01 -0.31480427061E-02  0.50082277118E-02  0.10308475461E+01  0.10307645283E+01 0.  0.
     999903    2    3    3    0    0  0.11208447871E+00  0.56757364286E-01 -0.47206697187E-01  0.14157908898E+00  0.45075907207E-01 0.  0.
         14    1    1    2    0    0 -0.11668679499E-01  0.31480427061E-02 -0.50082277118E-02  0.13082453857E-01  0.00000000000E+00 0. -1.
     999901    1    3    3    0    0 -0.10041579921E+00 -0.59905406992E-01  0.52214924898E-01  0.88926845716E+00  0.88000000000E+00 0. -1.
        -11    1    4    4    0    0  0.94871016726E-01  0.43241286024E-01 -0.19172958009E-01  0.10601029229E+00  0.51100000000E-03 0. -1.
         11    1    4    4    0    0  0.17213461980E-01  0.13516078261E-01 -0.28033739177E-01  0.35568796692E-01  0.51100000000E-03 0.  1.
</event>
<event>
 8    1  0.2025822E+004  0.1043930E+01  0.7957747E-01            NaN
         13   -1    0    0    0    0  0.00000000000E+00  0.00000000000E+00  0.74505805969E-08  0.10566000000E+00  0.10566000000E+00 0.  1.
     999900   -1    0    0    0    0 -0.00000000000E+00 -0.00000000000E+00 -0.74505805969E-08  0.93827000000E+00  0.93827000000E+00 0. -1.
     999902    2    1    2    0    0  0.27135802551E-02 -0.14245780077E-01  0.13188425977E-02  0.10293682311E+01  0.10292652282E+01 0.  0.
     999903    2    3    3    0    0 -0.43068280807E-01 -0.35575651230E-01 -0.11970705003E+00  0.13965018087E+00  0.45297808111E-01 0.  0.
         14    1    1    2    0    0 -0.27135802551E-02  0.14245780077E-01 -0.13188425977E-02  0.14561768904E-01  0.00000000000E+00 0. -1.
     999901    1    3    3    0    0  0.45781861062E-01  0.21329871153E-01  0.12102589263E+00  0.88971805022E+00  0.88000000000E+00 0.  1.
        -11    1    4    4    0    0 -0.50464507917E-01 -0.22739855892E-01 -0.80146395205E-01  0.97403662101E-01  0.51100000000E-03 0. -1.
         11    1    4    4    0    0  0.73962271103E-02 -0.12835795339E-01 -0.39560654823E-01  0.42246518773E-01  0.51100000000E-03 0.  1.
</event>
<event>
 8    1  0.2025822E+004  0.1043930E+01  0.7957747E-01            NaN
         13   -1    0    0    0    0  0.00000000000E+00  0.00000000000E+00  0.74505805969E-08  0.10566000000E+00  0.10566000000E+00 0. -1.
     999900   -1    0    0    0    0 -0.00000000000E+00 -0.00000000000E+00 -0.74505805969E-08  0.93827000000E+00  0.93827000000E+00 0.  1.
     999902    2    1    2    0    0 -0.66319294317E-02 -0.20835220784E-03  0.11708140307E-01  0.10304724204E+01  0.10303845412E+01 0.  0.
     999903    2    3    3    0    0  0.10761664883E+00 -0.64653320759E-01 -0.40382353150E-01  0.13922648853E+00  0.44630546414E-01 0.  0.
         14    1    1    2    0    0  0.66319294317E-02  0.20835220784E-03 -0.11708140307E-01  0.13457579577E-01  0.00000000000E+00 0.  1.
     999901    1    3    3    0    0 -0.11424857826E+00  0.64444968552E-01  0.52090493457E-01  0.89124593189E+00  0.88000000000E+00 0.  1.
        -11    1    4    4    0    0  0.59341906382E-01 -0.18061768839E-01 -0.36605488713E-01  0.72027163429E-01  0.51100000000E-03 0. -1.
         11    1    4    4    0    0  0.48274742443E-01 -0.46591551920E-01 -0.37768644371E-02  0.67199325103E-01  0.51100000000E-03 0.  1.
</event>
<event>
 8    1  0.2025822E+004  0.1043930E+01  0.7957747E-01            NaN
         13   -1    0    0    0    0  0.00000000000E+00  0.00000000000E+00  0.74505805969E-08  0.10566000000E+00  0.10566000000E+00 0. -1.
     999900   -1    0    0    0    0 -0.00000000000E+00 -0.00000000000E+00 -0.74505805969E-08  0.93827000000E+00  0.93827000000E+00 0.  1.
     999902    2    1    2    0    0  0.93570297679E-02 -0.42518847728E-02  0.89519327225E-02  0.10303002667E+01  0.10302101096E+01 0.  0.
     999903    2    3    3    0    0  0.38910044543E-01  0.47780786365E-01  0.11932249027E+00  0.14138945030E+00  0.44228100354E-01 0.  0.
         14    1    1    2    0    0 -0.93570297679E-02  0.42518847728E-02 -0.89519327225E-02  0.13629733294E-01  0.00000000000E+00 0.  1.
     999901    1    3    3    0    0 -0.29553014775E-01 -0.52032671138E-01 -0.11037055754E+00  0.88891081640E+00  0.88000000000E+00 0.  1.
        -11    1    4    4    0    0  0.35152959030E-01  0.25467830352E-01  0.40458856595E-01  0.59342405658E-01  0.51100000000E-03 0.  1.
         11    1    4    4    0    0  0.37570855136E-02  0.22312956013E-01  0.78863633673E-01  0.82047044643E-01  0.51100000000E-03 0. -1.
</event>
<event>
 8    1  0.2342297E+004  0.1043930E+01  0.7957747E-01            NaN
         13   -1    0    0    0    0  0.00000000000E+00  0.00000000000E+00  0.74505805969E-08  0.10566000000E+00  0.10566000000E+00 0. -1.
     999900   -1    0    0    0    0 -0.00000000000E+00 -0.00000000000E+00 -0.74505805969E-08  0.93827000000E+00  0.93827000000E+00 0.  1.
     999902    2    1    2    0    0 -0.28811890653E-02 -0.56864389597E-02 -0.14836092607E-01  0.10277823537E+01  0.10276554968E+01 0.  0.
     999903    2    3    3    0    0 -0.31375444513E-01  0.51559840838E-01 -0.11776448370E+00  0.13947873843E+00  0.44079577430E-01 0.  0.
         14    1    1    2    0    0  0.28811890653E-02  0.56864389597E-02  0.14836092607E-01  0.16147646340E-01  0.00000000000E+00 0. -1.
     999901    1    3    3    0    0  0.28494255447E-01 -0.57246279797E-01  0.10292839109E+00  0.88830361523E+00  0.88000000000E+00 0.  1.
        -11    1    4    4    0    0  0.52665308372E-02  0.60922824124E-02 -0.47197722662E-01  0.47882547944E-01  0.51100000000E-03 0.  1.
         11    1    4    4    0    0 -0.36641975350E-01  0.45467558425E-01 -0.70566761037E-01  0.91596190483E-01  0.51100000000E-03 0. -1.
</event>
<event>
 8    1  0.2025822E+004  0.1043930E+01  0.7957747E-01            NaN
         13   -1    0    0    0    0  0.00000000000E+00  0.00000000000E+00  0.74505805969E-08  0.10566000000E+00  0.10566000000E+00 0. -1.
     999900   -1    0    0    0    0 -0.00000000000E+00 -0.00000000000E+00 -0.74505805969E-08  0.93827000000E+00  0.93827000000E+00 0. -1.
     999902    2    1    2    0    0  0.88320824372E-02 -0.92626544018E-02  0.67148495364E-02  0.10294769155E+01  0.10293754553E+01 0.  0.
     999903    2    3    3    0    0  0.14889719433E-01  0.86275196160E-01  0.98952447921E-01  0.13949267385E+00  0.44738192767E-01 0.  0.
         14    1    1    2    0    0 -0.88320824372E-02  0.92626544018E-02 -0.67148495364E-02  0.14453084482E-01  0.00000000000E+00 0.  1.
     999901    1    3    3    0    0 -0.60576369957E-02 -0.95537850562E-01 -0.92237598384E-01  0.88998424166E+00  0.88000000000E+00 0.  1.
        -11    1    4    4    0    0  0.22461662453E-01  0.51502940543E-01  0.34699071352E-01  0.66040637780E-01  0.51100000000E-03 0. -1.
         11    1    4    4    0    0 -0.75719430201E-02  0.34772255616E-01  0.64253376569E-01  0.73452036073E-01  0.51100000000E-03 0.  1.
</event>
<event>
 8    1  0.2025822E+004  0.1043930E+01  0.7957747E-01            NaN
         13   -1    0    0    0    0  0.00000000000E+00  0.00000000000E+00  0.74505805969E-08  0.10566000000E+00  0.10566000000E+00 0.  1.
     999900   -1    0    0    0    0 -0.00000000000E+00 -0.00000000000E+00 -0.74505805969E-08  0.93827000000E+00  0.93827000000E+00 0.  1.
     999902    2    1    2    0    0  0.10924366030E-01 -0.64492479626E-02  0.12830923534E-01  0.10258865200E+01  0.10257278317E+01 0.  0.
     999903    2    3    3    0    0  0.83209760300E-01  0.57226972456E-01  0.82717414527E-01  0.13787528081E+00  0.44369266466E-01 0.  0.
         14    1    1    2    0    0 -0.10924366030E-01  0.64492479626E-02 -0.12830923534E-01  0.18043480019E-01  0.00000000000E+00 0. -1.
     999901    1    3    3    0    0 -0.72285394269E-01 -0.63676220418E-01 -0.69886490993E-01  0.88801123917E+00  0.88000000000E+00 0.  1.
        -11    1    4    4    0    0  0.66389361831E-01  0.22048512086E-01  0.42493189219E-01  0.81851185090E-01  0.51100000000E-03 0.  1.
         11    1    4    4    0    0  0.16820398468E-01  0.35178460369E-01  0.40224225309E-01  0.56024095720E-01  0.51100000000E-03 0. -1.
</event>
<event>
 8    1  0.2025822E+004  0.1043930E+01  0.7957747E-01            NaN
         13   -1    0    0    0    0  0.00000000000E+00  0.00000000000E+00  0.74505805969E-08  0.10566000000E+00  0.10566000000E+00 0.  1.
     999900   -1    0    0    0    0 -0.00000000000E+00 -0.00000000000E+00 -0.74505805969E-08  0.93827000000E+00  0.93827000000E+00 0. -1.
     999902    2    1    2    0    0 -0.17263045677E-02  0.13403564276E-01  0.88339150373E-03  0.10303868821E+01  0.10302978747E+01 0.  0.
     999903    2    3    3    0    0  0.30010543514E-01 -0.92802573238E-01  0.87848877886E-01  0.13917985394E+00  0.46267224622E-01 0.  0.
         14    1    1    2    0    0  0.17263045677E-02 -0.13403564276E-01 -0.88339150373E-03  0.13543117932E-01  0.00000000000E+00 0. -1.
     999901    1    3    3    0    0 -0.31736848081E-01  0.10620613751E+00 -0.86965486382E-01  0.89120702813E+00  0.88000000000E+00 0. -1.
        -11    1    4    4    0    0 -0.72533688020E-02 -0.52027796519E-01  0.38825526349E-01  0.65323698509E-01  0.51100000000E-03 0.  1.
         11    1    4    4    0    0  0.37263912316E-01 -0.40774776718E-01  0.49023351537E-01  0.73856155427E-01  0.51100000000E-03 0. -1.
</event>
<event>
 8    1  0.2025822E+004  0.1043930E+01  0.7957747E-01            NaN
         13   -1    0    0    0    0  0.00000000000E+00  0.00000000000E+00  0.74505805969E-08  0.10566000000E+00  0.10566000000E+00 0. -1.
     999900   -1    0    0    0    0 -0.00000000000E+00 -0.00000000000E+00 -0.74505805969E-08  0.93827000000E+00  0.93827000000E+00 0. -1.
     999902    2    1    2    0    0  0.53565785419E-02 -0.51367860049E-02  0.10683645318E-01  0.10309215496E+01  0.10308394743E+01 0.  0.
     999903    2    3    3    0    0 -0.49838931241E-01 -0.11991094333E+00 -0.28582004513E-01  0.14088703189E+00  0.46579731376E-01 0.  0.
         14    1    1    2    0    0 -0.53565785419E-02  0.51367860049E-02 -0.10683645318E-01  0.13008450385E-01  0.00000000000E+00 0.  1.
     999901    1    3    3    0    0  0.55195509783E-01  0.11477415732E+00  0.39265649831E-01  0.89003451773E+00  0.88000000000E+00 0. -1.
        -11    1    4    4    0    0 -0.39898590171E-01 -0.95356727565E-01 -0.20464928546E-02  0.10338884003E+00  0.51100000000E-03 0.  1.
         11    1    4    4    0    0 -0.99403410697E-02 -0.24554215763E-01 -0.26535511658E-01  0.37498191853E-01  0.51100000000E-03 0. -1.
</event>
<event>
 8    1  0.2025822E+004  0.1043930E+01  0.7957747E-01            NaN
         13   -1    0    0    0    0  0.00000000000E+00  0.00000000000E+00  0.74505805969E-08  0.10566000000E+00  0.10566000000E+00 0. -1.
     999900   -1    0    0    0    0 -0.00000000000E+00 -0.00000000000E+00 -0.74505805969E-08  0.93827000000E+00  0.93827000000E+00 0.  1.
     999902    2    1    2    0    0 -0.75347452389E-02 -0.19725458361E-02 -0.94548901732E-02  0.10316801726E+01  0.10316074449E+01 0.  0.
     999903    2    3    3    0    0  0.52820146815E-01 -0.71918240133E-01  0.98482677339E-01  0.14028484414E+00  0.44931042555E-01 0.  0.
         14    1    1    2    0    0  0.75347452389E-02  0.19725458361E-02  0.94548901732E-02  0.12249827390E-01  0.00000000000E+00 0. -1.
     999901    1    3    3    0    0 -0.60354892054E-01  0.69945694297E-01 -0.10793756751E+00  0.89139532847E+00  0.88000000000E+00 0.  1.
        -11    1    4    4    0    0  0.49695612973E-01 -0.36184993697E-01  0.46299330200E-01  0.76960358728E-01  0.51100000000E-03 0.  1.
         11    1    4    4    0    0  0.31245338427E-02 -0.35733246436E-01  0.52183347139E-01  0.63324485408E-01  0.51100000000E-03 0. -1.
</event>
<event>
 8    1  0.2025822E+004  0.1043930E+01  0.7957747E-01            NaN
         13   -1    0    0    0    0  0.00000000000E+00  0.00000000000E+00  0.74505805969E-08  0.10566000000E+00  0.10566000000E+00 0.  1.
     999900   -1    0    0    0    0 -0.00000000000E+00 -0.00000000000E+00 -0.74505805969E-08  0.93827000000E+00  0.93827000000E+00 0.  1.
     999902    2    1    2    0    0 -0.26554155229E-02 -0.12161789068E-01  0.10188289237E-01  0.10278439320E+01  0.10277180484E+01 0.  0.
     999903    2    3    3    0    0  0.43549798795E-01  0.52615784209E-01  0.11225842460E+00  0.13837815509E+00  0.43376885412E-01 0.  0.
         14    1    1    2    0    0  0.26554155229E-02  0.12161789068E-01 -0.10188289237E-01  0.16086067963E-01  0.00000000000E+00 0. -1.
     999901    1    3    3    0    0 -0.46205214318E-01 -0.64777573277E-01 -0.10207013537E+00  0.88946577695E+00  0.88000000000E+00 0.  1.
        -11    1    4    4    0    0  0.36377106125E-01  0.47495693938E-01  0.57728320330E-01  0.83138167419E-01  0.51100000000E-03 0.  1.
         11    1    4    4    0    0  0.71726926696E-02  0.51200902703E-02  0.54530104274E-01  0.55239987668E-01  0.51100000000E-03 0. -1.
</event>
<event>
 8    1  0.2025822E+004  0.1043930E+01  0.7957747E-01            NaN
         13   -1    0    0    0    0  0.00000000000E+00  0.00000000000E+00  0.74505805969E-08  0.10566000000E+00  0.10566000000E+00 0. -1.
     999900   -1    0    0    0    0 -0.00000000000E+00 -0.00000000000E+00 -0.74505805969E-08  0.93827000000E+00  0.93827000000E+00 0. -1.
     999902    2    1    2    0    0 -0.11929687320E-01  0.18007764086E-03  0.83927000703E-02  0.10293427699E+01  0.10292394040E+01 0.  0.
     999903    2    3    3    0    0  0.13222128057E-01  0.12328854232E+00  0.45734426321E-01  0.13963342837E+00  0.45066253763E-01 0.  0.
         14    1    1    2    0    0  0.11929687320E-01 -0.18007764086E-03 -0.83927000703E-02  0.14587230100E-01  0.00000000000E+00 0. -1.
     999901    1    3    3    0    0 -0.25151815377E-01 -0.12310846468E+00 -0.37341726251E-01  0.88970934153E+00  0.88000000000E+00 0.  1.
        -11    1    4    4    0    0  0.24228327444E-01  0.90237788101E-01  0.18115851232E-01  0.95175182895E-01  0.51100000000E-03 0.  1.
         11    1    4    4    0    0 -0.11006199387E-01  0.33050754221E-01  0.27618575089E-01  0.44458245472E-01  0.51100000000E-03 0. -1.
</event>
<event>
 8    1  0.2025822E+004  0.1043930E+01  0.7957747E-01            NaN
         13   -1    0    0    0    0  0.00000000000E+00  0.00000000000E+00  0.74505805969E-08  0.10566000000E+00  0.10566000000E+00 0.  1.
     999900   -1    0    0    0    0 -0.00000000000E+00 -0.00000000000E+00 -0.74505805969E-08  0.93827000000E+00  0.93827000000E+00 0.  1.
     999902    2    1    2    0    0 -0.11371248656E-01 -0.52876845339E-02 -0.21977165485E-01  0.10186266266E+01  0.10183123016E+01 0.  0.
     999903    2    3    3    0    0  0.46453135820E-01  0.21186053601E-01 -0.11279637196E+00  0.13166966792E+00  0.44801085110E-01 0.  0.
         14    1    1    2    0    0  0.11371248656E-01  0.52876845339E-02  0.21977165485E-01  0.25303373421E-01  0.00000000000E+00 0.  1.
     999901    1    3    3    0    0 -0.57824384475E-01 -0.26473738135E-01  0.90819206479E-01  0.88695695866E+00  0.88000000000E+00 0. -1.
        -11    1    4    4    0    0  0.42376405383E-01 -0.19701383459E-02 -0.86803903936E-01  0.96616872428E-01  0.51100000000E-03 0.  1.
         11    1    4    4    0    0  0.40767304366E-02  0.23156191947E-01 -0.25992468028E-01  0.35052795491E-01  0.51100000000E-03 0. -1.
</event>
<event>
 8    1  0.2025822E+004  0.1043930E+01  0.7957747E-01            NaN
         13   -1    0    0    0    0  0.00000000000E+00  0.00000000000E+00  0.74505805969E-08  0.10566000000E+00  0.10566000000E+00 0. -1.
     999900   -1    0    0    0    0 -0.00000000000E+00 -0.00000000000E+00 -0.74505805969E-08  0.93827000000E+00  0.93827000000E+00 0.  1.
     999902    2    1    2    0    0  0.15836557756E-01  0.20924324013E-01  0.46916335018E-02  0.10172722559E+01  0.10169229112E+01 0.  0.
     999903    2    3    3    0    0  0.10283898232E+00 -0.41950664607E-01 -0.48108453394E-01  0.12917849098E+00  0.45132523727E-01 0.  0.
         14    1    1    2    0    0 -0.15836557756E-01 -0.20924324013E-01 -0.46916335018E-02  0.26657744126E-01  0.00000000000E+00 0.  1.
     999901    1    3    3    0    0 -0.87002424562E-01  0.62874988620E-01  0.52800086895E-01  0.88809376490E+00  0.88000000000E+00 0. -1.
        -11    1    4    4    0    0  0.40819010770E-01  0.34773922294E-02 -0.28281972882E-01  0.49783682146E-01  0.51100000000E-03 0.  1.
         11    1    4    4    0    0  0.62019971548E-01 -0.45428056836E-01 -0.19826480512E-01  0.79394808830E-01  0.51100000000E-03 0. -1.
</event>
<event>
 8    1  0.2025822E+004  0.1043930E+01  0.7957747E-01            NaN
         13   -1    0    0    0    0  0.00000000000E+00  0.00000000000E+00  0.74505805969E-08  0.10566000000E+00  0.10566000000E+00 0.  1.
     999900   -1    0    0    0    0 -0.00000000000E+00 -0.00000000000E+00 -0.74505805969E-08  0.93827000000E+00  0.93827000000E+00 0. -1.
     999902    2    1    2    0    0 -0.10880934372E-01  0.61065604215E-02 -0.59782040488E-02  0.10300944033E+01  0.10300014835E+01 0.  0.
     999903    2    3    3    0    0 -0.11638163587E+00 -0.24078929206E-01 -0.62180936505E-01  0.14149983378E+00  0.45069436379E-01 0.  0.
         14    1    1    2    0    0  0.10880934372E-01 -0.61065604215E-02  0.59782040488E-02  0.13835596721E-01  0.00000000000E+00 0.  1.
     999901    1    3    3    0    0  0.10550070150E+00  0.30185489628E-01  0.56202732456E-01  0.88859456950E+00  0.88000000000E+00 0.  1.
        -11    1    4    4    0    0 -0.17238538702E-01  0.35611732503E-02 -0.27943637743E-01  0.33029640973E-01  0.51100000000E-03 0.  1.
         11    1    4    4    0    0 -0.99143097172E-01 -0.27640102457E-01 -0.34237298762E-01  0.10847019281E+00  0.51100000000E-03 0. -1.
</event>
<event>
 8    1  0.2025822E+004  0.1043930E+01  0.7957747E-01            NaN
         13   -1    0    0    0    0  0.00000000000E+00  0.00000000000E+00  0.74505805969E-08  0.10566000000E+00  0.10566000000E+00 0. -1.
     999900   -1    0    0    0    0 -0.00000000000E+00 -0.00000000000E+00 -0.74505805969E-08  0.93827000000E+00  0.93827000000E+00 0. -1.
     999902    2    1    2    0    0 -0.12689459496E-02  0.10499417484E-01 -0.97309809769E-02  0.10295585010E+01  0.10294581910E+01 0.  0.
     999903    2    3    3    0    0 -0.53903381006E-02  0.11957019741E+00 -0.60226278388E-01  0.14137879177E+00  0.45107319823E-01 0.  0.
         14    1    1    2    0    0  0.12689459496E-02 -0.10499417484E-01  0.97309809769E-02  0.14371498951E-01  0.00000000000E+00 0. -1.
     999901    1    3    3    0    0  0.41213921510E-02 -0.10907077993E+00  0.50495297411E-01  0.88817970927E+00  0.88000000000E+00 0.  1.
        -11    1    4    4    0    0 -0.13582809945E-01  0.74806564434E-01 -0.15551077429E-01  0.77605489101E-01  0.51100000000E-03 0.  1.
         11    1    4    4    0    0  0.81924718442E-02  0.44763632976E-01 -0.44675200959E-01  0.63773302673E-01  0.51100000000E-03 0. -1.
</event>
<event>
 8    1  0.2025822E+004  0.1043930E+01  0.7957747E-01            NaN
         13   -1    0    0    0    0  0.00000000000E+00  0.00000000000E+00  0.74505805969E-08  0.10566000000E+00  0.10566000000E+00 0. -1.
     999900   -1    0    0    0    0 -0.00000000000E+00 -0.00000000000E+00 -0.74505805969E-08  0.93827000000E+00  0.93827000000E+00 0.  1.
     999902    2    1    2    0    0 -0.51914138119E-03  0.24454977003E-02 -0.12949069294E-01  0.10307418097E+01  0.10306574358E+01 0.  0.
     999903    2    3    3    0    0  0.11694836821E-02 -0.13300884908E+00 -0.31781238608E-02  0.14032269332E+00  0.44582913340E-01 0.  0.
         14    1    1    2    0    0  0.51914138119E-03 -0.24454977003E-02  0.12949069294E-01  0.13188190261E-01  0.00000000000E+00 0. -1.
     999901    1    3    3    0    0 -0.16886250633E-02  0.13545434678E+00 -0.97709454336E-02  0.89041911642E+00  0.88000000000E+00 0. -1.
        -11    1    4    4    0    0 -0.12409710750E-01 -0.92546146822E-01  0.13792830844E-01  0.94389054007E-01  0.51100000000E-03 0. -1.
         11    1    4    4    0    0  0.13579194432E-01 -0.40462702260E-01 -0.16970954705E-01  0.45933639309E-01  0.51100000000E-03 0.  1.
</event>
<event>
 8    1  0.2025822E+004  0.1043930E+01  0.7957747E-01            NaN
         13   -1    0    0    0    0  0.00000000000E+00  0.00000000000E+00  0.74505805969E-08  0.10566000000E+00  0.10566000000E+00 0.  1.
     999900   -1    0    0    0    0 -0.00000000000E+00 -0.00000000000E+00 -0.74505805969E-08  0.93827000000E+00  0.93827000000E+00 0.  1.
     999902    2    1    2    0    0 -0.24136247932E-01  0.10799129986E-01 -0.83779977964E-02  0.10161924709E+01  0.10158138449E+01 0.  0.
     999903    2    3    3    0    0  0.10752154605E+00 -0.39300533679E-01  0.97176880825E-03  0.12493988654E+00  0.50036147942E-01 0.  0.
         14    1    1    2    0    0  0.24136247932E-01 -0.10799129986E-01  0.83779977964E-02  0.27737529085E-01  0.00000000000E+00 0. -1.
     999901    1    3    3    0    0 -0.13165779399E+00  0.50099663665E-01 -0.93497666046E-02  0.89125258437E+00  0.88000000000E+00 0.  1.
        -11    1    4    4    0    0  0.32267042211E-01 -0.34866547906E-03  0.20164074217E-01  0.38054363622E-01  0.51100000000E-03 0. -1.
         11    1    4    4    0    0  0.75254503844E-01 -0.38951868200E-01 -0.19192305408E-01  0.86885522920E-01  0.51100000000E-03 0.  1.
</event>
<event>
 8    1  0.2025822E+004  0.1043930E+01  0.7957747E-01            NaN
         13   -1    0    0    0    0  0.00000000000E+00  0.00000000000E+00  0.74505805969E-08  0.10566000000E+00  0.10566000000E+00 0. -1.
     999900   -1    0    0    0    0 -0.00000000000E+00 -0.00000000000E+00 -0.74505805969E-08  0.93827000000E+00  0.93827000000E+00 0.  1.
     999902    2    1    2    0    0 -0.40447073348E-02 -0.10293555972E-01  0.15633657288E-01  0.10247798514E+01  0.10246009055E+01 0.  0.
     999903    2    3    3    0    0  0.90379634241E-01  0.35363313872E-01 -0.79336290376E-01  0.13347754744E+00  0.45858112118E-01 0.  0.
         14    1    1    2    0    0  0.40447073348E-02  0.10293555972E-01 -0.15633657288E-01  0.19150148620E-01  0.00000000000E+00 0.  1.
     999901    1    3    3    0    0 -0.94424341576E-01 -0.45656869844E-01  0.94969947664E-01  0.89130230394E+00  0.88000000000E+00 0.  1.
        -11    1    4    4    0    0  0.37240557662E-01  0.28186565389E-02 -0.69992480232E-02  0.38000717803E-01  0.51100000000E-03 0. -1.
         11    1    4    4    0    0  0.53139076579E-01  0.32544657333E-01 -0.72337042352E-01  0.95476829639E-01  0.51100000000E-03 0.  1.
</event>
<event>
 8    1  0.2025822E+004  0.1043930E+01  0.7957747E-01            NaN
         13   -1    0    0    0    0  0.00000000000E+00  0.00000000000E+00  0.74505805969E-08  0.10566000000E+00  0.10566000000E+00 0.  1.
     999900   -1    0    0    0    0 -0.00000000000E+00 -0.00000000000E+00 -0.74505805969E-08  0.93827000000E+00  0.93827000000E+00 0. -1.
     999902    2    1    2    0    0  0.66084209175E-02  0.44882113292E-03 -0.12879852168E-01  0.10294467939E+01  0.10293449073E+01 0.  0.
     999903    2    3    3    0    0  0.90777756424E-01 -0.83928553415E-01 -0.49311626842E-01  0.14066600394E+00  0.45504779776E-01 0.  0.
         14    1    1    2    0    0 -0.66084209175E-02 -0.44882113292E-03  0.12879852168E-01  0.14483206113E-01  0.00000000000E+00 0.  1.
     999901    1    3    3    0    0 -0.84169335507E-01  0.84377374548E-01  0.36431774674E-01  0.88878078995E+00  0.88000000000E+00 0.  1.
        -11    1    4    4    0    0  0.57921514876E-02 -0.30636087133E-01 -0.81106867688E-02  0.32220540258E-01  0.51100000000E-03 0. -1.
         11    1    4    4    0    0  0.84985604937E-01 -0.53292466282E-01 -0.41200940073E-01  0.10844546368E+00  0.51100000000E-03 0.  1.
</event>
<event>
 8    1  0.2025822E+004  0.1043930E+01  0.7957747E-01            NaN
         13   -1    0    0    0    0  0.00000000000E+00  0.00000000000E+00  0.74505805969E-08  0.10566000000E+00  0.10566000000E+00 0. -1.
     999900   -1    0    0    0    0 -0.00000000000E+00 -0.00000000000E+00 -0.74505805969E-08  0.93827000000E+00  0.93827000000E+00 0.  1.
     999902    2    1    2    0    0  0.12276538163E-01  0.69315425861E-02 -0.94098226163E-03  0.10298004169E+01  0.10297034784E+01 0.  0.
     999903    2    3    3    0    0 -0.78441740531E-01 -0.60780869866E-01 -0.85511283551E-01  0.13852778027E+00  0.45059355214E-01 0.  0.
         14    1    1    2    0    0 -0.12276538163E-01 -0.69315425861E-02  0.94098226163E-03  0.14129583133E-01  0.00000000000E+00 0.  1.
     999901    1    3    3    0    0  0.90718278694E-01  0.67712412452E-01  0.84570301290E-01  0.89127263660E+00  0.88000000000E+00 0.  1.
        -11    1    4    4    0    0 -0.35077470937E-01 -0.27341448508E-01 -0.10580474779E-01  0.45718610449E-01  0.51100000000E-03 0.  1.
         11    1    4    4    0    0 -0.43364269594E-01 -0.33439421358E-01 -0.74930808773E-01  0.92809169819E-01  0.51100000000E-03 0. -1.
</event>
<event>
 8    1  0.2025822E+004  0.1043930E+01  0.7957747E-01            NaN
         13   -1    0    0    0    0  0.00000000000E+00  0.00000000000E+00  0.74505805969E-08  0.10566000000E+00  0.10566000000E+00 0. -1.
     999900   -1    0    0    0    0 -0.00000000000E+00 -0.00000000000E+00 -0.74505805969E-08  0.93827000000E+00  0.93827000000E+00 0. -1.
     999902    2    1    2    0    0 -0.12446859837E-01  0.14672349705E-01  0.65724854030E-02  0.10235977662E+01  0.10233958117E+01 0.  0.
     999903    2    3    3    0    0 -0.11371295796E+00 -0.49712882549E-01  0.27758043756E-01  0.13520083431E+00  0.45899336660E-01 0.  0.
         14    1    1    2    0    0  0.12446859837E-01 -0.14672349705E-01 -0.65724854030E-02  0.20332233769E-01  0.00000000000E+00 0. -1.
     999901    1    3    3    0    0  0.10126609812E+00  0.64385232253E-01 -0.21185558353E-01  0.88839693192E+00  0.88000000000E+00 0. -1.
        -11    1    4    4    0    0 -0.76765607863E-01 -0.48348858938E-01  0.35501399692E-01  0.97422693518E-01  0.51100000000E-03 0.  1.
         11    1    4    4    0    0 -0.36947350098E-01 -0.13640236108E-02 -0.77433559363E-02  0.37778140793E-01  0.51100000000E-03 0. -1.
</event>
<event>
 8    1  0.2025822E+004  0.1043930E+01  0.7957747E-01            NaN
         13   -1    0    0    0    0  0.00000000000E+00  0.00000000000E+00  0.74505805969E-08  0.10566000000E+00  0.10566000000E+00 0.  1.
     999900   -1    0    0    0    0 -0.00000000000E+00 -0.00000000000E+00 -0.74505805969E-08  0.93827000000E+00  0.93827000000E+00 0. -1.
     999902    2    1    2    0    0  0.13772849394E-01 -0.21558103454E-02  0.21917637741E-02  0.10298182061E+01  0.10297215133E+01 0.  0.
     999903    2    3    3    0    0  0.69142383014E-01 -0.99661809970E-01  0.56437641552E-01  0.14104612031E+00  0.44672756531E-01 0.  0.
         14    1    1    2    0    0 -0.13772849394E-01  0.21558103454E-02 -0.21917637741E-02  0.14111793901E-01  0.00000000000E+00 0. -1.
     999901    1    3    3    0    0 -0.55369533620E-01  0.97505999625E-01 -0.54245877778E-01  0.88877208579E+00  0.88000000000E+00 0. -1.
        -11    1    4    4    0    0  0.29837649053E-01 -0.10770874469E-01  0.95442051195E-02  0.33130801532E-01  0.51100000000E-03 0.  1.
         11    1    4    4    0    0  0.39304733961E-01 -0.88890935501E-01  0.46893436433E-01  0.10791531878E+00  0.51100000000E-03 0. -1.
</event>
<event>
 8    1  0.2025822E+004  0.1043930E+01  0.7957747E-01            NaN
         13   -1    0    0    0    0  0.00000000000E+00  0.00000000000E+00  0.74505805969E-08  0.10566000000E+00  0.10566000000E+00 0. -1.
     999900   -1    0    0    0    0 -0.00000000000E+00 -0.00000000000E+00 -0.74505805969E-08  0.93827000000E+00  0.93827000000E+00 0. -1.
     999902    2    1    2    0    0  0.16620463317E-02 -0.13599791086E-01 -0.38492641276E-02  0.10296985718E+01  0.10296002210E+01 0.  0.
     999903    2    3    3    0    0  0.75786309920E-01  0.79118577134E-01 -0.72654669540E-01  0.13906661293E+00  0.45359759788E-01 0.  0.
         14    1    1    2    0    0 -0.16620463317E-02  0.13599791086E-01  0.38492641276E-02  0.14231428246E-01  0.00000000000E+00 0. -1.
     999901    1    3    3    0    0 -0.74124263589E-01 -0.92718368220E-01  0.68805405412E-01  0.89063195882E+00  0.88000000000E+00 0.  1.
        -11    1    4    4    0    0  0.71478395334E-01  0.55979100191E-01 -0.41006898092E-01  0.99622524912E-01  0.51100000000E-03 0. -1.
         11    1    4    4    0    0  0.43079145859E-02  0.23139476942E-01 -0.31647771448E-01  0.39444088021E-01  0.51100000000E-03 0.  1.
</event>
<event>
 8    1  0.2025822E+004  0.1043930E+01  0.7957747E-01            NaN
         13   -1    0    0    0    0  0.00000000000E+00  0.00000000000E+00  0.74505805969E-08  0.10566000000E+00  0.10566000000E+00 0. -1.
     999900   -1    0    0    0    0 -0.00000000000E+00 -0.00000000000E+00 -0.74505805969E-08  0.93827000000E+00  0.93827000000E+00 0. -1.
     999902    2    1    2    0    0  0.72533223966E-02 -0.11453025971E-01  0.30806992924E-02  0.10300277269E+01  0.10299339032E+01 0.  0.
     999903    2    3    3    0    0 -0.22979444229E-01 -0.39609746062E-01 -0.12434040826E+00  0.13989124313E+00  0.44855723583E-01 0.  0.
         14    1    1    2    0    0 -0.72533223966E-02  0.11453025971E-01 -0.30806992924E-02  0.13902273117E-01  0.00000000000E+00 0.  1.
     999901    1    3    3    0    0  0.30232766626E-01  0.28156720090E-01  0.12742110755E+00  0.89013648376E+00  0.88000000000E+00 0. -1.
        -11    1    4    4    0    0 -0.10475379851E-01 -0.47291745809E-01 -0.84070256409E-01  0.97027377262E-01  0.51100000000E-03 0. -1.
         11    1    4    4    0    0 -0.12504064378E-01  0.76819997471E-02 -0.40270151847E-01  0.42863865865E-01  0.51100000000E-03 0.  1.
</event>
<event>
 8    1  0.2025822E+004  0.1043930E+01  0.7957747E-01            NaN
         13   -1    0    0    0    0  0.00000000000E+00  0.00000000000E+00  0.74505805969E-08  0.10566000000E+00  0.10566000000E+00 0.  1.
     999900   -1    0    0    0    0 -0.00000000000E+00 -0.00000000000E+00 -0.74505805969E-08  0.93827000000E+00  0.93827000000E+00 0.  1.
     999902    2    1    2    0    0 -0.25632135872E-02  0.10638295533E-01  0.61999558523E-02  0.10313529237E+01  0.10312762338E+01 0.  0.
     999903    2    3    3    0    0  0.42900433957E-01 -0.26455500930E-01 -0.12262057003E+00  0.14004062104E+00  0.45113529948E-01 0.  0.
         14    1    1    2    0    0  0.25632135872E-02 -0.10638295533E-01 -0.61999558523E-02  0.12577076302E-01  0.00000000000E+00 0.  1.
     999901    1    3    3    0    0 -0.45463647544E-01  0.37093796463E-01  0.12882052588E+00  0.89131230266E+00  0.88000000000E+00 0. -1.
        -11    1    4    4    0    0  0.33207917330E-01 -0.32213535393E-01 -0.56800446083E-01  0.73260012505E-01  0.51100000000E-03 0. -1.
         11    1    4    4    0    0  0.96925166265E-02  0.57580344626E-02 -0.65820123943E-01  0.66780608534E-01  0.51100000000E-03 0.  1.
</event>
<event>
 8    1  0.2025822E+004  0.1043930E+01  0.7957747E-01            NaN
         13   -1    0    0    0    0  0.00000000000E+00  0.00000000000E+00  0.74505805969E-08  0.10566000000E+00  0.10566000000E+00 0.  1.
     999900   -1    0    0    0    0 -0.00000000000E+00 -0.00000000000E+00 -0.74505805969E-08  0.93827000000E+00  0.93827000000E+00 0. -1.
     999902    2    1    2    0    0 -0.83922212521E-02 -0.37095238336E-02  0.29816841187E-02  0.10342821824E+01  0.10342371838E+01 0.  0.
     999903    2    3    3    0    0  0.64127683297E-01 -0.10377965857E+00 -0.60542864049E-01  0.14337896842E+00  0.44827590847E-01 0.  0.
         14    1    1    2    0    0  0.83922212521E-02  0.37095238336E-02 -0.29816841187E-02  0.96478176185E-02  0.00000000000E+00 0. -1.
     999901    1    3    3    0    0 -0.72519904549E-01  0.10007013473E+00  0.63524548168E-01  0.89090321396E+00  0.88000000000E+00 0.  1.
        -11    1    4    4    0    0  0.43156268803E-01 -0.32590342177E-01 -0.36965729469E-01  0.65508169081E-01  0.51100000000E-03 0. -1.
         11    1    4    4    0    0  0.20971414494E-01 -0.71189316391E-01 -0.23577134581E-01  0.77870799342E-01  0.51100000000E-03 0.  1.
</event>
<event>
 8    1  0.2025822E+004  0.1043930E+01  0.7957747E-01            NaN
         13   -1    0    0    0    0  0.00000000000E+00  0.00000000000E+00  0.74505805969E-08  0.10566000000E+00  0.10566000000E+00 0. -1.
     999900   -1    0    0    0    0 -0.00000000000E+00 -0.00000000000E+00 -0.74505805969E-08  0.93827000000E+00  0.93827000000E+00 0.  1.
     999902    2    1    2    0    0 -0.11615305877E-01 -0.42771244737E-02 -0.69243965954E-02  0.10297470387E+01  0.10296493613E+01 0.  0.
     999903    2    3    3    0    0  0.17002998359E-01 -0.51145435664E-01 -0.12209369181E+00  0.14054536721E+00  0.44058746280E-01 0.  0.
         14    1    1    2    0    0  0.11615305877E-01  0.42771244737E-02  0.69243965954E-02  0.14182961348E-01  0.00000000000E+00 0.  1.
     999901    1    3    3    0    0 -0.28618304237E-01  0.46868311190E-01  0.11516929521E+00  0.88920167144E+00  0.88000000000E+00 0. -1.
        -11    1    4    4    0    0 -0.25101136658E-02 -0.47705411149E-01 -0.10023810241E+00  0.11104073676E+00  0.51100000000E-03 0. -1.
         11    1    4    4    0    0  0.19513112025E-01 -0.34400245148E-02 -0.21855589394E-01  0.29504630456E-01  0.51100000000E-03 0.  1.
</event>
<event>
 8    1  0.2025822E+004  0.1043930E+01  0.7957747E-01            NaN
         13   -1    0    0    0    0  0.00000000000E+00  0.00000000000E+00  0.74505805969E-08  0.10566000000E+00  0.10566000000E+00 0.  1.
     999900   -1    0    0    0    0 -0.00000000000E+00 -0.00000000000E+00 -0.74505805969E-08  0.93827000000E+00  0.93827000000E+00 0.  1.
     999902    2    1    2    0    0 -0.61552933556E-02  0.41355797411E-02  0.99813813352E-02  0.10314954260E+01  0.10314204746E+01 0.  0.
     999903    2    3    3    0    0 -0.66251301945E-02 -0.11412728791E+00 -0.68193707869E-01  0.14014943756E+00  0.43846925330E-01 0.  0.
         14    1    1    2    0    0  0.61552933556E-02 -0.41355797411E-02 -0.99813813352E-02  0.12434573955E-01  0.00000000000E+00 0. -1.
     999901    1    3    3    0    0  0.46983683883E-03  0.11826286765E+00  0.78175089204E-01  0.89134598848E+00  0.88000000000E+00 0. -1.
        -11    1    4    4    0    0 -0.14600806341E-02 -0.24477598461E-01 -0.38346656754E-01  0.45519357059E-01  0.51100000000E-03 0.  1.
         11    1    4    4    0    0 -0.51650495604E-02 -0.89649689447E-01 -0.29847051115E-01  0.94630080504E-01  0.51100000000E-03 0. -1.
</event>
<event>
 8    1  0.2025822E+004  0.1043930E+01  0.7957747E-01            NaN
         13   -1    0    0    0    0  0.00000000000E+00  0.00000000000E+00  0.74505805969E-08  0.10566000000E+00  0.10566000000E+00 0.  1.
     999900   -1    0    0    0    0 -0.00000000000E+00 -0.00000000000E+00 -0.74505805969E-08  0.93827000000E+00  0.93827000000E+00 0.  1.
     999902    2    1    2    0    0 -0.83642500660E-02 -0.65329598784E-02 -0.52287487983E-02  0.10320986832E+01  0.10320308676E+01 0.  0.
     999903    2    3    3    0    0 -0.12551479336E+00 -0.42436847009E-01 -0.22356550326E-01  0.14344425062E+00  0.50215419516E-01 0.  0.
         14    1    1    2    0    0  0.83642500660E-02  0.65329598784E-02  0.52287487983E-02  0.11831316830E-01  0.00000000000E+00 0.  1.
     999901    1    3    3    0    0  0.11715054329E+00  0.35903887130E-01  0.17127801528E-01  0.88865443255E+00  0.88000000000E+00 0.  1.
        -11    1    4    4    0    0 -0.31178865365E-01  0.86485746802E-02 -0.15670964934E-01  0.35954968396E-01  0.51100000000E-03 0.  1.
         11    1    4    4    0    0 -0.94335927996E-01 -0.51085421689E-01 -0.66855853925E-02  0.10748928222E+00  0.51100000000E-03 0. -1.
</event>
<event>
 8    1  0.2259749E+004  0.1043930E+01  0.7957747E-01            NaN
         13   -1    0    0    0    0  0.00000000000E+00  0.00000000000E+00  0.74505805969E-08  0.10566000000E+00  0.10566000000E+00 0.  1.
     999900   -1    0    0    0    0 -0.00000000000E+00 -0.00000000000E+00 -0.74505805969E-08  0.93827000000E+00  0.93827000000E+00 0.  1.
     999902    2    1    2    0    0 -0.19497866128E-01  0.12139518650E-01 -0.76348351730E-02  0.10197261696E+01  0.10194388827E+01 0.  0.
     999903    2    3    3    0    0 -0.47606448884E-01  0.73005064542E-01 -0.90472759785E-01  0.13329691196E+00  0.44571661959E-01 0.  0.
         14    1    1    2    0    0  0.19497866128E-01 -0.12139518650E-01  0.76348351730E-02  0.24203830373E-01  0.00000000000E+00 0. -1.
     999901    1    3    3    0    0  0.28108582756E-01 -0.60865545892E-01  0.82837924612E-01  0.88642925767E+00  0.88000000000E+00 0. -1.
        -11    1    4    4    0    0 -0.41383499081E-01  0.60817868692E-01 -0.45996338172E-01  0.86760194759E-01  0.51100000000E-03 0. -1.
         11    1    4    4    0    0 -0.62229498022E-02  0.12187195850E-01 -0.44476421614E-01  0.46536717197E-01  0.51100000000E-03 0.  1.
</event>
<event>
 8    1  0.2239754E+004  0.1043930E+01  0.7957747E-01            NaN
         13   -1    0    0    0    0  0.00000000000E+00  0.00000000000E+00  0.74505805969E-08  0.10566000000E+00  0.10566000000E+00 0.  1.
     999900   -1    0    0    0    0 -0.00000000000E+00 -0.00000000000E+00 -0.74505805969E-08  0.93827000000E+00  0.93827000000E+00 0. -1.
     999902    2    1    2    0    0 -0.11564841989E-01  0.22250725018E-02  0.66533398498E-02  0.10304036018E+01  0.10303148155E+01 0.  0.
     999903    2    3    3    0    0  0.12177140078E+00  0.51311015017E-01  0.10409406894E-01  0.13899904074E+00  0.41848336477E-01 0.  0.
         14    1    1    2    0    0  0.11564841989E-01 -0.22250725018E-02 -0.66533398498E-02  0.13526398228E-01  0.00000000000E+00 0. -1.
     999901    1    3    3    0    0 -0.13333624277E+00 -0.49085942515E-01 -0.37560670441E-02  0.89140456103E+00  0.88000000000E+00 0. -1.
        -11    1    4    4    0    0  0.35101030522E-01  0.35481149741E-01 -0.23843065872E-02  0.49969394328E-01  0.51100000000E-03 0.  1.
         11    1    4    4    0    0  0.86670370254E-01  0.15829865276E-01  0.12793713481E-01  0.89029646412E-01  0.51100000000E-03 0. -1.
</event>
<event>
 8    1  0.2025822E+004  0.1043930E+01  0.7957747E-01            NaN
         13   -1    0    0    0    0  0.00000000000E+00  0.00000000000E+00  0.74505805969E-08  0.10566000000E+00  0.10566000000E+00 0. -1.
     999900   -1    0    0    0    0 -0.00000000000E+00 -0.00000000000E+00 -0.74505805969E-08  0.93827000000E+00  0.93827000000E+00 0. -1.
     999902    2    1    2    0    0 -0.64354558564E-02  0.11819654591E-01  0.21074111049E-02  0.10303079404E+01  0.10302178854E+01 0.  0.
     999903    2    3    3    0    0  0.17231615110E-01 -0.12601898882E+00  0.32117348397E-01  0.13875860456E+00  0.45218493653E-01 0.  0.
         14    1    1    2    0    0  0.64354558564E-02 -0.11819654591E-01 -0.21074111049E-02  0.13622059620E-01  0.00000000000E+00 0. -1.
     999901    1    3    3    0    0 -0.23667070967E-01  0.13783864341E+00 -0.30009937292E-01  0.89154933582E+00  0.88000000000E+00 0.  1.
        -11    1    4    4    0    0  0.30021195433E-01 -0.10405778886E+00  0.33315185508E-01  0.11331133352E+00  0.51100000000E-03 0. -1.
         11    1    4    4    0    0 -0.12789580323E-01 -0.21961199958E-01 -0.11978371106E-02  0.25447271036E-01  0.51100000000E-03 0.  1.
</event>
<event>
 8    1  0.2025822E+004  0.1043930E+01  0.7957747E-01            NaN
         13   -1    0    0    0    0  0.00000000000E+00  0.00000000000E+00  0.74505805969E-08  0.10566000000E+00  0.10566000000E+00 0.  1.
     999900   -1    0    0    0    0 -0.00000000000E+00 -0.00000000000E+00 -0.74505805969E-08  0.93827000000E+00  0.93827000000E+00 0. -1.
     999902    2    1    2    0    0  0.14647794899E-02  0.68450777260E-02 -0.12099107716E-01  0.10299518358E+01  0.10298569779E+01 0.  0.
     999903    2    3    3    0    0  0.51497293386E-01 -0.85754125411E-01  0.84437660294E-01  0.13843783562E+00  0.45050800256E-01 0.  0.
         14    1    1    2    0    0 -0.14647794899E-02 -0.68450777260E-02  0.12099107716E-01  0.13978164241E-01  0.00000000000E+00 0.  1.
     999901    1    3    3    0    0 -0.50032513896E-01  0.92599203137E-01 -0.96536768011E-01  0.89151400014E+00  0.88000000000E+00 0. -1.
        -11    1    4    4    0    0  0.22093295809E-01 -0.53437155795E-01  0.21236394400E-01  0.61602669644E-01  0.51100000000E-03 0.  1.
         11    1    4    4    0    0  0.29403997576E-01 -0.32316969616E-01  0.63201265894E-01  0.76835165974E-01  0.51100000000E-03 0. -1.
</event>
<event>
 8    1  0.2025822E+004  0.1043930E+01  0.7957747E-01            NaN
         13   -1    0    0    0    0  0.00000000000E+00  0.00000000000E+00  0.74505805969E-08  0.10566000000E+00  0.10566000000E+00 0.  1.
     999900   -1    0    0    0    0 -0.00000000000E+00 -0.00000000000E+00 -0.74505805969E-08  0.93827000000E+00  0.93827000000E+00 0. -1.
     999902    2    1    2    0    0 -0.11653391431E-01 -0.68207733687E-02 -0.66249944538E-03  0.10304109990E+01  0.10303223105E+01 0.  0.
     999903    2    3    3    0    0 -0.12330021869E+00  0.45028550873E-02  0.53830751666E-01  0.14161251063E+00  0.43967416440E-01 0.  0.
         14    1    1    2    0    0  0.11653391431E-01  0.68207733687E-02  0.66249944538E-03  0.13519000951E-01  0.00000000000E+00 0. -1.
     999901    1    3    3    0    0  0.11164682726E+00 -0.11323628456E-01 -0.54493251111E-01  0.88879848842E+00  0.88000000000E+00 0. -1.
        -11    1    4    4    0    0 -0.12204687632E+00  0.24274785273E-02  0.59221982031E-01  0.13567916918E+00  0.51100000000E-03 0. -1.
         11    1    4    4    0    0 -0.12533423732E-02  0.20753765600E-02 -0.53912303651E-02  0.59333414549E-02  0.51100000000E-03 0.  1.
</event>
<event>
 8    1  0.2025822E+004  0.1043930E+01  0.7957747E-01            NaN
         13   -1    0    0    0    0  0.00000000000E+00  0.00000000000E+00  0.74505805969E-08  0.10566000000E+00  0.10566000000E+00 0.  1.
     999900   -1    0    0    0    0 -0.00000000000E+00 -0.00000000000E+00 -0.74505805969E-08  0.93827000000E+00  0.93827000000E+00 0.  1.
     999902    2    1    2    0    0  0.13304653224E-01 -0.75031652646E-03 -0.42143050632E-02  0.10299536936E+01  0.10298588612E+01 0.  0.
     999903    2    3    3    0    0 -0.94135561239E-02  0.91958556753E-01  0.94003719303E-01  0.13935960398E+00  0.45159813779E-01 0.  0.
         14    1    1    2    0    0 -0.13304653224E-01  0.75031652646E-03  0.42143050632E-02  0.13976306360E-01  0.00000000000E+00 0. -1.
     999901    1    3    3    0    0  0.22718209348E-01 -0.92708873279E-01 -0.98218024367E-01  0.89059408966E+00  0.88000000000E+00 0.  1.
        -11    1    4    4    0    0 -0.10201634283E-01  0.95666437454E-01  0.80880520500E-01  0.12569033501E+00  0.51100000000E-03 0.  1.
         11    1    4    4    0    0  0.78807815880E-03 -0.37078807011E-02  0.13123198803E-01  0.13669268975E-01  0.51100000000E-03 0. -1.
</event>
<event>
 8    1  0.2025822E+004  0.1043930E+01  0.7957747E-01            NaN
         13   -1    0    0    0    0  0.00000000000E+00  0.00000000000E+00  0.74505805969E-08  0.10566000000E+00  0.10566000000E+00 0. -1.
     999900   -1    0    0    0    0 -0.00000000000E+00 -0.00000000000E+00 -0.74505805969E-08  0.93827000000E+00  0.93827000000E+00 0.  1.
     999902    2    1    2    0    0 -0.13603876599E-01 -0.15544087881E-02  0.16076840488E-02  0.10301435468E+01  0.10300512903E+01 0.  0.
     999903    2    3    3    0    0 -0.25099398384E-01  0.25847279312E-01  0.12868931941E+00  0.14051849001E+00  0.43433206845E-01 0.  0.
         14    1    1    2    0    0  0.13603876599E-01  0.15544087881E-02 -0.16076840488E-02  0.13786453249E-01  0.00000000000E+00 0. -1.
     999901    1    3    3    0    0  0.11495521785E-01 -0.27401688100E-01 -0.12708163536E+00  0.88962505674E+00  0.88000000000E+00 0.  1.
        -11    1    4    4    0    0  0.11345668386E-01  0.26778130224E-02  0.43071159225E-01  0.44623768909E-01  0.51100000000E-03 0. -1.
         11    1    4    4    0    0 -0.36445066770E-01  0.23169466290E-01  0.85618160189E-01  0.95894721102E-01  0.51100000000E-03 0.  1.
</event>
<event>
 8    1  0.2025822E+004  0.1043930E+01  0.7957747E-01            NaN
         13   -1    0    0    0    0  0.00000000000E+00  0.00000000000E+00  0.74505805969E-08  0.10566000000E+00  0.10566000000E+00 0. -1.
     999900   -1    0    0    0    0 -0.00000000000E+00 -0.00000000000E+00 -0.74505805969E-08  0.93827000000E+00  0.93827000000E+00 0. -1.
     999902    2    1    2    0    0  0.95923723815E-02 -0.39592287663E-02 -0.88665313068E-02  0.10302806602E+01  0.10301902418E+01 0.  0.
     999903    2    3    3    0    0 -0.75925818400E-01  0.42126257307E-01  0.98584760432E-01  0.13843817796E+00  0.43667180731E-01 0.  0.
         14    1    1    2    0    0 -0.95923723815E-02  0.39592287663E-02  0.88665313068E-02  0.13649339828E-01  0.00000000000E+00 0. -1.
     999901    1    3    3    0    0  0.85518190781E-01 -0.46085486074E-01 -0.10745129174E+00  0.89184248221E+00  0.88000000000E+00 0. -1.
        -11    1    4    4    0    0 -0.76316103456E-01  0.48583088548E-01  0.94194653532E-01  0.13060382083E+00  0.51100000000E-03 0. -1.
         11    1    4    4    0    0  0.39028505577E-03 -0.64568312408E-02  0.43901069005E-02  0.78343571334E-02  0.51100000000E-03 0.  1.
</event>
<event>
 8    1  0.2025822E+004  0.1043930E+01  0.7957747E-01            NaN
         13   -1    0    0    0    0  0.00000000000E+00  0.00000000000E+00  0.74505805969E-08  0.10566000000E+00  0.10566000000E+00 0. -1.
     999900   -1    0    0    0    0 -0.00000000000E+00 -0.00000000000E+00 -0.74505805969E-08  0.93827000000E+00  0.93827000000E+00 0. -1.
     999902    2    1    2    0    0  0.47486987835E-02 -0.86528554177E-02  0.10374982967E-01  0.10296100028E+01  0.10295104155E+01 0.  0.
     999903    2    3    3    0    0  0.10844160133E+00 -0.16862984059E-01 -0.73396613049E-01  0.13953286880E+00  0.45148837605E-01 0.  0.
         14    1    1    2    0    0 -0.47486987835E-02  0.86528554177E-02 -0.10374982967E-01  0.14319997157E-01  0.00000000000E+00 0. -1.
     999901    1    3    3    0    0 -0.10369290255E+00  0.82101286414E-02  0.83771596015E-01  0.89007713405E+00  0.88000000000E+00 0. -1.
        -11    1    4    4    0    0  0.98881209834E-01 -0.59989424060E-02 -0.75950444613E-01  0.12482873117E+00  0.51100000000E-03 0. -1.
         11    1    4    4    0    0  0.95603914977E-02 -0.10864041653E-01  0.25538315644E-02  0.14704137625E-01  0.51100000000E-03 0.  1.
</event>
<event>
 8    1  0.2025822E+004  0.1043930E+01  0.7957747E-01            NaN
         13   -1    0    0    0    0  0.00000000000E+00  0.00000000000E+00  0.74505805969E-08  0.10566000000E+00  0.10566000000E+00 0.  1.
     999900   -1    0    0    0    0 -0.00000000000E+00 -0.00000000000E+00 -0.74505805969E-08  0.93827000000E+00  0.93827000000E+00 0. -1.
     999902    2    1    2    0    0 -0.10213448097E-01  0.21474609848E-02  0.85784234090E-02  0.10304201718E+01  0.10303316044E+01 0.  0.
     999903    2    3    3    0    0  0.18574284332E-01 -0.33766314009E-01 -0.12594749783E+00  0.13900794599E+00  0.44443996659E-01 0.  0.
         14    1    1    2    0    0  0.10213448097E-01 -0.21474609848E-02 -0.85784234090E-02  0.13509828233E-01  0.00000000000E+00 0. -1.
     999901    1    3    3    0    0 -0.28787732429E-01  0.35913774994E-01  0.13452592124E+00  0.89141222577E+00  0.88000000000E+00 0.  1.
        -11    1    4    4    0    0 -0.62717740714E-02  0.16599458369E-02 -0.58572962821E-01  0.58933383280E-01  0.51100000000E-03 0.  1.
         11    1    4    4    0    0  0.24846058403E-01 -0.35426259846E-01 -0.67374535011E-01  0.80074562714E-01  0.51100000000E-03 0. -1.
</event>
<event>
 8    1  0.2025822E+004  0.1043930E+01  0.7957747E-01            NaN
         13   -1    0    0    0    0  0.00000000000E+00  0.00000000000E+00  0.74505805969E-08  0.10566000000E+00  0.10566000000E+00 0. -1.
     999900   -1    0    0    0    0 -0.00000000000E+00 -0.00000000000E+00 -0.74505805969E-08  0.93827000000E+00  0.93827000000E+00 0. -1.
     999902    2    1    2    0    0 -0.50067167557E-02 -0.96023184680E-02  0.87514024377E-02  0.10300066822E+01  0.10299125724E+01 0.  0.
     999903    2    3    3    0    0  0.15116556391E-01  0.13013627712E+00  0.22271399925E-02  0.13872985251E+00  0.45574674186E-01 0.  0.
         14    1    1    2    0    0  0.50067167557E-02  0.96023184680E-02 -0.87514024377E-02  0.13923317753E-01  0.00000000000E+00 0.  1.
     999901    1    3    3    0    0 -0.20123273147E-01 -0.13973859558E+00  0.65242624452E-02  0.89127682973E+00  0.88000000000E+00 0.  1.
        -11    1    4    4    0    0 -0.77107507368E-02  0.81694831886E-01 -0.12933014327E-01  0.83072409466E-01  0.51100000000E-03 0. -1.
         11    1    4    4    0    0  0.22827307128E-01  0.48441445230E-01  0.15160154319E-01  0.55657443048E-01  0.51100000000E-03 0.  1.
</event>
<event>
 8    1  0.2025822E+004  0.1043930E+01  0.7957747E-01            NaN
         13   -1    0    0    0    0  0.00000000000E+00  0.00000000000E+00  0.74505805969E-08  0.10566000000E+00  0.10566000000E+00 0. -1.
     999900   -1    0    0    0    0 -0.00000000000E+00 -0.00000000000E+00 -0.74505805969E-08  0.93827000000E+00  0.93827000000E+00 0. -1.
     999902    2    1    2    0    0 -0.23443969270E-03  0.11390108313E-01  0.10328236978E-01  0.10285526788E+01  0.10284377234E+01 0.  0.
     999903    2    3    3    0    0 -0.69732985346E-01 -0.89366128904E-01 -0.62262254549E-01  0.13712054638E+00  0.45568208842E-01 0.  0.
         14    1    1    2    0    0  0.23443969270E-03 -0.11390108313E-01 -0.10328236978E-01  0.15377321237E-01  0.00000000000E+00 0.  1.
     999901    1    3    3    0    0  0.69498545654E-01  0.10075623722E+00  0.72590491527E-01  0.89143213238E+00  0.88000000000E+00 0.  1.
        -11    1    4    4    0    0 -0.49197869482E-01 -0.80880813394E-01 -0.64840888692E-01  0.11474640868E+00  0.51100000000E-03 0. -1.
         11    1    4    4    0    0 -0.20535115864E-01 -0.84853155102E-02  0.25786341432E-02  0.22374137702E-01  0.51100000000E-03 0.  1.
</event>
<event>
 8    1  0.2025822E+004  0.1043930E+01  0.7957747E-01            NaN
         13   -1    0    0    0    0  0.00000000000E+00  0.00000000000E+00  0.74505805969E-08  0.10566000000E+00  0.10566000000E+00 0.  1.
     999900   -1    0    0    0    0 -0.00000000000E+00 -0.00000000000E+00 -0.74505805969E-08  0.93827000000E+00  0.93827000000E+00 0. -1.
     999902    2    1    2    0    0  0.50126109643E-02 -0.62946881913E-03 -0.93524770342E-02  0.10333002622E+01  0.10332455858E+01 0.  0.
     999903    2    3    3    0    0  0.12891055442E+00  0.18448985230E-01 -0.40771031229E-01  0.14386121797E+00  0.45557402806E-01 0.  0.
         14    1    1    2    0    0 -0.50126109643E-02  0.62946881913E-03  0.93524770342E-02  0.10629737831E-01  0.00000000000E+00 0.  1.
     999901    1    3    3    0    0 -0.12389794346E+00 -0.19078454049E-01  0.31418554195E-01  0.88943904420E+00  0.88000000000E+00 0. -1.
        -11    1    4    4    0    0  0.85277102295E-01 -0.10009684521E-01 -0.24958048847E-01  0.89417801826E-01  0.51100000000E-03 0.  1.
         11    1    4    4    0    0  0.43633452127E-01  0.28458669750E-01 -0.15812982382E-01  0.54443416142E-01  0.51100000000E-03 0. -1.
</event>
<event>
 8    1  0.2025822E+004  0.1043930E+01  0.7957747E-01            NaN
         13   -1    0    0    0    0  0.00000000000E+00  0.00000000000E+00  0.74505805969E-08  0.10566000000E+00  0.10566000000E+00 0.  1.
     999900   -1    0    0    0    0 -0.00000000000E+00 -0.00000000000E+00 -0.74505805969E-08  0.93827000000E+00  0.93827000000E+00 0.  1.
     999902    2    1    2    0    0 -0.13412762988E-01  0.29832652680E-02  0.90210286307E-02  0.10274928153E+01  0.10273613310E+01 0.  0.
     999903    2    3    3    0    0  0.42202007714E-01 -0.81926493412E-01 -0.88862521811E-01  0.13626677256E+00  0.46681106938E-01 0.  0.
         14    1    1    2    0    0  0.13412762988E-01 -0.29832652680E-02 -0.90210286307E-02  0.16437184679E-01  0.00000000000E+00 0. -1.
     999901    1    3    3    0    0 -0.55614770701E-01  0.84909758680E-01  0.97883550442E-01  0.89122604276E+00  0.88000000000E+00 0.  1.
        -11    1    4    4    0    0  0.27971232355E-01 -0.21794618684E-01 -0.55979662508E-01  0.66267480551E-01  0.51100000000E-03 0. -1.
         11    1    4    4    0    0  0.14230775359E-01 -0.60131874727E-01 -0.32882859303E-01  0.69999292014E-01  0.51100000000E-03 0.  1.
</event>
<event>
 8    1  0.2025822E+004  0.1043930E+01  0.7957747E-01            NaN
         13   -1    0    0    0    0  0.00000000000E+00  0.00000000000E+00  0.74505805969E-08  0.10566000000E+00  0.10566000000E+00 0.  1.
     999900   -1    0    0    0    0 -0.00000000000E+00 -0.00000000000E+00 -0.74505805969E-08  0.93827000000E+00  0.93827000000E+00 0.  1.
     999902    2    1    2    0    0 -0.69695000586E-02  0.14017563852E-02  0.10844993849E-01  0.10309626277E+01  0.10308810732E+01 0.  0.
     999903    2    3    3    0    0  0.96377198165E-02  0.70028073589E-01 -0.11174421523E+00  0.13966386449E+00  0.44971198273E-01 0.  0.
         14    1    1    2    0    0  0.69695000586E-02 -0.14017563852E-02 -0.10844993849E-01  0.12967372271E-01  0.00000000000E+00 0. -1.
     999901    1    3    3    0    0 -0.16607219875E-01 -0.68626317204E-01  0.12258920908E+00  0.89129876324E+00  0.88000000000E+00 0. -1.
        -11    1    4    4    0    0  0.17708796443E-01  0.28642788771E-01 -0.80256579982E-01  0.87036719673E-01  0.51100000000E-03 0.  1.
         11    1    4    4    0    0 -0.80710766265E-02  0.41385284819E-01 -0.31487635245E-01  0.52627144819E-01  0.51100000000E-03 0. -1.
</event>
<event>
 8    1  0.2025822E+004  0.1043930E+01  0.7957747E-01            NaN
         13   -1    0    0    0    0  0.00000000000E+00  0.00000000000E+00  0.74505805969E-08  0.10566000000E+00  0.10566000000E+00 0. -1.
     999900   -1    0    0    0    0 -0.00000000000E+00 -0.00000000000E+00 -0.74505805969E-08  0.93827000000E+00  0.93827000000E+00 0.  1.
     999902    2    1    2    0    0  0.23325200423E-02 -0.86537339726E-02 -0.12879155771E-01  0.10282392252E+01  0.10281194988E+01 0.  0.
     999903    2    3    3    0    0 -0.67070567005E-02  0.11588608416E+00 -0.60334729634E-01  0.13815837955E+00  0.44417216575E-01 0.  0.
         14    1    1    2    0    0 -0.23325200423E-02  0.86537339726E-02  0.12879155771E-01  0.15690774831E-01  0.00000000000E+00 0. -1.
     999901    1    3    3    0    0  0.90395767429E-02 -0.12453981813E+00  0.47455573863E-01  0.89008084562E+00  0.88000000000E+00 0. -1.
        -11    1    4    4    0    0  0.98501989139E-02  0.49328276204E-01 -0.60098719269E-02  0.50662460792E-01  0.51100000000E-03 0.  1.
         11    1    4    4    0    0 -0.16557255614E-01  0.66557807956E-01 -0.54324857707E-01  0.87495918758E-01  0.51100000000E-03 0. -1.
</event>
<event>
 8    1  0.2025822E+004  0.1043930E+01  0.7957747E-01            NaN
         13   -1    0    0    0    0  0.00000000000E+00  0.00000000000E+00  0.74505805969E-08  0.10566000000E+00  0.10566000000E+00 0.  1.
     999900   -1    0    0    0    0 -0.00000000000E+00 -0.00000000000E+00 -0.74505805969E-08  0.93827000000E+00  0.93827000000E+00 0.  1.
     999902    2    1    2    0    0 -0.26446901718E-02  0.26289212837E-02  0.13251516304E-01  0.10301637987E+01  0.10300718149E+01 0.  0.
     999903    2    3    3    0    0  0.12782707262E+00  0.17071117358E-01 -0.29035986013E-01  0.13942270796E+00  0.44321771954E-01 0.  0.
         14    1    1    2    0    0  0.26446901718E-02 -0.26289212837E-02 -0.13251516304E-01  0.13766201276E-01  0.00000000000E+00 0. -1.
     999901    1    3    3    0    0 -0.13047176280E+00 -0.14442196075E-01  0.42287502317E-01  0.89074109076E+00  0.88000000000E+00 0. -1.
        -11    1    4    4    0    0  0.25661190667E-01  0.57240048371E-03  0.11687527791E-01  0.28207867265E-01  0.51100000000E-03 0. -1.
         11    1    4    4    0    0  0.10216588196E+00  0.16498716875E-01 -0.40723513804E-01  0.11121484070E+00  0.51100000000E-03 0.  1.
</event>
<event>
 8    1  0.2025822E+004  0.1043930E+01  0.7957747E-01            NaN
         13   -1    0    0    0    0  0.00000000000E+00  0.00000000000E+00  0.74505805969E-08  0.10566000000E+00  0.10566000000E+00 0. -1.
     999900   -1    0    0    0    0 -0.00000000000E+00 -0.00000000000E+00 -0.74505805969E-08  0.93827000000E+00  0.93827000000E+00 0.  1.
     999902    2    1    2    0    0  0.11857487314E-01  0.47133373782E-02 -0.17075146397E-02  0.10310563385E+01  0.10309759658E+01 0.  0.
     999903    2    3    3    0    0  0.57167215423E-01  0.28545008604E-01  0.11322783286E+00  0.14210692816E+00  0.57366617996E-01 0.  0.
         14    1    1    2    0    0 -0.11857487314E-01 -0.47133373782E-02  0.17075146397E-02  0.12873661518E-01  0.00000000000E+00 0. -1.
     999901    1    3    3    0    0 -0.45309728108E-01 -0.23831671226E-01 -0.11493534750E+00  0.88894941033E+00  0.88000000000E+00 0.  1.
        -11    1    4    4    0    0  0.34516911137E-02  0.12235450971E-01  0.70283102785E-01  0.71425458278E-01  0.51100000000E-03 0. -1.
         11    1    4    4    0    0  0.53715524309E-01  0.16309557632E-01  0.42944730074E-01  0.70681469878E-01  0.51100000000E-03 0.  1.
</event>
<event>
 8    1  0.2025822E+004  0.1043930E+01  0.7957747E-01            NaN
         13   -1    0    0    0    0  0.00000000000E+00  0.00000000000E+00  0.74505805969E-08  0.10566000000E+00  0.10566000000E+00 0.  1.
     999900   -1    0    0    0    0 -0.00000000000E+00 -0.00000000000E+00 -0.74505805969E-08  0.93827000000E+00  0.93827000000E+00 0.  1.
     999902    2    1    2    0    0 -0.83030152793E-02  0.10044733000E-02 -0.10722300154E-01  0.10303315902E+01  0.10302418497E+01 0.  0.
     999903    2    3    3    0    0  0.65401403154E-01 -0.28404316317E-01 -0.11298038314E+00  0.14086324687E+00  0.44651300351E-01 0.  0.
         14    1    1    2    0    0  0.83030152793E-02 -0.10044733000E-02  0.10722300154E-01  0.13598409831E-01  0.00000000000E+00 0.  1.
     999901    1    3    3    0    0 -0.73704418433E-01  0.29408789617E-01  0.10225808299E+00  0.88946834330E+00  0.88000000000E+00 0. -1.
        -11    1    4    4    0    0  0.39926796606E-01  0.69176588647E-02 -0.56941609381E-01  0.69889992784E-01  0.51100000000E-03 0. -1.
         11    1    4    4    0    0  0.25474606548E-01 -0.35321975182E-01 -0.56038773759E-01  0.70973254081E-01  0.51100000000E-03 0.  1.
</event>
<event>
 8    1  0.2025822E+004  0.1043930E+01  0.7957747E-01            NaN
         13   -1    0    0    0    0  0.00000000000E+00  0.00000000000E+00  0.74505805969E-08  0.10566000000E+00  0.10566000000E+00 0.  1.
     999900   -1    0    0    0    0 -0.00000000000E+00 -0.00000000000E+00 -0.74505805969E-08  0.93827000000E+00  0.93827000000E+00 0.  1.
     999902    2    1    2    0    0 -0.33891889704E-02 -0.13228849265E-01  0.98770927362E-02  0.10270763352E+01  0.10269380470E+01 0.  0.
     999903    2    3    3    0    0  0.57373692326E-01  0.74305770186E-01  0.88689185452E-01  0.13715174108E+00  0.46170774417E-01 0.  0.
         14    1    1    2    0    0  0.33891889704E-02  0.13228849265E-01 -0.98770927362E-02  0.16853664755E-01  0.00000000000E+00 0. -1.
     999901    1    3    3    0    0 -0.60762881296E-01 -0.87534619451E-01 -0.78812092716E-01  0.88992459417E+00  0.88000000000E+00 0.  1.
        -11    1    4    4    0    0  0.59528900694E-01  0.79146958058E-01  0.86106152021E-01  0.13123437631E+00  0.51100000000E-03 0.  1.
         11    1    4    4    0    0 -0.21552083687E-02 -0.48411878718E-02  0.25830334313E-02  0.59173647707E-02  0.51100000000E-03 0. -1.
</event>
<event>
 8    1  0.2025822E+004  0.1043930E+01  0.7957747E-01            NaN
         13   -1    0    0    0    0  0.00000000000E+00  0.00000000000E+00  0.74505805969E-08  0.10566000000E+00  0.10566000000E+00 0. -1.
     999900   -1    0    0    0    0 -0.00000000000E+00 -0.00000000000E+00 -0.74505805969E-08  0.93827000000E+00  0.93827000000E+00 0. -1.
     999902    2    1    2    0    0 -0.99129884789E-02 -0.49284628822E-02  0.95458161293E-02  0.10293122131E+01  0.10292084106E+01 0.  0.
     999903    2    3    3    0    0  0.11844871987E+00  0.37711239359E-01  0.42457554996E-01  0.13836998442E+00  0.43489904570E-01 0.  0.
         14    1    1    2    0    0  0.99129884789E-02  0.49284628822E-02 -0.95458161293E-02  0.14617786855E-01  0.00000000000E+00 0.  1.
     999901    1    3    3    0    0 -0.12836170834E+00 -0.42639702241E-01 -0.32911738867E-01  0.89094222873E+00  0.88000000000E+00 0.  1.
        -11    1    4    4    0    0  0.64032933058E-01  0.18143884703E-01  0.45236994092E-01  0.80473994704E-01  0.51100000000E-03 0. -1.
         11    1    4    4    0    0  0.54415786808E-01  0.19567354656E-01 -0.27794390962E-02  0.57895989713E-01  0.51100000000E-03 0.  1.
</event>
<event>
 8    1  0.2025822E+004  0.1043930E+01  0.7957747E-01            NaN
         13   -1    0    0    0    0  0.00000000000E+00  0.00000000000E+00  0.74505805969E-08  0.10566000000E+00  0.10566000000E+00 0.  1.
     999900   -1    0    0    0    0 -0.00000000000E+00 -0.00000000000E+00 -0.74505805969E-08  0.93827000000E+00  0.93827000000E+00 0. -1.
     999902    2    1    2    0    0  0.11255091881E-01 -0.26589325892E-02  0.72171279401E-02  0.10302979073E+01  0.10302077188E+01 0.  0.
     999903    2    3    3    0    0  0.53561546774E-01  0.26446366754E-01 -0.11885722807E+00  0.13983078392E+00  0.43097074832E-01 0.  0.
         14    1    1    2    0    0 -0.11255091881E-01  0.26589325892E-02 -0.72171279401E-02  0.13632092703E-01  0.00000000000E+00 0. -1.
     999901    1    3    3    0    0 -0.42306454893E-01 -0.29105299344E-01  0.12607435601E+00  0.89046712338E+00  0.88000000000E+00 0.  1.
        -11    1    4    4    0    0 -0.56195525964E-02  0.30093890125E-02 -0.29091188968E-01  0.29785805179E-01  0.51100000000E-03 0. -1.
         11    1    4    4    0    0  0.59181099371E-01  0.23436977742E-01 -0.89766039103E-01  0.11004497874E+00  0.51100000000E-03 0.  1.
</event>
<event>
 8    1  0.2025822E+004  0.1043930E+01  0.7957747E-01            NaN
         13   -1    0    0    0    0  0.00000000000E+00  0.00000000000E+00  0.74505805969E-08  0.10566000000E+00  0.10566000000E+00 0.  1.
     999900   -1    0    0    0    0 -0.00000000000E+00 -0.00000000000E+00 -0.74505805969E-08  0.93827000000E+00  0.93827000000E+00 0.  1.
     999902    2    1    2    0    0 -0.94876379089E-02 -0.87859003830E-02 -0.42847831995E-02  0.10303077136E+01  0.10302176557E+01 0.  0.
     999903    2    3    3    0    0  0.47386436585E-01 -0.12340499669E+00  0.17065478361E-01  0.14079771861E+00  0.45370689150E-01 0.  0.
         14    1    1    2    0    0  0.94876379089E-02  0.87859003830E-02  0.42847831995E-02  0.13622286361E-01  0.00000000000E+00 0.  1.
     999901    1    3    3    0    0 -0.56874074494E-01  0.11461909631E+00 -0.21350261560E-01  0.88950999503E+00  0.88000000000E+00 0.  1.
        -11    1    4    4    0    0  0.50576226068E-01 -0.87227550418E-01  0.39076193245E-03  0.10083161216E+00  0.51100000000E-03 0. -1.
         11    1    4    4    0    0 -0.31897894830E-02 -0.36177446272E-01  0.16674716429E-01  0.39966106449E-01  0.51100000000E-03 0.  1.
</event>
<event>
 8    1  0.2025822E+004  0.1043930E+01  0.7957747E-01            NaN
         13   -1    0    0    0    0  0.00000000000E+00  0.00000000000E+00  0.74505805969E-08  0.10566000000E+00  0.10566000000E+00 0. -1.
     999900   -1    0    0    0    0 -0.00000000000E+00 -0.00000000000E+00 -0.74505805969E-08  0.93827000000E+00  0.93827000000E+00 0. -1.
     999902    2    1    2    0    0  0.13259451054E-01 -0.12589608680E-02 -0.25867990660E-02  0.10303620394E+01  0.10302727031E+01 0.  0.
     999903    2    3    3    0    0 -0.12228118614E+00 -0.50600231939E-01  0.89293940127E-02  0.13854454236E+00  0.40022296095E-01 0.  0.
         14    1    1    2    0    0 -0.13259451054E-01  0.12589608680E-02  0.25867990660E-02  0.13567960574E-01  0.00000000000E+00 0. -1.
     999901    1    3    3    0    0  0.13554063720E+00  0.49341271071E-01 -0.11516193079E-01  0.89181749706E+00  0.88000000000E+00 0. -1.
        -11    1    4    4    0    0 -0.63863842991E-01 -0.43009845383E-01 -0.75638479906E-02  0.77368663933E-01  0.51100000000E-03 0. -1.
         11    1    4    4    0    0 -0.58417343152E-01 -0.75903865565E-02  0.16493242003E-01  0.61175878431E-01  0.51100000000E-03 0.  1.
</event>
<event>
 8    1  0.2025822E+004  0.1043930E+01  0.7957747E-01            NaN
         13   -1    0    0    0    0  0.00000000000E+00  0.00000000000E+00  0.74505805969E-08  0.10566000000E+00  0.10566000000E+00 0. -1.
     999900   -1    0    0    0    0 -0.00000000000E+00 -0.00000000000E+00 -0.74505805969E-08  0.93827000000E+00  0.93827000000E+00 0. -1.
     999902    2    1    2    0    0 -0.90846029380E-02 -0.12222901964E-02  0.13302414055E-01  0.10277751796E+01  0.10276482090E+01 0.  0.
     999903    2    3    3    0    0 -0.23405485993E-01 -0.12877446588E+00  0.58408524176E-03  0.13837290775E+00  0.44900340808E-01 0.  0.
         14    1    1    2    0    0  0.90846029380E-02  0.12222901964E-02 -0.13302414055E-01  0.16154820443E-01  0.00000000000E+00 0.  1.
     999901    1    3    3    0    0  0.14320883055E-01  0.12755217569E+00  0.12718328813E-01  0.88940227181E+00  0.88000000000E+00 0.  1.
        -11    1    4    4    0    0  0.11862428973E-01 -0.53328164751E-01  0.57083059200E-02  0.54931377684E-01  0.51100000000E-03 0. -1.
         11    1    4    4    0    0 -0.35267914966E-01 -0.75446301132E-01 -0.51242206783E-02  0.83441530062E-01  0.51100000000E-03 0.  1.
</event>
<event>
 8    1  0.2025822E+004  0.1043930E+01  0.7957747E-01            NaN
         13   -1    0    0    0    0  0.00000000000E+00  0.00000000000E+00  0.74505805969E-08  0.10566000000E+00  0.10566000000E+00 0.  1.
     999900   -1    0    0    0    0 -0.00000000000E+00 -0.00000000000E+00 -0.74505805969E-08  0.93827000000E+00  0.93827000000E+00 0. -1.
     999902    2    1    2    0    0 -0.11909074518E-02  0.71315894705E-02 -0.11788947247E-01  0.10301004264E+01  0.10300075880E+01 0.  0.
     999903    2    3    3    0    0  0.36529787455E-01  0.39971018868E-01  0.12047728328E+00  0.13881167706E+00  0.42682527823E-01 0.  0.
         14    1    1    2    0    0  0.11909074518E-02 -0.71315894705E-02  0.11788947247E-01  0.13829573606E-01  0.00000000000E+00 0.  1.
     999901    1    3    3    0    0 -0.37720694907E-01 -0.32839429397E-01 -0.13226623053E+00  0.89128874933E+00  0.88000000000E+00 0. -1.
        -11    1    4    4    0    0  0.63480588215E-02  0.35160939105E-01  0.45580015181E-01  0.57917082061E-01  0.51100000000E-03 0.  1.
         11    1    4    4    0    0  0.30181728634E-01  0.48100797622E-02  0.74897268100E-01  0.80894595001E-01  0.51100000000E-03 0. -1.
</event>
<event>
 8    1  0.2025822E+004  0.1043930E+01  0.7957747E-01            NaN
         13   -1    0    0    0    0  0.00000000000E+00  0.00000000000E+00  0.74505805969E-08  0.10566000000E+00  0.10566000000E+00 0.  1.
     999900   -1    0    0    0    0 -0.00000000000E+00 -0.00000000000E+00 -0.74505805969E-08  0.93827000000E+00  0.93827000000E+00 0.  1.
     999902    2    1    2    0    0 -0.11213580215E-03  0.67346753323E-02  0.11543039149E-01  0.10305654881E+01  0.10304788280E+01 0.  0.
     999903    2    3    3    0    0  0.50627169533E-01  0.12325046961E+00 -0.10870798152E-01  0.14115400427E+00  0.45304416065E-01 0.  0.
         14    1    1    2    0    0  0.11213580215E-03 -0.67346753323E-02 -0.11543039149E-01  0.13364511928E-01  0.00000000000E+00 0. -1.
     999901    1    3    3    0    0 -0.50739305335E-01 -0.11651579427E+00  0.22413837301E-01  0.88941148380E+00  0.88000000000E+00 0. -1.
        -11    1    4    4    0    0 -0.27344619127E-02  0.11702943950E-01 -0.12690436748E-01  0.17485550746E-01  0.51100000000E-03 0.  1.
         11    1    4    4    0    0  0.53361631446E-01  0.11154752566E+00  0.18196385957E-02  0.12366845352E+00  0.51100000000E-03 0. -1.
</event>
<event>
 8    1  0.2025822E+004  0.1043930E+01  0.7957747E-01            NaN
         13   -1    0    0    0    0  0.00000000000E+00  0.00000000000E+00  0.74505805969E-08  0.10566000000E+00  0.10566000000E+00 0. -1.
     999900   -1    0    0    0    0 -0.00000000000E+00 -0.00000000000E+00 -0.74505805969E-08  0.93827000000E+00  0.93827000000E+00 0.  1.
     999902    2    1    2    0    0 -0.50080689283E-02 -0.12235837080E-01 -0.22413027306E-02  0.10305203057E+01  0.10304330549E+01 0.  0.
     999903    2    3    3    0    0  0.93471905720E-02 -0.25907363038E-01  0.13014844960E+00  0.14039670157E+00  0.44878206810E-01 0.  0.
         14    1    1    2    0    0  0.50080689283E-02  0.12235837080E-01  0.22413027306E-02  0.13409694305E-01  0.00000000000E+00 0. -1.
     999901    1    3    3    0    0 -0.14355259500E-01  0.13671525959E-01 -0.13238975233E+00  0.89012360412E+00  0.88000000000E+00 0.  1.
        -11    1    4    4    0    0 -0.11982182960E-01  0.66108046320E-02  0.37119586499E-01  0.39565139570E-01  0.51100000000E-03 0.  1.
         11    1    4    4    0    0  0.21329373531E-01 -0.32518167670E-01  0.93028863104E-01  0.10083156200E+00  0.51100000000E-03 0. -1.
</event>
<event>
 8    1  0.2025822E+004  0.1043930E+01  0.7957747E-01            NaN
         13   -1    0    0    0    0  0.00000000000E+00  0.00000000000E+00  0.74505805969E-08  0.10566000000E+00  0.10566000000E+00 0.  1.
     999900   -1    0    0    0    0 -0.00000000000E+00 -0.00000000000E+00 -0.74505805969E-08  0.93827000000E+00  0.93827000000E+00 0. -1.
     999902    2    1    2    0    0  0.85815916118E-02 -0.10249300177E-01  0.33708072527E-02  0.10301439850E+01  0.10300517344E+01 0.  0.
     999903    2    3    3    0    0  0.10048320903E+00 -0.88414321459E-01  0.15319998321E-01  0.14183184333E+00  0.44357658834E-01 0.  0.
         14    1    1    2    0    0 -0.85815916118E-02  0.10249300177E-01 -0.33708072527E-02  0.13786015024E-01  0.00000000000E+00 0. -1.
     999901    1    3    3    0    0 -0.91901617416E-01  0.78165021282E-01 -0.11949191068E-01  0.88831214165E+00  0.88000000000E+00 0.  1.
        -11    1    4    4    0    0  0.72564375754E-01 -0.34798653165E-01  0.10992839003E-01  0.81225848847E-01  0.51100000000E-03 0.  1.
         11    1    4    4    0    0  0.27918833274E-01 -0.53615668294E-01  0.43271593182E-02  0.60605994479E-01  0.51100000000E-03 0. -1.
</event>
<event>
 8    1  0.2025822E+004  0.1043930E+01  0.7957747E-01            NaN
         13   -1    0    0    0    0  0.00000000000E+00  0.00000000000E+00  0.74505805969E-08  0.10566000000E+00  0.10566000000E+00 0. -1.
     999900   -1    0    0    0    0 -0.00000000000E+00 -0.00000000000E+00 -0.74505805969E-08  0.93827000000E+00  0.93827000000E+00 0. -1.
     999902    2    1    2    0    0 -0.97908205545E-02  0.32584886639E-03  0.91516418704E-02  0.10305240724E+01  0.10304368709E+01 0.  0.
     999903    2    3    3    0    0 -0.35438642419E-01 -0.43716623033E-01 -0.12055489473E+00  0.13955755471E+00  0.42140098802E-01 0.  0.
         14    1    1    2    0    0  0.97908205545E-02 -0.32584886639E-03 -0.91516418704E-02  0.13405927552E-01  0.00000000000E+00 0.  1.
     999901    1    3    3    0    0  0.25647821864E-01  0.44042471899E-01  0.12970653660E+00  0.89096651774E+00  0.88000000000E+00 0.  1.
        -11    1    4    4    0    0 -0.36847087528E-01 -0.34113775177E-01 -0.60062374320E-01  0.78289254985E-01  0.51100000000E-03 0. -1.
         11    1    4    4    0    0  0.14084451091E-02 -0.96028478560E-02 -0.60492520408E-01  0.61268299722E-01  0.51100000000E-03 0.  1.
</event>
<event>
 8    1  0.2025822E+004  0.1043930E+01  0.7957747E-01            NaN
         13   -1    0    0    0    0  0.00000000000E+00  0.00000000000E+00  0.74505805969E-08  0.10566000000E+00  0.10566000000E+00 0.  1.
     999900   -1    0    0    0    0 -0.00000000000E+00 -0.00000000000E+00 -0.74505805969E-08  0.93827000000E+00  0.93827000000E+00 0.  1.
     999902    2    1    2    0    0 -0.98432594895E-02 -0.33398295810E-02 -0.81120927815E-02  0.10307447708E+01  0.10306604350E+01 0.  0.
     999903    2    3    3    0    0 -0.44430538641E-01 -0.12371881932E+00  0.24905227085E-01  0.14126316649E+00  0.45327616884E-01 0.  0.
         14    1    1    2    0    0  0.98432594895E-02  0.33398295810E-02  0.81120927815E-02  0.13185229171E-01  0.00000000000E+00 0. -1.
     999901    1    3    3    0    0  0.34587279152E-01  0.12037898974E+00 -0.33017319867E-01  0.88948160434E+00  0.88000000000E+00 0. -1.
        -11    1    4    4    0    0 -0.11432307504E-01 -0.22511108860E-01  0.23953584738E-01  0.34806364645E-01  0.51100000000E-03 0. -1.
         11    1    4    4    0    0 -0.32998231138E-01 -0.10120771046E+00  0.95164234706E-03  0.10645680184E+00  0.51100000000E-03 0.  1.
</event>
<event>
 8    1  0.2025822E+004  0.1043930E+01  0.7957747E-01            NaN
         13   -1    0    0    0    0  0.00000000000E+00  0.00000000000E+00  0.74505805969E-08  0.10566000000E+00  0.10566000000E+00 0.  1.
     999900   -1    0    0    0    0 -0.00000000000E+00 -0.00000000000E+00 -0.74505805969E-08  0.93827000000E+00  0.93827000000E+00 0.  1.
     999902    2    1    2    0    0 -0.77881676059E-02 -0.31946652036E-02  0.12275511839E-01  0.10290454566E+01  0.10289378029E+01 0.  0.
     999903    2    3    3    0    0 -0.25383210440E-01  0.12841511262E+00 -0.70273066399E-02  0.13887506960E+00  0.45849246402E-01 0.  0.
         14    1    1    2    0    0  0.77881676059E-02  0.31946652036E-02 -0.12275511839E-01  0.14884543370E-01  0.00000000000E+00 0. -1.
     999901    1    3    3    0    0  0.17595042834E-01 -0.13160977782E+00  0.19302818479E-01  0.89017038703E+00  0.88000000000E+00 0.  1.
        -11    1    4    4    0    0 -0.25889620452E-01  0.10268203406E+00 -0.23286942172E-01  0.10842700477E+00  0.51100000000E-03 0. -1.
         11    1    4    4    0    0  0.50641001203E-03  0.25733078555E-01  0.16259635532E-01  0.30448064826E-01  0.51100000000E-03 0.  1.
</event>
<event>
 8    1  0.2025822E+004  0.1043930E+01  0.7957747E-01            NaN
         13   -1    0    0    0    0  0.00000000000E+00  0.00000000000E+00  0.74505805969E-08  0.10566000000E+00  0.10566000000E+00 0. -1.
     999900   -1    0    0    0    0 -0.00000000000E+00 -0.00000000000E+00 -0.74505805969E-08  0.93827000000E+00  0.93827000000E+00 0. -1.
     999902    2    1    2    0    0  0.12513177702E-01  0.58833775132E-02 -0.87548357112E-03  0.10300750291E+01  0.10299818471E+01 0.  0.
     999903    2    3    3    0    0  0.84221219517E-01  0.20961634534E-01  0.10168871318E+00  0.14109313302E+00  0.45100707970E-01 0.  0.
         14    1    1    2    0    0 -0.12513177702E-01 -0.58833775132E-02  0.87548357112E-03  0.13854970900E-01  0.00000000000E+00 0.  1.
     999901    1    3    3    0    0 -0.71708041815E-01 -0.15078257021E-01 -0.10256419675E+00  0.88898189608E+00  0.88000000000E+00 0. -1.
        -11    1    4    4    0    0  0.25468682635E-01 -0.12022860898E-01  0.44746835848E-01  0.52874790011E-01  0.51100000000E-03 0. -1.
         11    1    4    4    0    0  0.58752536882E-01  0.32984495432E-01  0.56941877331E-01  0.88218343013E-01  0.51100000000E-03 0.  1.
</event>
<event>
 8    1  0.2025822E+004  0.1043930E+01  0.7957747E-01            NaN
         13   -1    0    0    0    0  0.00000000000E+00  0.00000000000E+00  0.74505805969E-08  0.10566000000E+00  0.10566000000E+00 0. -1.
     999900   -1    0    0    0    0 -0.00000000000E+00 -0.00000000000E+00 -0.74505805969E-08  0.93827000000E+00  0.93827000000E+00 0.  1.
     999902    2    1    2    0    0 -0.12215892404E-01 -0.62639253050E-02 -0.91682284825E-03  0.10301711719E+01  0.10300792872E+01 0.  0.
     999903    2    3    3    0    0  0.38634905677E-01 -0.65551329642E-01 -0.10817529328E+00  0.14022444343E+00  0.46597936709E-01 0.  0.
         14    1    1    2    0    0  0.12215892404E-01  0.62639253050E-02  0.91682284825E-03  0.13758828133E-01  0.00000000000E+00 0. -1.
     999901    1    3    3    0    0 -0.50850798081E-01  0.59287404337E-01  0.10725847043E+00  0.88994672844E+00  0.88000000000E+00 0. -1.
        -11    1    4    4    0    0 -0.43767685645E-02 -0.22098217667E-01 -0.54079797032E-01  0.58586456584E-01  0.51100000000E-03 0. -1.
         11    1    4    4    0    0  0.43011674241E-01 -0.43453111974E-01 -0.54095496244E-01  0.81637986845E-01  0.51100000000E-03 0.  1.
</event>
<event>
 8    1  0.2025822E+004  0.1043930E+01  0.7957747E-01            NaN
         13   -1    0    0    0    0  0.00000000000E+00  0.00000000000E+00  0.74505805969E-08  0.10566000000E+00  0.10566000000E+00 0.  1.
     999900   -1    0    0    0    0 -0.00000000000E+00 -0.00000000000E+00 -0.74505805969E-08  0.93827000000E+00  0.93827000000E+00 0. -1.
     999902    2    1    2    0    0  0.46324054717E-02  0.13163025035E-01 -0.36568346864E-02  0.10295044377E+01  0.10294033662E+01 0.  0.
     999903    2    3    3    0    0  0.47894863187E-01 -0.98178090933E-01 -0.72499635189E-01  0.13877001287E+00  0.45475970685E-01 0.  0.
         14    1    1    2    0    0 -0.46324054717E-02 -0.13163025035E-01  0.36568346864E-02  0.14425562327E-01  0.00000000000E+00 0.  1.
     999901    1    3    3    0    0 -0.43262457716E-01  0.11134111597E+00  0.68842800503E-01  0.89073442481E+00  0.88000000000E+00 0.  1.
        -11    1    4    4    0    0  0.25362050304E-01 -0.16569559233E-01 -0.54807268257E-02  0.30790962576E-01  0.51100000000E-03 0.  1.
         11    1    4    4    0    0  0.22532812883E-01 -0.81608531700E-01 -0.67018908364E-01  0.10797905029E+00  0.51100000000E-03 0. -1.
</event>
<event>
 8    1  0.2025822E+004  0.1043930E+01  0.7957747E-01            NaN
         13   -1    0    0    0    0  0.00000000000E+00  0.00000000000E+00  0.74505805969E-08  0.10566000000E+00  0.10566000000E+00 0.  1.
     999900   -1    0    0    0    0 -0.00000000000E+00 -0.00000000000E+00 -0.74505805969E-08  0.93827000000E+00  0.93827000000E+00 0.  1.
     999902    2    1    2    0    0  0.13634698335E-02  0.10224425981E-01 -0.86893072785E-02  0.10304428951E+01  0.10303546274E+01 0.  0.
     999903    2    3    3    0    0  0.11016972672E+00 -0.29033217658E-01  0.67446027301E-01  0.13961375703E+00  0.44302800613E-01 0.  0.
         14    1    1    2    0    0 -0.13634698335E-02 -0.10224425981E-01  0.86893072785E-02  0.13487104864E-01  0.00000000000E+00 0. -1.
     999901    1    3    3    0    0 -0.10880625688E+00  0.39257643638E-01 -0.76135334580E-01  0.89082913810E+00  0.88000000000E+00 0. -1.
        -11    1    4    4    0    0  0.57805083615E-01 -0.27549987314E-01  0.57964311280E-01  0.86374486950E-01  0.51100000000E-03 0. -1.
         11    1    4    4    0    0  0.52364643101E-01 -0.14832303440E-02  0.94817160211E-02  0.53239270083E-01  0.51100000000E-03 0.  1.
</event>
<event>
 8    1  0.2025822E+004  0.1043930E+01  0.7957747E-01            NaN
         13   -1    0    0    0    0  0.00000000000E+00  0.00000000000E+00  0.74505805969E-08  0.10566000000E+00  0.10566000000E+00 0.  1.
     999900   -1    0    0    0    0 -0.00000000000E+00 -0.00000000000E+00 -0.74505805969E-08  0.93827000000E+00  0.93827000000E+00 0.  1.
     999902    2    1    2    0    0  0.57946454068E-02 -0.61054444188E-02  0.10556045176E-01  0.10304287239E+01  0.10303402693E+01 0.  0.
     999903    2    3    3    0    0  0.13261248096E+00  0.13420279820E-01  0.85953214830E-02  0.14112120578E+00  0.45553717215E-01 0.  0.
         14    1    1    2    0    0 -0.57946454068E-02  0.61054444188E-02 -0.10556045176E-01  0.13501276114E-01  0.00000000000E+00 0. -1.
     999901    1    3    3    0    0 -0.12681783556E+00 -0.19525724239E-01  0.19607236932E-02  0.88930751811E+00  0.88000000000E+00 0. -1.
        -11    1    4    4    0    0  0.98306737313E-01 -0.10372744076E-01  0.21713742156E-02  0.98877623392E-01  0.51100000000E-03 0.  1.
         11    1    4    4    0    0  0.34305743649E-01  0.23793023897E-01  0.64239472674E-02  0.42243582388E-01  0.51100000000E-03 0. -1.
</event>
<event>
 7    1  0.2025822E+004  0.1043930E+01  0.7957747E-01            NaN
         13   -1    0    0    0    0  0.00000000000E+00  0.00000000000E+00  0.74505805969E-08  0.10566000000E+00  0.10566000000E+00 0.  1.
     999900   -1    0    0    0    0 -0.00000000000E+00 -0.00000000000E+00 -0.74505805969E-08  0.93827000000E+00  0.93827000000E+00 0.  1.
     999903    2    1    2    0    0 -0.67230047174E-01  0.94001495420E-01  0.24374216368E-01  0.12622142305E+00  0.44514995559E-01 0.  0.
         14    1    1    2    0    0 -0.17954177515E-01 -0.22750427856E-01 -0.98505617888E-02  0.30609933444E-01  0.00000000000E+00 0.  1.
     999901    1    1    2    0    0  0.85184224689E-01 -0.71251067563E-01 -0.14523654579E-01  0.88709864350E+00  0.88000000000E+00 0. -1.
        -11    1    3    3    0    0 -0.30289341719E-01  0.38154068857E-01  0.32802290665E-01  0.58731836221E-01  0.51100000000E-03 0. -1.
         11    1    3    3    0    0 -0.36940705455E-01  0.55847426563E-01 -0.84280742971E-02  0.67489586831E-01  0.51100000000E-03 0.  1.
</event>
<event>
 8    1  0.2025822E+004  0.1043930E+01  0.7957747E-01            NaN
         13   -1    0    0    0    0  0.00000000000E+00  0.00000000000E+00  0.74505805969E-08  0.10566000000E+00  0.10566000000E+00 0.  1.
     999900   -1    0    0    0    0 -0.00000000000E+00 -0.00000000000E+00 -0.74505805969E-08  0.93827000000E+00  0.93827000000E+00 0. -1.
     999902    2    1    2    0    0  0.36034441387E-02 -0.13200790419E-01  0.25999693626E-02  0.10300014136E+01  0.10299072320E+01 0.  0.
     999903    2    3    3    0    0 -0.12927908363E+00 -0.32686040832E-01 -0.43707785422E-02  0.13978456787E+00  0.41703273012E-01 0.  0.
         14    1    1    2    0    0 -0.36034441387E-02  0.13200790419E-01 -0.25999693626E-02  0.13928586361E-01  0.00000000000E+00 0.  1.
     999901    1    3    3    0    0  0.13288252777E+00  0.19485250414E-01  0.69707479048E-02  0.89021684577E+00  0.88000000000E+00 0. -1.
        -11    1    4    4    0    0 -0.53969635074E-01 -0.60999209405E-03 -0.17795845536E-01  0.56833501033E-01  0.51100000000E-03 0. -1.
         11    1    4    4    0    0 -0.75309448553E-01 -0.32076048738E-01  0.13425066993E-01  0.82951066834E-01  0.51100000000E-03 0.  1.
</event>
<event>
 8    1  0.2397367E+004  0.1043930E+01  0.7957747E-01            NaN
         13   -1    0    0    0    0  0.00000000000E+00  0.00000000000E+00  0.74505805969E-08  0.10566000000E+00  0.10566000000E+00 0.  1.
     999900   -1    0    0    0    0 -0.00000000000E+00 -0.00000000000E+00 -0.74505805969E-08  0.93827000000E+00  0.93827000000E+00 0. -1.
     999902    2    1    2    0    0  0.22849063602E-02 -0.43338241552E-02 -0.13754167868E-01  0.10293293164E+01  0.10292257583E+01 0.  0.
     999903    2    3    3    0    0  0.30436222759E-01  0.43033539716E-01  0.11892508762E+00  0.13767918957E+00  0.45101370022E-01 0.  0.
         14    1    1    2    0    0 -0.22849063602E-02  0.43338241552E-02  0.13754167868E-01  0.14600683635E-01  0.00000000000E+00 0.  1.
     999901    1    3    3    0    0 -0.28151316399E-01 -0.47367363871E-01 -0.13267925549E+00  0.89165012679E+00  0.88000000000E+00 0. -1.
        -11    1    4    4    0    0  0.32531163516E-01  0.37618258349E-01  0.57699590004E-01  0.76176858485E-01  0.51100000000E-03 0.  1.
         11    1    4    4    0    0 -0.20949407575E-02  0.54152813663E-02  0.61225497620E-01  0.61502331085E-01  0.51100000000E-03 0. -1.
</event>
<event>
 8    1  0.2025822E+004  0.1043930E+01  0.7957747E-01            NaN
         13   -1    0    0    0    0  0.00000000000E+00  0.00000000000E+00  0.74505805969E-08  0.10566000000E+00  0.10566000000E+00 0. -1.
     999900   -1    0    0    0    0 -0.00000000000E+00 -0.00000000000E+00 -0.74505805969E-08  0.93827000000E+00  0.93827000000E+00 0. -1.
     999902    2    1    2    0    0 -0.17265738591E-02  0.12931377708E-01  0.35686045257E-02  0.10304045970E+01  0.10303158240E+01 0.  0.
     999903    2    3    3    0    0 -0.11427294388E+00 -0.60099456537E-01 -0.28131824139E-01  0.13967169357E+00  0.45238612673E-01 0.  0.
         14    1    1    2    0    0  0.17265738591E-02 -0.12931377708E-01 -0.35686045257E-02  0.13525402951E-01  0.00000000000E+00 0.  1.
     999901    1    3    3    0    0  0.11254637002E+00  0.73030834245E-01  0.31700428665E-01  0.89073290348E+00  0.88000000000E+00 0. -1.
        -11    1    4    4    0    0 -0.43294067136E-01 -0.26849036380E-01 -0.33712687468E-01  0.61090534627E-01  0.51100000000E-03 0.  1.
         11    1    4    4    0    0 -0.70978876748E-01 -0.33250420156E-01  0.55808633287E-02  0.78581158947E-01  0.51100000000E-03 0. -1.
</event>
<event>
 8    1  0.2025822E+004  0.1043930E+01  0.7957747E-01            NaN
         13   -1    0    0    0    0  0.00000000000E+00  0.00000000000E+00  0.74505805969E-08  0.10566000000E+00  0.10566000000E+00 0.  1.
     999900   -1    0    0    0    0 -0.00000000000E+00 -0.00000000000E+00 -0.74505805969E-08  0.93827000000E+00  0.93827000000E+00 0.  1.
     999902    2    1    2    0    0 -0.12330570598E-01 -0.26339162604E-02  0.61063706120E-02  0.10299204230E+01  0.10298251354E+01 0.  0.
     999903    2    3    3    0    0  0.11878769178E+00  0.41239967932E-01  0.37120351493E-01  0.13858502962E+00  0.44907006878E-01 0.  0.
         14    1    1    2    0    0  0.12330570598E-01  0.26339162604E-02 -0.61063706120E-02  0.14009577016E-01  0.00000000000E+00 0. -1.
     999901    1    3    3    0    0 -0.13111826238E+00 -0.43873884193E-01 -0.31013980881E-01  0.89133539336E+00  0.88000000000E+00 0. -1.
        -11    1    4    4    0    0  0.43105638289E-01  0.38447719041E-01  0.17327829235E-01  0.60306201495E-01  0.51100000000E-03 0. -1.
         11    1    4    4    0    0  0.75682053495E-01  0.27922488917E-02  0.19792522258E-01  0.78278828130E-01  0.51100000000E-03 0.  1.
</event>
<event>
 8    1  0.2025822E+004  0.1043930E+01  0.7957747E-01            NaN
         13   -1    0    0    0    0  0.00000000000E+00  0.00000000000E+00  0.74505805969E-08  0.10566000000E+00  0.10566000000E+00 0. -1.
     999900   -1    0    0    0    0 -0.00000000000E+00 -0.00000000000E+00 -0.74505805969E-08  0.93827000000E+00  0.93827000000E+00 0. -1.
     999902    2    1    2    0    0  0.15243116731E-01  0.19854458089E-02  0.32444167048E-02  0.10282194671E+01  0.10280994367E+01 0.  0.
     999903    2    3    3    0    0 -0.37979521645E-01 -0.49854281971E-01  0.11488709322E+00  0.13805987818E+00  0.43972631025E-01 0.  0.
         14    1    1    2    0    0 -0.15243116731E-01 -0.19854458089E-02 -0.32444167048E-02  0.15710532851E-01  0.00000000000E+00 0.  1.
     999901    1    3    3    0    0  0.53222638375E-01  0.51839727780E-01 -0.11164267652E+00  0.89015958897E+00  0.88000000000E+00 0. -1.
        -11    1    4    4    0    0 -0.29283407975E-01 -0.56084839412E-01  0.10846941028E+00  0.12557428591E+00  0.51100000000E-03 0. -1.
         11    1    4    4    0    0 -0.86961136691E-02  0.62305574410E-02  0.64176829383E-02  0.12485592267E-01  0.51100000000E-03 0.  1.
</event>
<event>
 8    1  0.2025822E+004  0.1043930E+01  0.7957747E-01            NaN
         13   -1    0    0    0    0  0.00000000000E+00  0.00000000000E+00  0.74505805969E-08  0.10566000000E+00  0.10566000000E+00 0. -1.
     999900   -1    0    0    0    0 -0.00000000000E+00 -0.00000000000E+00 -0.74505805969E-08  0.93827000000E+00  0.93827000000E+00 0.  1.
     999902    2    1    2    0    0  0.75631107471E-02  0.68674232443E-02  0.86323306468E-02  0.10305554242E+01  0.10304686327E+01 0.  0.
     999903    2    3    3    0    0 -0.23684495949E-01  0.26924251830E-01  0.12919372278E+00  0.14155950822E+00  0.45411514809E-01 0.  0.
         14    1    1    2    0    0 -0.75631107471E-02 -0.68674232443E-02 -0.86323306468E-02  0.13374575828E-01  0.00000000000E+00 0.  1.
     999901    1    3    3    0    0  0.31247606696E-01 -0.20056828586E-01 -0.12056139214E+00  0.88899591595E+00  0.88000000000E+00 0.  1.
        -11    1    4    4    0    0 -0.33698915400E-01  0.15966140118E-01  0.58901203601E-01  0.69714757663E-01  0.51100000000E-03 0. -1.
         11    1    4    4    0    0  0.10014419451E-01  0.10958111712E-01  0.70292519182E-01  0.71844750561E-01  0.51100000000E-03 0.  1.
</event>
<event>
 8    1  0.2025822E+004  0.1043930E+01  0.7957747E-01            NaN
         13   -1    0    0    0    0  0.00000000000E+00  0.00000000000E+00  0.74505805969E-08  0.10566000000E+00  0.10566000000E+00 0.  1.
     999900   -1    0    0    0    0 -0.00000000000E+00 -0.00000000000E+00 -0.74505805969E-08  0.93827000000E+00  0.93827000000E+00 0.  1.
     999902    2    1    2    0    0 -0.89759662932E-02 -0.60730009330E-02 -0.10023957942E-01  0.10291675800E+01  0.10290616982E+01 0.  0.
     999903    2    3    3    0    0 -0.46701695644E-01 -0.29223210170E-01  0.11860683965E+00  0.13871542243E+00  0.46253017401E-01 0.  0.
         14    1    1    2    0    0  0.89759662932E-02  0.60730009330E-02  0.10023957942E-01  0.14762419993E-01  0.00000000000E+00 0.  1.
     999901    1    3    3    0    0  0.37725729350E-01  0.23150209237E-01 -0.12863079760E+00  0.89045215758E+00  0.88000000000E+00 0.  1.
        -11    1    4    4    0    0 -0.28245650134E-01  0.30174404418E-02  0.81056463496E-01  0.85891402910E-01  0.51100000000E-03 0.  1.
         11    1    4    4    0    0 -0.18456045509E-01 -0.32240650611E-01  0.37550376158E-01  0.52824019520E-01  0.51100000000E-03 0. -1.
</event>
<event>
 8    1  0.2025822E+004  0.1043930E+01  0.7957747E-01            NaN
         13   -1    0    0    0    0  0.00000000000E+00  0.00000000000E+00  0.74505805969E-08  0.10566000000E+00  0.10566000000E+00 0. -1.
     999900   -1    0    0    0    0 -0.00000000000E+00 -0.00000000000E+00 -0.74505805969E-08  0.93827000000E+00  0.93827000000E+00 0. -1.
     999902    2    1    2    0    0  0.22167772399E-02  0.13862684403E-01 -0.24899848558E-02  0.10296720848E+01  0.10295733651E+01 0.  0.
     999903    2    3    3    0    0 -0.24856618623E-01 -0.92098585290E-01 -0.90006484218E-01  0.13859414375E+00  0.44801434999E-01 0.  0.
         14    1    1    2    0    0 -0.22167772399E-02 -0.13862684403E-01  0.24899848558E-02  0.14257915162E-01  0.00000000000E+00 0. -1.
     999901    1    3    3    0    0  0.27073395862E-01  0.10596126969E+00  0.87516499362E-01  0.89107794109E+00  0.88000000000E+00 0. -1.
        -11    1    4    4    0    0 -0.21023930235E-01 -0.46622304110E-01 -0.74549128535E-01  0.90407292678E-01  0.51100000000E-03 0.  1.
         11    1    4    4    0    0 -0.38326883880E-02 -0.45476281180E-01 -0.15457355683E-01  0.48186851069E-01  0.51100000000E-03 0. -1.
</event>
<event>
 8    1  0.2025822E+004  0.1043930E+01  0.7957747E-01            NaN
         13   -1    0    0    0    0  0.00000000000E+00  0.00000000000E+00  0.74505805969E-08  0.10566000000E+00  0.10566000000E+00 0.  1.
     999900   -1    0    0    0    0 -0.00000000000E+00 -0.00000000000E+00 -0.74505805969E-08  0.93827000000E+00  0.93827000000E+00 0. -1.
     999902    2    1    2    0    0  0.80427032664E-02  0.83836832760E-02  0.11192006937E-01  0.10277982846E+01  0.10276716799E+01 0.  0.
     999903    2    3    3    0    0 -0.26201180272E-01 -0.90104935790E-01 -0.88000409821E-01  0.13610787470E+00  0.44450873160E-01 0.  0.
         14    1    1    2    0    0 -0.80427032664E-02 -0.83836832760E-02 -0.11192006937E-01  0.16131715358E-01  0.00000000000E+00 0. -1.
     999901    1    3    3    0    0  0.34243883538E-01  0.98488619066E-01  0.99192416758E-01  0.89169040994E+00  0.88000000000E+00 0.  1.
        -11    1    4    4    0    0 -0.17658058109E-01 -0.87040171471E-02 -0.68560323510E-02  0.20852655257E-01  0.51100000000E-03 0.  1.
         11    1    4    4    0    0 -0.85431221623E-02 -0.81400918643E-01 -0.81144377470E-01  0.11525521944E+00  0.51100000000E-03 0. -1.
</event>
<event>
 8    1  0.2025822E+004  0.1043930E+01  0.7957747E-01            NaN
         13   -1    0    0    0    0  0.00000000000E+00  0.00000000000E+00  0.74505805969E-08  0.10566000000E+00  0.10566000000E+00 0. -1.
     999900   -1    0    0    0    0 -0.00000000000E+00 -0.00000000000E+00 -0.74505805969E-08  0.93827000000E+00  0.93827000000E+00 0. -1.
     999902    2    1    2    0    0 -0.87716595111E-02  0.51997773868E-02  0.79002241307E-02  0.10310306498E+01  0.10309499539E+01 0.  0.
     999903    2    3    3    0    0 -0.83341914405E-02  0.13020527675E+00  0.32856465009E-01  0.14184597815E+00  0.44920612022E-01 0.  0.
         14    1    1    2    0    0  0.87716595111E-02 -0.51997773868E-02 -0.79002241307E-02  0.12899350246E-01  0.00000000000E+00 0.  1.
     999901    1    3    3    0    0 -0.43746807065E-03 -0.12500549937E+00 -0.24956240879E-01  0.88918467160E+00  0.88000000000E+00 0. -1.
        -11    1    4    4    0    0  0.15023583966E-01  0.81056888786E-01  0.10866370772E-01  0.83152068102E-01  0.51100000000E-03 0.  1.
         11    1    4    4    0    0 -0.23357775407E-01  0.49148387966E-01  0.21990094238E-01  0.58693910052E-01  0.51100000000E-03 0. -1.
</event>
<event>
 8    1  0.2025822E+004  0.1043930E+01  0.7957747E-01            NaN
         13   -1    0    0    0    0  0.00000000000E+00  0.00000000000E+00  0.74505805969E-08  0.10566000000E+00  0.10566000000E+00 0.  1.
     999900   -1    0    0    0    0 -0.00000000000E+00 -0.00000000000E+00 -0.74505805969E-08  0.93827000000E+00  0.93827000000E+00 0. -1.
     999902    2    1    2    0    0  0.33312951389E-02  0.15015104027E-01 -0.68575871095E-03  0.10285345091E+01  0.10284192799E+01 0.  0.
     999903    2    3    3    0    0 -0.68596656420E-01  0.10262530536E+00 -0.46180011835E-01  0.14009829601E+00  0.47512992733E-01 0.  0.
         14    1    1    2    0    0 -0.33312951389E-02 -0.15015104027E-01  0.68575871095E-03  0.15395490939E-01  0.00000000000E+00 0. -1.
     999901    1    3    3    0    0  0.71927951559E-01 -0.87610201337E-01  0.45494253124E-01  0.88843621305E+00  0.88000000000E+00 0.  1.
        -11    1    4    4    0    0 -0.34906559621E-01  0.39078814814E-01 -0.43529767804E-01  0.68122855767E-01  0.51100000000E-03 0. -1.
         11    1    4    4    0    0 -0.33690096800E-01  0.63546490550E-01 -0.26502440310E-02  0.71975440242E-01  0.51100000000E-03 0.  1.
</event>
<event>
 8    1  0.2025822E+004  0.1043930E+01  0.7957747E-01            NaN
         13   -1    0    0    0    0  0.00000000000E+00  0.00000000000E+00  0.74505805969E-08  0.10566000000E+00  0.10566000000E+00 0.  1.
     999900   -1    0    0    0    0 -0.00000000000E+00 -0.00000000000E+00 -0.74505805969E-08  0.93827000000E+00  0.93827000000E+00 0.  1.
     999902    2    1    2    0    0  0.41454688432E-02 -0.10198477206E-02 -0.15898576900E-01  0.10274682337E+01  0.10273363527E+01 0.  0.
     999903    2    3    3    0    0 -0.43267279488E-01 -0.93746626590E-01  0.77321192290E-01  0.13643728612E+00  0.44453107838E-01 0.  0.
         14    1    1    2    0    0 -0.41454688432E-02  0.10198477206E-02  0.15898576900E-01  0.16461766270E-01  0.00000000000E+00 0.  1.
     999901    1    3    3    0    0  0.47412748331E-01  0.92726778869E-01 -0.93219769189E-01  0.89103094761E+00  0.88000000000E+00 0.  1.
        -11    1    4    4    0    0 -0.11855843530E-01 -0.73425704677E-01  0.44551024863E-01  0.86700346426E-01  0.51100000000E-03 0. -1.
         11    1    4    4    0    0 -0.31411435957E-01 -0.20320921913E-01  0.32770167427E-01  0.49736939698E-01  0.51100000000E-03 0.  1.
</event>
<event>
 8    1  0.2025822E+004  0.1043930E+01  0.7957747E-01            NaN
         13   -1    0    0    0    0  0.00000000000E+00  0.00000000000E+00  0.74505805969E-08  0.10566000000E+00  0.10566000000E+00 0. -1.
     999900   -1    0    0    0    0 -0.00000000000E+00 -0.00000000000E+00 -0.74505805969E-08  0.93827000000E+00  0.93827000000E+00 0. -1.
     999902    2    1    2    0    0 -0.37677459773E-02  0.13175630641E-01 -0.73125172093E-03  0.10302067394E+01  0.10301153324E+01 0.  0.
     999903    2    3    3    0    0 -0.90693903021E-01 -0.43724676904E-01  0.86202835787E-01  0.13984089473E+00  0.44579317239E-01 0.  0.
         14    1    1    2    0    0  0.37677459773E-02 -0.13175630641E-01  0.73125172093E-03  0.13723260605E-01  0.00000000000E+00 0.  1.
     999901    1    3    3    0    0  0.86926157044E-01  0.56900307545E-01 -0.86934087508E-01  0.89036584467E+00  0.88000000000E+00 0. -1.
        -11    1    4    4    0    0 -0.13127073686E-01  0.65299223082E-02  0.25007206902E-01  0.28992783015E-01  0.51100000000E-03 0.  1.
         11    1    4    4    0    0 -0.77566829335E-01 -0.50254599212E-01  0.61195628885E-01  0.11084811171E+00  0.51100000000E-03 0. -1.
</event>
<event>
 8    1  0.2025822E+004  0.1043930E+01  0.7957747E-01            NaN
         13   -1    0    0    0    0  0.00000000000E+00  0.00000000000E+00  0.74505805969E-08  0.10566000000E+00  0.10566000000E+00 0. -1.
     999900   -1    0    0    0    0 -0.00000000000E+00 -0.00000000000E+00 -0.74505805969E-08  0.93827000000E+00  0.93827000000E+00 0.  1.
     999902    2    1    2    0    0 -0.31012256093E-02  0.12959265299E-01  0.49182177937E-02  0.10297261617E+01  0.10296281945E+01 0.  0.
     999903    2    3    3    0    0  0.87315384285E-01 -0.96166827887E-01 -0.12407503098E-01  0.13821965682E+00  0.45592677926E-01 0.  0.
         14    1    1    2    0    0  0.31012256093E-02 -0.12959265299E-01 -0.49182177937E-02  0.14203838342E-01  0.00000000000E+00 0.  1.
     999901    1    3    3    0    0 -0.90416609895E-01  0.10912609319E+00  0.17325720892E-01  0.89150650484E+00  0.88000000000E+00 0.  1.
        -11    1    4    4    0    0  0.81339482951E-02  0.43844027621E-03  0.82589881127E-02  0.11611431884E-01  0.51100000000E-03 0. -1.
         11    1    4    4    0    0  0.79181435990E-01 -0.96605268163E-01 -0.20666491211E-01  0.12660822494E+00  0.51100000000E-03 0.  1.
</event>
<event>
 8    1  0.2025822E+004  0.1043930E+01  0.7957747E-01            NaN
         13   -1    0    0    0    0  0.00000000000E+00  0.00000000000E+00  0.74505805969E-08  0.10566000000E+00  0.10566000000E+00 0. -1.
     999900   -1    0    0    0    0 -0.00000000000E+00 -0.00000000000E+00 -0.74505805969E-08  0.93827000000E+00  0.93827000000E+00 0.  1.
     999902    2    1    2    0    0 -0.72722915849E-02 -0.74900008121E-02 -0.88071716247E-02  0.10302715737E+01  0.10301810341E+01 0.  0.
     999903    2    3    3    0    0 -0.98913640127E-01 -0.47336959637E-01  0.73073855872E-01  0.14083893456E+00  0.49710372421E-01 0.  0.
         14    1    1    2    0    0  0.72722915849E-02  0.74900008121E-02  0.88071716247E-02  0.13658426303E-01  0.00000000000E+00 0.  1.
     999901    1    3    3    0    0  0.91641348542E-01  0.39846958825E-01 -0.81881027497E-01  0.88943263913E+00  0.88000000000E+00 0.  1.
        -11    1    4    4    0    0 -0.82996604830E-01 -0.53606979034E-01  0.46426881837E-01  0.10916895663E+00  0.51100000000E-03 0. -1.
         11    1    4    4    0    0 -0.15917035297E-01  0.62700193966E-02  0.26646974035E-01  0.31669977930E-01  0.51100000000E-03 0.  1.
</event>
<event>
 8    1  0.2025822E+004  0.1043930E+01  0.7957747E-01            NaN
         13   -1    0    0    0    0  0.00000000000E+00  0.00000000000E+00  0.74505805969E-08  0.10566000000E+00  0.10566000000E+00 0.  1.
     999900   -1    0    0    0    0 -0.00000000000E+00 -0.00000000000E+00 -0.74505805969E-08  0.93827000000E+00  0.93827000000E+00 0. -1.
     999902    2    1    2    0    0  0.37005247631E-02 -0.90060469889E-02  0.58840637364E-02  0.10325534903E+01  0.10324908162E+01 0.  0.
     999903    2    3    3    0    0  0.82961396979E-01  0.13387751624E-01 -0.10548532295E+00  0.14171854021E+00  0.43533504336E-01 0.  0.
         14    1    1    2    0    0 -0.37005247631E-02  0.90060469889E-02 -0.58840637364E-02  0.11376509655E-01  0.00000000000E+00 0. -1.
     999901    1    3    3    0    0 -0.79260872216E-01 -0.22393798613E-01  0.11136938669E+00  0.89083495013E+00  0.88000000000E+00 0.  1.
        -11    1    4    4    0    0  0.48776469897E-02 -0.11268600395E-01 -0.93886717576E-02  0.15465480057E-01  0.51100000000E-03 0. -1.
         11    1    4    4    0    0  0.78083749989E-01  0.24656352019E-01 -0.96096651196E-01  0.12625306016E+00  0.51100000000E-03 0.  1.
</event>
<event>
 8    1  0.2025822E+004  0.1043930E+01  0.7957747E-01            NaN
         13   -1    0    0    0    0  0.00000000000E+00  0.00000000000E+00  0.74505805969E-08  0.10566000000E+00  0.10566000000E+00 0. -1.
     999900   -1    0    0    0    0 -0.00000000000E+00 -0.00000000000E+00 -0.74505805969E-08  0.93827000000E+00  0.93827000000E+00 0. -1.
     999902    2    1    2    0    0  0.71362020580E-02  0.34915396259E-02 -0.94503673634E-02  0.10315839208E+01  0.10315100387E+01 0.  0.
     999903    2    3    3    0    0 -0.36360233409E-01 -0.12287491660E+00 -0.38181927448E-01  0.14103020331E+00  0.44848042977E-01 0.  0.
         14    1    1    2    0    0 -0.71362020580E-02 -0.34915396259E-02  0.94503673634E-02  0.12346079219E-01  0.00000000000E+00 0. -1.
     999901    1    3    3    0    0  0.43496435467E-01  0.12636645623E+00  0.28731560085E-01  0.89055371747E+00  0.88000000000E+00 0.  1.
        -11    1    4    4    0    0 -0.18909600649E-01 -0.79789137822E-01 -0.45796040638E-01  0.93922403984E-01  0.51100000000E-03 0. -1.
         11    1    4    4    0    0 -0.17450632760E-01 -0.43085778778E-01  0.76141131894E-02  0.47107799326E-01  0.51100000000E-03 0.  1.
</event>
<event>
 8    1  0.2025822E+004  0.1043930E+01  0.7957747E-01            NaN
         13   -1    0    0    0    0  0.00000000000E+00  0.00000000000E+00  0.74505805969E-08  0.10566000000E+00  0.10566000000E+00 0.  1.
     999900   -1    0    0    0    0 -0.00000000000E+00 -0.00000000000E+00 -0.74505805969E-08  0.93827000000E+00  0.93827000000E+00 0.  1.
     999902    2    1    2    0    0 -0.11991876650E-01  0.36616317897E-02 -0.28605285283E-03  0.10313882904E+01  0.10313120338E+01 0.  0.
     999903    2    3    3    0    0 -0.12333066015E-01 -0.12381295515E+00 -0.46820699353E-01  0.14098649345E+00  0.46938907811E-01 0.  0.
         14    1    1    2    0    0  0.11991876650E-01 -0.36616317897E-02  0.28605285283E-03  0.12541709579E-01  0.00000000000E+00 0.  1.
     999901    1    3    3    0    0  0.34118936536E-03  0.12747458694E+00  0.46534646500E-01  0.89040179697E+00  0.88000000000E+00 0.  1.
        -11    1    4    4    0    0  0.28798629592E-02 -0.96102732407E-01 -0.51427340650E-01  0.10903697205E+00  0.51100000000E-03 0. -1.
         11    1    4    4    0    0 -0.15212928974E-01 -0.27710222744E-01  0.46066412972E-02  0.31949521397E-01  0.51100000000E-03 0.  1.
</event>
<event>
 8    1  0.2025822E+004  0.1043930E+01  0.7957747E-01            NaN
         13   -1    0    0    0    0  0.00000000000E+00  0.00000000000E+00  0.74505805969E-08  0.10566000000E+00  0.10566000000E+00 0.  1.
     999900   -1    0    0    0    0 -0.00000000000E+00 -0.00000000000E+00 -0.74505805969E-08  0.93827000000E+00  0.93827000000E+00 0.  1.
     999902    2    1    2    0    0  0.57344024998E-02  0.83023973983E-02  0.83826752799E-02  0.10308119811E+01  0.10307285084E+01 0.  0.
     999903    2    3    3    0    0 -0.11660682001E+00  0.50122935153E-01 -0.38786268790E-01  0.14011492746E+00  0.44926152184E-01 0.  0.
         14    1    1    2    0    0 -0.57344024998E-02 -0.83023973983E-02 -0.83826752799E-02  0.13118018884E-01  0.00000000000E+00 0. -1.
     999901    1    3    3    0    0  0.12234122251E+00 -0.41820537755E-01  0.47168944070E-01  0.89069705365E+00  0.88000000000E+00 0.  1.
        -11    1    4    4    0    0 -0.22726108598E-01  0.27638656500E-02 -0.25264715811E-01  0.34098122402E-01  0.51100000000E-03 0. -1.
         11    1    4    4    0    0 -0.93880711410E-01  0.47359069503E-01 -0.13521552980E-01  0.10601680506E+00  0.51100000000E-03 0.  1.
</event>
<event>
 8    1  0.2025822E+004  0.1043930E+01  0.7957747E-01            NaN
         13   -1    0    0    0    0  0.00000000000E+00  0.00000000000E+00  0.74505805969E-08  0.10566000000E+00  0.10566000000E+00 0. -1.
     999900   -1    0    0    0    0 -0.00000000000E+00 -0.00000000000E+00 -0.74505805969E-08  0.93827000000E+00  0.93827000000E+00 0.  1.
     999902    2    1    2    0    0 -0.76957840633E-02 -0.74733222855E-02  0.79330779082E-02  0.10305879850E+01  0.10305016184E+01 0.  0.
     999903    2    3    3    0    0 -0.67966001988E-01 -0.11534644328E+00 -0.14652343536E-01  0.14166773514E+00  0.43941741034E-01 0.  0.
         14    1    1    2    0    0  0.76957840633E-02  0.74733222855E-02 -0.79330779082E-02  0.13342014969E-01  0.00000000000E+00 0. -1.
     999901    1    3    3    0    0  0.60270217924E-01  0.10787312100E+00  0.22585421444E-01  0.88892024989E+00  0.88000000000E+00 0. -1.
        -11    1    4    4    0    0 -0.44751437990E-01 -0.40100992471E-01 -0.18358711015E-01  0.62833782239E-01  0.51100000000E-03 0.  1.
         11    1    4    4    0    0 -0.23214563997E-01 -0.75245450811E-01  0.37063674792E-02  0.78833952902E-01  0.51100000000E-03 0. -1.
</event>
<event>
 8    1  0.2025822E+004  0.1043930E+01  0.7957747E-01            NaN
         13   -1    0    0    0    0  0.00000000000E+00  0.00000000000E+00  0.74505805969E-08  0.10566000000E+00  0.10566000000E+00 0.  1.
     999900   -1    0    0    0    0 -0.00000000000E+00 -0.00000000000E+00 -0.74505805969E-08  0.93827000000E+00  0.93827000000E+00 0. -1.
     999902    2    1    2    0    0  0.12198665864E-01 -0.14264664474E-02 -0.83983903801E-02  0.10290513167E+01  0.10289437483E+01 0.  0.
     999903    2    3    3    0    0 -0.44135385352E-01  0.66445601728E-01 -0.10504527399E+00  0.13937679023E+00  0.45038093193E-01 0.  0.
         14    1    1    2    0    0 -0.12198665864E-01  0.14264664474E-02  0.83983903801E-02  0.14878683287E-01  0.00000000000E+00 0. -1.
     999901    1    3    3    0    0  0.56334051216E-01 -0.67872068176E-01  0.96646883605E-01  0.88967452648E+00  0.88000000000E+00 0.  1.
        -11    1    4    4    0    0 -0.11904965964E-01  0.19439117878E-01 -0.67191623901E-01  0.70954795200E-01  0.51100000000E-03 0.  1.
         11    1    4    4    0    0 -0.32230419389E-01  0.47006483850E-01 -0.37853650084E-01  0.68421995028E-01  0.51100000000E-03 0. -1.
</event>
<event>
 8    1  0.2025822E+004  0.1043930E+01  0.7957747E-01            NaN
         13   -1    0    0    0    0  0.00000000000E+00  0.00000000000E+00  0.74505805969E-08  0.10566000000E+00  0.10566000000E+00 0.  1.
     999900   -1    0    0    0    0 -0.00000000000E+00 -0.00000000000E+00 -0.74505805969E-08  0.93827000000E+00  0.93827000000E+00 0.  1.
     999902    2    1    2    0    0  0.32852712740E-02 -0.28286491534E-02 -0.14201105126E-01  0.10290819143E+01  0.10289747910E+01 0.  0.
     999903    2    3    3    0    0  0.79555342353E-01  0.48605136937E-01 -0.95356037344E-01  0.14057266776E+00  0.44456599390E-01 0.  0.
         14    1    1    2    0    0 -0.32852712740E-02  0.28286491534E-02  0.14201105126E-01  0.14848085741E-01  0.00000000000E+00 0.  1.
     999901    1    3    3    0    0 -0.76270071079E-01 -0.51433786090E-01  0.81154932218E-01  0.88850924650E+00  0.88000000000E+00 0. -1.
        -11    1    4    4    0    0  0.52434145595E-01  0.64658657469E-02 -0.54595849799E-01  0.75974436361E-01  0.51100000000E-03 0. -1.
         11    1    4    4    0    0  0.27121196758E-01  0.42139271190E-01 -0.40760187545E-01  0.64598231397E-01  0.51100000000E-03 0.  1.
</event>
<event>
 8    1  0.2025822E+004  0.1043930E+01  0.7957747E-01            NaN
         13   -1    0    0    0    0  0.00000000000E+00  0.00000000000E+00  0.74505805969E-08  0.10566000000E+00  0.10566000000E+00 0. -1.
     999900   -1    0    0    0    0 -0.00000000000E+00 -0.00000000000E+00 -0.74505805969E-08  0.93827000000E+00  0.93827000000E+00 0. -1.
     999902    2    1    2    0    0 -0.86661662842E-03  0.83148246541E-02 -0.82937277085E-02  0.10321540392E+01  0.10320868604E+01 0.  0.
     999903    2    3    3    0    0  0.26510964478E-01  0.10217046363E+00 -0.84726238741E-01  0.14344692116E+00  0.47506302568E-01 0.  0.
         14    1    1    2    0    0  0.86661662842E-03 -0.83148246541E-02  0.82937277085E-02  0.11775960798E-01  0.00000000000E+00 0. -1.
     999901    1    3    3    0    0 -0.27377581106E-01 -0.93855638974E-01  0.76432511033E-01  0.88870711804E+00  0.88000000000E+00 0. -1.
        -11    1    4    4    0    0  0.19773489523E-01  0.46874787550E-01 -0.12785192005E-01  0.52459115999E-01  0.51100000000E-03 0.  1.
         11    1    4    4    0    0  0.67374749549E-02  0.55295676079E-01 -0.71941046736E-01  0.90987805162E-01  0.51100000000E-03 0. -1.
</event>
<event>
 8    1  0.2025822E+004  0.1043930E+01  0.7957747E-01            NaN
         13   -1    0    0    0    0  0.00000000000E+00  0.00000000000E+00  0.74505805969E-08  0.10566000000E+00  0.10566000000E+00 0.  1.
     999900   -1    0    0    0    0 -0.00000000000E+00 -0.00000000000E+00 -0.74505805969E-08  0.93827000000E+00  0.93827000000E+00 0.  1.
     999902    2    1    2    0    0 -0.11992800459E-01 -0.43492196777E-02 -0.60703067618E-02  0.10298023109E+01  0.10297053986E+01 0.  0.
     999903    2    3    3    0    0 -0.10211585258E+00  0.54432010833E-01 -0.69243774044E-01  0.14100071070E+00  0.41182630092E-01 0.  0.
         14    1    1    2    0    0  0.11992800459E-01  0.43492196777E-02  0.60703067618E-02  0.14127689083E-01  0.00000000000E+00 0.  1.
     999901    1    3    3    0    0  0.90123052122E-01 -0.58781230511E-01  0.63173467283E-01  0.88880160022E+00  0.88000000000E+00 0. -1.
        -11    1    4    4    0    0 -0.10545777314E+00  0.49462023163E-01 -0.67947706587E-01  0.13485171709E+00  0.51100000000E-03 0. -1.
         11    1    4    4    0    0  0.33419205614E-02  0.49699876705E-02 -0.12960674579E-02  0.61489936038E-02  0.51100000000E-03 0.  1.
</event>
<event>
 8    1  0.2025822E+004  0.1043930E+01  0.7957747E-01            NaN
         13   -1    0    0    0    0  0.00000000000E+00  0.00000000000E+00  0.74505805969E-08  0.10566000000E+00  0.10566000000E+00 0. -1.
     999900   -1    0    0    0    0 -0.00000000000E+00 -0.00000000000E+00 -0.74505805969E-08  0.93827000000E+00  0.93827000000E+00 0.  1.
     999902    2    1    2    0    0  0.44484104388E-02 -0.10312148860E-01  0.92714843340E-02  0.10293667177E+01  0.10292636933E+01 0.  0.
     999903    2    3    3    0    0  0.91167802639E-01 -0.93442447648E-01  0.30164744482E-01  0.14095947557E+00  0.43779021024E-01 0.  0.
         14    1    1    2    0    0 -0.44484104388E-02  0.10312148860E-01 -0.92714843340E-02  0.14563282298E-01  0.00000000000E+00 0.  1.
     999901    1    3    3    0    0 -0.86719392200E-01  0.83130298788E-01 -0.20893260148E-01  0.88840724214E+00  0.88000000000E+00 0.  1.
        -11    1    4    4    0    0  0.71413029406E-01 -0.68372502388E-01  0.27901950869E-02  0.98907361513E-01  0.51100000000E-03 0.  1.
         11    1    4    4    0    0  0.19754773232E-01 -0.25069945259E-01  0.27374549395E-01  0.42052114053E-01  0.51100000000E-03 0. -1.
</event>
<event>
 8    1  0.2025822E+004  0.1043930E+01  0.7957747E-01            NaN
         13   -1    0    0    0    0  0.00000000000E+00  0.00000000000E+00  0.74505805969E-08  0.10566000000E+00  0.10566000000E+00 0.  1.
     999900   -1    0    0    0    0 -0.00000000000E+00 -0.00000000000E+00 -0.74505805969E-08  0.93827000000E+00  0.93827000000E+00 0. -1.
     999902    2    1    2    0    0  0.12351364129E-01 -0.30104812107E-03  0.74911681079E-02  0.10294813175E+01  0.10293799195E+01 0.  0.
     999903    2    3    3    0    0  0.84755950346E-01 -0.54745452699E-01  0.88842732378E-01  0.14109812638E+00  0.42837068766E-01 0.  0.
         14    1    1    2    0    0 -0.12351364129E-01  0.30104812107E-03 -0.74911681079E-02  0.14448682481E-01  0.00000000000E+00 0. -1.
     999901    1    3    3    0    0 -0.72404586216E-01  0.54444404578E-01 -0.81351564270E-01  0.88838319114E+00  0.88000000000E+00 0. -1.
        -11    1    4    4    0    0  0.15392256315E-01 -0.14281561077E-01  0.44868919261E-01  0.49541554053E-01  0.51100000000E-03 0. -1.
         11    1    4    4    0    0  0.69363694030E-01 -0.40463891622E-01  0.43973813116E-01  0.91556572324E-01  0.51100000000E-03 0.  1.
</event>
<event>
 8    1  0.2025822E+004  0.1043930E+01  0.7957747E-01            NaN
         13   -1    0    0    0    0  0.00000000000E+00  0.00000000000E+00  0.74505805969E-08  0.10566000000E+00  0.10566000000E+00 0.  1.
     999900   -1    0    0    0    0 -0.00000000000E+00 -0.00000000000E+00 -0.74505805969E-08  0.93827000000E+00  0.93827000000E+00 0. -1.
     999902    2    1    2    0    0 -0.98818091881E-02  0.72728895353E-03  0.10889706137E-01  0.10292070654E+01  0.10291017534E+01 0.  0.
     999903    2    3    3    0    0 -0.11225950674E+00  0.40833916762E-01 -0.56489375152E-01  0.13980857481E+00  0.45670367582E-01 0.  0.
         14    1    1    2    0    0  0.98818091881E-02 -0.72728895353E-03 -0.10889706137E-01  0.14722934552E-01  0.00000000000E+00 0.  1.
     999901    1    3    3    0    0  0.10237769755E+00 -0.40106627809E-01  0.67379081290E-01  0.88939849064E+00  0.88000000000E+00 0.  1.
        -11    1    4    4    0    0 -0.47423538321E-01  0.12890786288E-01  0.38304313843E-03  0.49148470994E-01  0.51100000000E-03 0.  1.
         11    1    4    4    0    0 -0.64835968416E-01  0.27943130474E-01 -0.56872418291E-01  0.90660103818E-01  0.51100000000E-03 0. -1.
</event>
<event>
 8    1  0.2025822E+004  0.1043930E+01  0.7957747E-01            NaN
         13   -1    0    0    0    0  0.00000000000E+00  0.00000000000E+00  0.74505805969E-08  0.10566000000E+00  0.10566000000E+00 0.  1.
     999900   -1    0    0    0    0 -0.00000000000E+00 -0.00000000000E+00 -0.74505805969E-08  0.93827000000E+00  0.93827000000E+00 0.  1.
     999902    2    1    2    0    0 -0.72837766829E-02  0.49931085427E-02 -0.11388096500E-01  0.10295191264E+01  0.10294182621E+01 0.  0.
     999903    2    3    3    0    0 -0.11148140765E+00  0.33432549792E-01 -0.66451657023E-01  0.14120727587E+00  0.44472827649E-01 0.  0.
         14    1    1    2    0    0  0.72837766829E-02 -0.49931085427E-02  0.11388096500E-01  0.14410873588E-01  0.00000000000E+00 0.  1.
     999901    1    3    3    0    0  0.10419763097E+00 -0.28439441249E-01  0.55063560523E-01  0.88831185054E+00  0.88000000000E+00 0. -1.
        -11    1    4    4    0    0 -0.11790549326E-01 -0.10338820889E-01 -0.93384635162E-02  0.18258595035E-01  0.51100000000E-03 0. -1.
         11    1    4    4    0    0 -0.99690858326E-01  0.43771370681E-01 -0.57113193507E-01  0.12294868083E+00  0.51100000000E-03 0.  1.
</event>
<event>
 8    1  0.2025822E+004  0.1043930E+01  0.7957747E-01            NaN
         13   -1    0    0    0    0  0.00000000000E+00  0.00000000000E+00  0.74505805969E-08  0.10566000000E+00  0.10566000000E+00 0.  1.
     999900   -1    0    0    0    0 -0.00000000000E+00 -0.00000000000E+00 -0.74505805969E-08  0.93827000000E+00  0.93827000000E+00 0.  1.
     999902    2    1    2    0    0  0.19420639687E-02 -0.16716161217E-01  0.82199355583E-02  0.10252011720E+01  0.10250300845E+01 0.  0.
     999903    2    3    3    0    0  0.84646297183E-01 -0.30004500312E-01 -0.90314198577E-01  0.13574878667E+00  0.46966083001E-01 0.  0.
         14    1    1    2    0    0 -0.19420639687E-02  0.16716161217E-01 -0.82199355583E-02  0.18728828016E-01  0.00000000000E+00 0.  1.
     999901    1    3    3    0    0 -0.82704233214E-01  0.13288339096E-01  0.98534134135E-01  0.88945238531E+00  0.88000000000E+00 0. -1.
        -11    1    4    4    0    0  0.53623151879E-01 -0.41952119512E-01 -0.59685655494E-01  0.90543146299E-01  0.51100000000E-03 0.  1.
         11    1    4    4    0    0  0.31023145304E-01  0.11947619200E-01 -0.30628543084E-01  0.45205640373E-01  0.51100000000E-03 0. -1.
</event>
<event>
 8    1  0.2025822E+004  0.1043930E+01  0.7957747E-01            NaN
         13   -1    0    0    0    0  0.00000000000E+00  0.00000000000E+00  0.74505805969E-08  0.10566000000E+00  0.10566000000E+00 0.  1.
     999900   -1    0    0    0    0 -0.00000000000E+00 -0.00000000000E+00 -0.74505805969E-08  0.93827000000E+00  0.93827000000E+00 0. -1.
     999902    2    1    2    0    0  0.24682870142E-02  0.12114370336E-01 -0.57340661501E-02  0.10303017234E+01  0.10302115857E+01 0.  0.
     999903    2    3    3    0    0  0.86690916234E-01  0.86394905471E-01  0.54331715916E-01  0.14113416472E+00  0.44581638012E-01 0.  0.
         14    1    1    2    0    0 -0.24682870142E-02 -0.12114370336E-01  0.57340661501E-02  0.13628276635E-01  0.00000000000E+00 0. -1.
     999901    1    3    3    0    0 -0.84222629220E-01 -0.74280535136E-01 -0.60065782066E-01  0.88916755865E+00  0.88000000000E+00 0. -1.
        -11    1    4    4    0    0  0.54835379733E-01  0.71230964126E-01  0.55825403239E-01  0.10581826822E+00  0.51100000000E-03 0.  1.
         11    1    4    4    0    0  0.31855536502E-01  0.15163941345E-01 -0.14936873230E-02  0.35315896502E-01  0.51100000000E-03 0. -1.
</event>
<event>
 8    1  0.2025822E+004  0.1043930E+01  0.7957747E-01            NaN
         13   -1    0    0    0    0  0.00000000000E+00  0.00000000000E+00  0.74505805969E-08  0.10566000000E+00  0.10566000000E+00 0.  1.
     999900   -1    0    0    0    0 -0.00000000000E+00 -0.00000000000E+00 -0.74505805969E-08  0.93827000000E+00  0.93827000000E+00 0.  1.
     999902    2    1    2    0    0  0.38024960369E-02 -0.10442205621E-01  0.17107198500E-01  0.10235301256E+01  0.10233268115E+01 0.  0.
     999903    2    3    3    0    0  0.14403245796E-01  0.12121047862E+00 -0.18927664740E-01  0.13294418561E+00  0.49157566868E-01 0.  0.
         14    1    1    2    0    0 -0.38024960369E-02  0.10442205621E-01 -0.17107198500E-01  0.20399874383E-01  0.00000000000E+00 0. -1.
     999901    1    3    3    0    0 -0.10600749759E-01 -0.13165268424E+00  0.36034863239E-01  0.89058594000E+00  0.88000000000E+00 0.  1.
        -11    1    4    4    0    0  0.96395660177E-03  0.64220710362E-01 -0.33728701758E-01  0.72547331412E-01  0.51100000000E-03 0. -1.
         11    1    4    4    0    0  0.13439289194E-01  0.56989768254E-01  0.14801037019E-01  0.60396854202E-01  0.51100000000E-03 0.  1.
</event>
<event>
 8    1  0.2025822E+004  0.1043930E+01  0.7957747E-01            NaN
         13   -1    0    0    0    0  0.00000000000E+00  0.00000000000E+00  0.74505805969E-08  0.10566000000E+00  0.10566000000E+00 0.  1.
     999900   -1    0    0    0    0 -0.00000000000E+00 -0.00000000000E+00 -0.74505805969E-08  0.93827000000E+00  0.93827000000E+00 0. -1.
     999902    2    1    2    0    0 -0.12387568041E-01  0.48853955855E-02 -0.34218933972E-02  0.10301812442E+01  0.10300894949E+01 0.  0.
     999903    2    3    3    0    0  0.34074614789E-01  0.61863504172E-01  0.11190014037E+00  0.13961714724E+00  0.44532391238E-01 0.  0.
         14    1    1    2    0    0  0.12387568041E-01 -0.48853955855E-02  0.34218933972E-02  0.13748755813E-01  0.00000000000E+00 0.  1.
     999901    1    3    3    0    0 -0.46462182830E-01 -0.56978108586E-01 -0.11532203376E+00  0.89056409694E+00  0.88000000000E+00 0. -1.
        -11    1    4    4    0    0  0.44217379646E-01  0.57033841224E-01  0.94643064935E-01  0.11901935376E+00  0.51100000000E-03 0. -1.
         11    1    4    4    0    0 -0.10142764857E-01  0.48296629482E-02  0.17257075430E-01  0.20597793487E-01  0.51100000000E-03 0.  1.
</event>
<event>
 8    1  0.2025822E+004  0.1043930E+01  0.7957747E-01            NaN
         13   -1    0    0    0    0  0.00000000000E+00  0.00000000000E+00  0.74505805969E-08  0.10566000000E+00  0.10566000000E+00 0. -1.
     999900   -1    0    0    0    0 -0.00000000000E+00 -0.00000000000E+00 -0.74505805969E-08  0.93827000000E+00  0.93827000000E+00 0. -1.
     999902    2    1    2    0    0  0.60849478052E-02  0.92553551702E-02  0.87406048923E-02  0.10298202033E+01  0.10297235380E+01 0.  0.
     999903    2    3    3    0    0 -0.11455331681E+00 -0.63774822604E-01 -0.30303222643E-02  0.13851467068E+00  0.44580721723E-01 0.  0.
         14    1    1    2    0    0 -0.60849478052E-02 -0.92553551702E-02 -0.87406048923E-02  0.14109796703E-01  0.00000000000E+00 0. -1.
     999901    1    3    3    0    0  0.12063826461E+00  0.73030177774E-01  0.11770927157E-01  0.89130553262E+00  0.88000000000E+00 0. -1.
        -11    1    4    4    0    0 -0.25005648014E-01  0.34498540324E-02 -0.78411344786E-02  0.26437254705E-01  0.51100000000E-03 0.  1.
         11    1    4    4    0    0 -0.89547668795E-01 -0.67224676637E-01  0.48108122142E-02  0.11207741597E+00  0.51100000000E-03 0. -1.
</event>
<event>
 8    1  0.2025822E+004  0.1043930E+01  0.7957747E-01            NaN
         13   -1    0    0    0    0  0.00000000000E+00  0.00000000000E+00  0.74505805969E-08  0.10566000000E+00  0.10566000000E+00 0. -1.
     999900   -1    0    0    0    0 -0.00000000000E+00 -0.00000000000E+00 -0.74505805969E-08  0.93827000000E+00  0.93827000000E+00 0.  1.
     999902    2    1    2    0    0  0.96639615448E-02  0.87286931838E-02  0.66744717801E-02  0.10292967908E+01  0.10291927675E+01 0.  0.
     999903    2    3    3    0    0  0.10660683452E+00  0.15158254767E-01 -0.76800843367E-01  0.14002327377E+00  0.45971271486E-01 0.  0.
         14    1    1    2    0    0 -0.96639615448E-02 -0.87286931838E-02 -0.66744717801E-02  0.14633209182E-01  0.00000000000E+00 0.  1.
     999901    1    3    3    0    0 -0.96942872973E-01 -0.64295615827E-02  0.83475315147E-01  0.88927351705E+00  0.88000000000E+00 0. -1.
        -11    1    4    4    0    0  0.85448042725E-01  0.30282650875E-01 -0.54638371151E-01  0.10584904191E+00  0.51100000000E-03 0.  1.
         11    1    4    4    0    0  0.21158791793E-01 -0.15124396108E-01 -0.22162472215E-01  0.34174231864E-01  0.51100000000E-03 0. -1.
</event>
<event>
 8    1  0.2025822E+004  0.1043930E+01  0.7957747E-01            NaN
         13   -1    0    0    0    0  0.00000000000E+00  0.00000000000E+00  0.74505805969E-08  0.10566000000E+00  0.10566000000E+00 0. -1.
     999900   -1    0    0    0    0 -0.00000000000E+00 -0.00000000000E+00 -0.74505805969E-08  0.93827000000E+00  0.93827000000E+00 0.  1.
     999902    2    1    2    0    0 -0.86238987835E-03  0.80870631446E-02  0.12204111519E-01  0.10292642356E+01  0.10291597457E+01 0.  0.
     999903    2    3    3    0    0  0.65513666657E-01  0.11197713273E+00  0.30063222009E-01  0.14049099387E+00  0.44754924519E-01 0.  0.
         14    1    1    2    0    0  0.86238987835E-03 -0.80870631446E-02 -0.12204111519E-01  0.14665764370E-01  0.00000000000E+00 0.  1.
     999901    1    3    3    0    0 -0.66376056535E-01 -0.10389006958E+00 -0.17859110490E-01  0.88877324176E+00  0.88000000000E+00 0.  1.
        -11    1    4    4    0    0  0.44205550464E-01  0.71808302270E-01 -0.28215648523E-02  0.84372894439E-01  0.51100000000E-03 0. -1.
         11    1    4    4    0    0  0.21308116193E-01  0.40168830457E-01  0.32884786861E-01  0.56118099432E-01  0.51100000000E-03 0.  1.
</event>
<event>
 8    1  0.2025822E+004  0.1043930E+01  0.7957747E-01            NaN
         13   -1    0    0    0    0  0.00000000000E+00  0.00000000000E+00  0.74505805969E-08  0.10566000000E+00  0.10566000000E+00 0.  1.
     999900   -1    0    0    0    0 -0.00000000000E+00 -0.00000000000E+00 -0.74505805969E-08  0.93827000000E+00  0.93827000000E+00 0.  1.
     999902    2    1    2    0    0  0.14254097629E-02  0.13448264514E-01 -0.47225676050E-02  0.10296055364E+01  0.10295058865E+01 0.  0.
     999903    2    3    3    0    0 -0.69910896226E-01 -0.44224712377E-01 -0.10271614979E+00  0.13942702459E+00  0.45231948474E-01 0.  0.
         14    1    1    2    0    0 -0.14254097629E-02 -0.13448264514E-01  0.47225676050E-02  0.14324463558E-01  0.00000000000E+00 0. -1.
     999901    1    3    3    0    0  0.71336305989E-01  0.57672976892E-01  0.97993582182E-01  0.89017851185E+00  0.88000000000E+00 0. -1.
        -11    1    4    4    0    0 -0.19190442044E-01 -0.29006431738E-01 -0.17107818417E-01  0.38763187691E-01  0.51100000000E-03 0.  1.
         11    1    4    4    0    0 -0.50720454182E-01 -0.15218280639E-01 -0.85608331370E-01  0.10066383690E+00  0.51100000000E-03 0. -1.
</event>
<event>
 8    1  0.2025822E+004  0.1043930E+01  0.7957747E-01            NaN
         13   -1    0    0    0    0  0.00000000000E+00  0.00000000000E+00  0.74505805969E-08  0.10566000000E+00  0.10566000000E+00 0. -1.
     999900   -1    0    0    0    0 -0.00000000000E+00 -0.00000000000E+00 -0.74505805969E-08  0.93827000000E+00  0.93827000000E+00 0.  1.
     999902    2    1    2    0    0  0.13818598430E-01  0.21126282158E-01  0.81444276381E-02  0.10174044432E+01  0.10170586001E+01 0.  0.
     999903    2    3    3    0    0  0.94499848283E-01  0.78448170111E-01 -0.14590919482E-01  0.13156463891E+00  0.44855574459E-01 0.  0.
         14    1    1    2    0    0 -0.13818598430E-01 -0.21126282158E-01 -0.81444276381E-02  0.26525556770E-01  0.00000000000E+00 0.  1.
     999901    1    3    3    0    0 -0.80681249853E-01 -0.57321887953E-01  0.22735347120E-01  0.88583980432E+00  0.88000000000E+00 0. -1.
        -11    1    4    4    0    0  0.54228298987E-01  0.65632191455E-01  0.43506080520E-02  0.85249527140E-01  0.51100000000E-03 0.  1.
         11    1    4    4    0    0  0.40271549295E-01  0.12815978656E-01 -0.18941527534E-01  0.46315111766E-01  0.51100000000E-03 0. -1.
</event>
<event>
 8    1  0.2025822E+004  0.1043930E+01  0.7957747E-01            NaN
         13   -1    0    0    0    0  0.00000000000E+00  0.00000000000E+00  0.74505805969E-08  0.10566000000E+00  0.10566000000E+00 0. -1.
     999900   -1    0    0    0    0 -0.00000000000E+00 -0.00000000000E+00 -0.74505805969E-08  0.93827000000E+00  0.93827000000E+00 0. -1.
     999902    2    1    2    0    0  0.11418982222E-02 -0.12911632880E-01 -0.67048599601E-02  0.10293365308E+01  0.10292330758E+01 0.  0.
     999903    2    3    3    0    0  0.19556659977E-02 -0.63702883892E-01 -0.11699080292E+00  0.14099909348E+00  0.46173740889E-01 0.  0.
         14    1    1    2    0    0 -0.11418982222E-02  0.12911632880E-01  0.67048599601E-02  0.14593469165E-01  0.00000000000E+00 0. -1.
     999901    1    3    3    0    0 -0.81376777550E-03  0.50791251012E-01  0.11028594296E+00  0.88833743736E+00  0.88000000000E+00 0.  1.
        -11    1    4    4    0    0 -0.21178071886E-02 -0.25617869188E-01 -0.10399749329E-01  0.27734026684E-01  0.51100000000E-03 0. -1.
         11    1    4    4    0    0  0.40734731863E-02 -0.38085014705E-01 -0.10659105359E+00  0.11326506679E+00  0.51100000000E-03 0.  1.
</event>
<event>
 8    1  0.2025822E+004  0.1043930E+01  0.7957747E-01            NaN
         13   -1    0    0    0    0  0.00000000000E+00  0.00000000000E+00  0.74505805969E-08  0.10566000000E+00  0.10566000000E+00 0.  1.
     999900   -1    0    0    0    0 -0.00000000000E+00 -0.00000000000E+00 -0.74505805969E-08  0.93827000000E+00  0.93827000000E+00 0. -1.
     999902    2    1    2    0    0  0.12154997386E-01  0.79841804025E-02 -0.99569320001E-03  0.10293532204E+01  0.10292500036E+01 0.  0.
     999903    2    3    3    0    0 -0.14797968343E-01  0.59978817399E-01 -0.11761910261E+00  0.13972918507E+00  0.43284563738E-01 0.  0.
         14    1    1    2    0    0 -0.12154997386E-01 -0.79841804025E-02  0.99569320001E-03  0.14576779586E-01  0.00000000000E+00 0. -1.
     999901    1    3    3    0    0  0.26952965729E-01 -0.51994636997E-01  0.11662340941E+00  0.88962403534E+00  0.88000000000E+00 0.  1.
        -11    1    4    4    0    0 -0.24828667469E-01  0.18916024832E-01 -0.65989417558E-01  0.73000979954E-01  0.51100000000E-03 0. -1.
         11    1    4    4    0    0  0.10030699126E-01  0.41062792568E-01 -0.51629685052E-01  0.66728205116E-01  0.51100000000E-03 0.  1.
</event>
<event>
 8    1  0.2025822E+004  0.1043930E+01  0.7957747E-01            NaN
         13   -1    0    0    0    0  0.00000000000E+00  0.00000000000E+00  0.74505805969E-08  0.10566000000E+00  0.10566000000E+00 0. -1.
     999900   -1    0    0    0    0 -0.00000000000E+00 -0.00000000000E+00 -0.74505805969E-08  0.93827000000E+00  0.93827000000E+00 0.  1.
     999902    2    1    2    0    0  0.12264004612E-01  0.62763600926E-03  0.65225016841E-02  0.10300252251E+01  0.10299313674E+01 0.  0.
     999903    2    3    3    0    0  0.81164254306E-01 -0.31906217957E-01 -0.10015573944E+00  0.14031406796E+00  0.45290425055E-01 0.  0.
         14    1    1    2    0    0 -0.12264004612E-01 -0.62763600926E-03 -0.65225016841E-02  0.13904774874E-01  0.00000000000E+00 0.  1.
     999901    1    3    3    0    0 -0.68900249695E-01  0.32533853966E-01  0.10667824113E+00  0.88971115717E+00  0.88000000000E+00 0. -1.
        -11    1    4    4    0    0  0.45403155941E-01 -0.60148900298E-02 -0.22609772361E-01  0.51079236474E-01  0.51100000000E-03 0.  1.
         11    1    4    4    0    0  0.35761098365E-01 -0.25891327927E-01 -0.77545967082E-01  0.89234831483E-01  0.51100000000E-03 0. -1.
</event>
<event>
 8    1  0.2025822E+004  0.1043930E+01  0.7957747E-01            NaN
         13   -1    0    0    0    0  0.00000000000E+00  0.00000000000E+00  0.74505805969E-08  0.10566000000E+00  0.10566000000E+00 0.  1.
     999900   -1    0    0    0    0 -0.00000000000E+00 -0.00000000000E+00 -0.74505805969E-08  0.93827000000E+00  0.93827000000E+00 0. -1.
     999902    2    1    2    0    0 -0.89440516781E-02  0.40162211173E-02  0.99499312807E-02  0.10299612053E+01  0.10298664754E+01 0.  0.
     999903    2    3    3    0    0  0.83302241780E-01  0.27482236718E-03  0.10345811008E+00  0.14020440920E+00  0.44881586500E-01 0.  0.
         14    1    1    2    0    0  0.89440516781E-02 -0.40162211173E-02 -0.99499312807E-02  0.13968794686E-01  0.00000000000E+00 0. -1.
     999901    1    3    3    0    0 -0.92246293458E-01  0.37413987501E-02 -0.93508178797E-01  0.88975679611E+00  0.88000000000E+00 0. -1.
        -11    1    4    4    0    0  0.77737314514E-01 -0.55578967901E-02  0.66740181266E-01  0.10260844605E+00  0.51100000000E-03 0.  1.
         11    1    4    4    0    0  0.55649272653E-02  0.58327191572E-02  0.36717928811E-01  0.37595963153E-01  0.51100000000E-03 0. -1.
</event>
<event>
 8    1  0.2025822E+004  0.1043930E+01  0.7957747E-01            NaN
         13   -1    0    0    0    0  0.00000000000E+00  0.00000000000E+00  0.74505805969E-08  0.10566000000E+00  0.10566000000E+00 0.  1.
     999900   -1    0    0    0    0 -0.00000000000E+00 -0.00000000000E+00 -0.74505805969E-08  0.93827000000E+00  0.93827000000E+00 0. -1.
     999902    2    1    2    0    0 -0.52404557103E-02  0.10200494095E-01  0.62995976315E-02  0.10308457581E+01  0.10307627174E+01 0.  0.
     999903    2    3    3    0    0 -0.39829907775E-01 -0.71235126276E-01  0.10544860972E+00  0.14086895107E+00  0.45428925966E-01 0.  0.
         14    1    1    2    0    0  0.52404557103E-02 -0.10200494095E-01 -0.62995976315E-02  0.13084241902E-01  0.00000000000E+00 0.  1.
     999901    1    3    3    0    0  0.34589452064E-01  0.81435620371E-01 -0.99149012084E-01  0.88997680703E+00  0.88000000000E+00 0. -1.
        -11    1    4    4    0    0 -0.11778093534E-01 -0.63090248522E-01  0.73355626541E-01  0.97470057003E-01  0.51100000000E-03 0.  1.
         11    1    4    4    0    0 -0.28051814241E-01 -0.81448777542E-02  0.32092983174E-01  0.43398894063E-01  0.51100000000E-03 0. -1.
</event>
<event>
 8    1  0.2025822E+004  0.1043930E+01  0.7957747E-01            NaN
         13   -1    0    0    0    0  0.00000000000E+00  0.00000000000E+00  0.74505805969E-08  0.10566000000E+00  0.10566000000E+00 0. -1.
     999900   -1    0    0    0    0 -0.00000000000E+00 -0.00000000000E+00 -0.74505805969E-08  0.93827000000E+00  0.93827000000E+00 0. -1.
     999902    2    1    2    0    0  0.19193862285E-01 -0.44876947547E-02  0.37441356674E-02  0.10238660446E+01  0.10236694364E+01 0.  0.
     999903    2    3    3    0    0  0.86261644104E-01  0.43833533433E-01  0.84695343419E-01  0.13629287778E+00  0.45166330833E-01 0.  0.
         14    1    1    2    0    0 -0.19193862285E-01  0.44876947547E-02 -0.37441356674E-02  0.20063955380E-01  0.00000000000E+00 0. -1.
     999901    1    3    3    0    0 -0.67067781819E-01 -0.48321228187E-01 -0.80951207751E-01  0.88757316684E+00  0.88000000000E+00 0. -1.
        -11    1    4    4    0    0  0.82791892755E-02  0.13179029894E-01  0.36370153582E-01  0.39563632247E-01  0.51100000000E-03 0. -1.
         11    1    4    4    0    0  0.77982454828E-01  0.30654503539E-01  0.48325189837E-01  0.96729245536E-01  0.51100000000E-03 0.  1.
</event>
<event>
 8    1  0.2025822E+004  0.1043930E+01  0.7957747E-01            NaN
         13   -1    0    0    0    0  0.00000000000E+00  0.00000000000E+00  0.74505805969E-08  0.10566000000E+00  0.10566000000E+00 0. -1.
     999900   -1    0    0    0    0 -0.00000000000E+00 -0.00000000000E+00 -0.74505805969E-08  0.93827000000E+00  0.93827000000E+00 0. -1.
     999902    2    1    2    0    0 -0.11139871633E-01 -0.50917472943E-02  0.32674431402E-02  0.10312532964E+01  0.10311753791E+01 0.  0.
     999903    2    3    3    0    0  0.10058845500E+00 -0.80129449392E-01 -0.32503194497E-01  0.14030244798E+00  0.45711632184E-01 0.  0.
         14    1    1    2    0    0  0.11139871633E-01  0.50917472943E-02 -0.32674431402E-02  0.12676703640E-01  0.00000000000E+00 0.  1.
     999901    1    3    3    0    0 -0.11172832664E+00  0.75037702097E-01  0.35770637638E-01  0.89095084838E+00  0.88000000000E+00 0. -1.
        -11    1    4    4    0    0  0.48596910028E-02 -0.23543588847E-01 -0.13218603404E-01  0.27439201326E-01  0.51100000000E-03 0.  1.
         11    1    4    4    0    0  0.95728764002E-01 -0.56585860544E-01 -0.19284591093E-01  0.11286324665E+00  0.51100000000E-03 0. -1.
</event>
<event>
 8    1  0.2025822E+004  0.1043930E+01  0.7957747E-01            NaN
         13   -1    0    0    0    0  0.00000000000E+00  0.00000000000E+00  0.74505805969E-08  0.10566000000E+00  0.10566000000E+00 0. -1.
     999900   -1    0    0    0    0 -0.00000000000E+00 -0.00000000000E+00 -0.74505805969E-08  0.93827000000E+00  0.93827000000E+00 0.  1.
     999902    2    1    2    0    0  0.92247457627E-02 -0.73752393012E-02 -0.12223765723E-01  0.10269326315E+01  0.10267919551E+01 0.  0.
     999903    2    3    3    0    0  0.55419258416E-01 -0.54749354771E-02 -0.11946917040E+00  0.13921695570E+00  0.44801885634E-01 0.  0.
         14    1    1    2    0    0 -0.92247457627E-02  0.73752393012E-02  0.12223765723E-01  0.16997368549E-01  0.00000000000E+00 0. -1.
     999901    1    3    3    0    0 -0.46194512654E-01 -0.19003038242E-02  0.10724540468E+00  0.88771567575E+00  0.88000000000E+00 0. -1.
        -11    1    4    4    0    0  0.35952421490E-01 -0.22383190114E-01 -0.52505043090E-01  0.67458316623E-01  0.51100000000E-03 0. -1.
         11    1    4    4    0    0  0.19466836926E-01  0.16908254637E-01 -0.66964127308E-01  0.71758639075E-01  0.51100000000E-03 0.  1.
</event>
<event>
 8    1  0.2025822E+004  0.1043930E+01  0.7957747E-01            NaN
         13   -1    0    0    0    0  0.00000000000E+00  0.00000000000E+00  0.74505805969E-08  0.10566000000E+00  0.10566000000E+00 0. -1.
     999900   -1    0    0    0    0 -0.00000000000E+00 -0.00000000000E+00 -0.74505805969E-08  0.93827000000E+00  0.93827000000E+00 0.  1.
     999902    2    1    2    0    0  0.17486515698E-02 -0.87686429173E-02 -0.21858912285E-01  0.10203130796E+01  0.10200397157E+01 0.  0.
     999903    2    3    3    0    0  0.77301086175E-01 -0.55897476987E-01 -0.81970436925E-01  0.13377898962E+00  0.45581571679E-01 0.  0.
         14    1    1    2    0    0 -0.17486515698E-02  0.87686429173E-02  0.21858912285E-01  0.23616920358E-01  0.00000000000E+00 0. -1.
     999901    1    3    3    0    0 -0.75552434606E-01  0.47128834069E-01  0.60111524639E-01  0.88653409002E+00  0.88000000000E+00 0. -1.
        -11    1    4    4    0    0  0.37093460184E-01 -0.14294222943E-01 -0.59816822782E-01  0.71823136987E-01  0.51100000000E-03 0. -1.
         11    1    4    4    0    0  0.40207625991E-01 -0.41603254044E-01 -0.22153614143E-01  0.61955852633E-01  0.51100000000E-03 0.  1.
</event>
<event>
 8    1  0.2025822E+004  0.1043930E+01  0.7957747E-01            NaN
         13   -1    0    0    0    0  0.00000000000E+00  0.00000000000E+00  0.74505805969E-08  0.10566000000E+00  0.10566000000E+00 0. -1.
     999900   -1    0    0    0    0 -0.00000000000E+00 -0.00000000000E+00 -0.74505805969E-08  0.93827000000E+00  0.93827000000E+00 0.  1.
     999902    2    1    2    0    0  0.11957219472E-01  0.43943148817E-02 -0.74791516059E-02  0.10291576336E+01  0.10290516080E+01 0.  0.
     999903    2    3    3    0    0  0.90439445837E-01 -0.60875039316E-01  0.74282092088E-01  0.13949227547E+00  0.45334335073E-01 0.  0.
         14    1    1    2    0    0 -0.11957219472E-01 -0.43943148817E-02  0.74791516059E-02  0.14772366416E-01  0.00000000000E+00 0.  1.
     999901    1    3    3    0    0 -0.78482226365E-01  0.65269354198E-01 -0.81761243694E-01  0.88966535811E+00  0.88000000000E+00 0.  1.
        -11    1    4    4    0    0  0.54478055486E-01 -0.57896385215E-01  0.37281599481E-01  0.87806769280E-01  0.51100000000E-03 0.  1.
         11    1    4    4    0    0  0.35961390351E-01 -0.29786541011E-02  0.37000492607E-01  0.51685506193E-01  0.51100000000E-03 0. -1.
</event>
<event>
 8    1  0.2025822E+004  0.1043930E+01  0.7957747E-01            NaN
         13   -1    0    0    0    0  0.00000000000E+00  0.00000000000E+00  0.74505805969E-08  0.10566000000E+00  0.10566000000E+00 0. -1.
     999900   -1    0    0    0    0 -0.00000000000E+00 -0.00000000000E+00 -0.74505805969E-08  0.93827000000E+00  0.93827000000E+00 0.  1.
     999902    2    1    2    0    0  0.32336220435E-02  0.12721927974E-01  0.37271921760E-02  0.10302846446E+01  0.10301942793E+01 0.  0.
     999903    2    3    3    0    0 -0.86146142834E-01  0.57449449619E-01  0.84463544173E-01  0.14095475523E+00  0.44861515151E-01 0.  0.
         14    1    1    2    0    0 -0.32336220435E-02 -0.12721927974E-01 -0.37271921760E-02  0.13645355415E-01  0.00000000000E+00 0. -1.
     999901    1    3    3    0    0  0.89379764877E-01 -0.44727521645E-01 -0.80736351997E-01  0.88932988935E+00  0.88000000000E+00 0.  1.
        -11    1    4    4    0    0 -0.66435730306E-01  0.42180139716E-01  0.85229024936E-01  0.11600481999E+00  0.51100000000E-03 0.  1.
         11    1    4    4    0    0 -0.19710412528E-01  0.15269309903E-01 -0.76548076261E-03  0.24949935245E-01  0.51100000000E-03 0. -1.
</event>
<event>
 8    1  0.2025822E+004  0.1043930E+01  0.7957747E-01            NaN
         13   -1    0    0    0    0  0.00000000000E+00  0.00000000000E+00  0.74505805969E-08  0.10566000000E+00  0.10566000000E+00 0. -1.
     999900   -1    0    0    0    0 -0.00000000000E+00 -0.00000000000E+00 -0.74505805969E-08  0.93827000000E+00  0.93827000000E+00 0.  1.
     999902    2    1    2    0    0  0.56977018502E-02  0.53470276331E-02  0.11982615762E-01  0.10296248404E+01  0.10295254608E+01 0.  0.
     999903    2    3    3    0    0  0.11759909229E+00 -0.52922443008E-01  0.34427313838E-01  0.14034366053E+00  0.43367864019E-01 0.  0.
         14    1    1    2    0    0 -0.56977018502E-02 -0.53470276331E-02 -0.11982615762E-01  0.14305159607E-01  0.00000000000E+00 0.  1.
     999901    1    3    3    0    0 -0.11190139044E+00  0.58269470641E-01 -0.22444698076E-01  0.88928117987E+00  0.88000000000E+00 0. -1.
        -11    1    4    4    0    0  0.49883215503E-01 -0.40506233026E-01  0.21237834933E-02  0.64295113968E-01  0.51100000000E-03 0. -1.
         11    1    4    4    0    0  0.67715876791E-01 -0.12416209982E-01  0.32303530345E-01  0.76048546559E-01  0.51100000000E-03 0.  1.
</event>
<event>
 8    1  0.2025822E+004  0.1043930E+01  0.7957747E-01            NaN
         13   -1    0    0    0    0  0.00000000000E+00  0.00000000000E+00  0.74505805969E-08  0.10566000000E+00  0.10566000000E+00 0. -1.
     999900   -1    0    0    0    0 -0.00000000000E+00 -0.00000000000E+00 -0.74505805969E-08  0.93827000000E+00  0.93827000000E+00 0.  1.
     999902    2    1    2    0    0  0.72248253171E-03  0.39389341752E-02 -0.13229794248E-01  0.10301073867E+01  0.10300146423E+01 0.  0.
     999903    2    3    3    0    0  0.91630174121E-01  0.68634102372E-01 -0.65914407006E-01  0.14149873175E+00  0.50699637255E-01 0.  0.
         14    1    1    2    0    0 -0.72248253171E-03 -0.39389341752E-02  0.13229794248E-01  0.13822613331E-01  0.00000000000E+00 0. -1.
     999901    1    3    3    0    0 -0.90907691589E-01 -0.64695168197E-01  0.52684612758E-01  0.88860865492E+00  0.88000000000E+00 0.  1.
        -11    1    4    4    0    0  0.11494115358E-01  0.30710411770E-01 -0.33026445058E-02  0.32960774576E-01  0.51100000000E-03 0. -1.
         11    1    4    4    0    0  0.80136058763E-01  0.37923690602E-01 -0.62611762500E-01  0.10853795717E+00  0.51100000000E-03 0.  1.
</event>
<event>
 8    1  0.2025822E+004  0.1043930E+01  0.7957747E-01            NaN
         13   -1    0    0    0    0  0.00000000000E+00  0.00000000000E+00  0.74505805969E-08  0.10566000000E+00  0.10566000000E+00 0.  1.
     999900   -1    0    0    0    0 -0.00000000000E+00 -0.00000000000E+00 -0.74505805969E-08  0.93827000000E+00  0.93827000000E+00 0. -1.
     999902    2    1    2    0    0  0.49376541655E-02 -0.89451151715E-02 -0.85100935913E-02  0.10306327369E+01  0.10305469524E+01 0.  0.
     999903    2    3    3    0    0 -0.10903509948E+00 -0.68382353765E-01 -0.35480420746E-01  0.14088559724E+00  0.45001022528E-01 0.  0.
         14    1    1    2    0    0 -0.49376541655E-02  0.89451151715E-02  0.85100935913E-02  0.13297263140E-01  0.00000000000E+00 0. -1.
     999901    1    3    3    0    0  0.11397275365E+00  0.59437238593E-01  0.26970327154E-01  0.88974713962E+00  0.88000000000E+00 0.  1.
        -11    1    4    4    0    0 -0.52335229215E-01 -0.49779367693E-01 -0.15688101458E-02  0.72247380238E-01  0.51100000000E-03 0.  1.
         11    1    4    4    0    0 -0.56699870270E-01 -0.18602986071E-01 -0.33911610600E-01  0.68638217007E-01  0.51100000000E-03 0. -1.
</event>
<event>
 8    1  0.2025822E+004  0.1043930E+01  0.7957747E-01            NaN
         13   -1    0    0    0    0  0.00000000000E+00  0.00000000000E+00  0.74505805969E-08  0.10566000000E+00  0.10566000000E+00 0. -1.
     999900   -1    0    0    0    0 -0.00000000000E+00 -0.00000000000E+00 -0.74505805969E-08  0.93827000000E+00  0.93827000000E+00 0. -1.
     999902    2    1    2    0    0 -0.11636470684E-02  0.70761789566E-02 -0.12296981857E-01  0.10296947569E+01  0.10295963531E+01 0.  0.
     999903    2    3    3    0    0 -0.10639223969E+00  0.71643745008E-01  0.33128453505E-01  0.13991641515E+00  0.45021927212E-01 0.  0.
         14    1    1    2    0    0  0.11636470684E-02 -0.70761789566E-02  0.12296981857E-01  0.14235243093E-01  0.00000000000E+00 0.  1.
     999901    1    3    3    0    0  0.10522859262E+00 -0.64567566051E-01 -0.45425435361E-01  0.88977834176E+00  0.88000000000E+00 0. -1.
        -11    1    4    4    0    0 -0.14899868660E-02  0.13690031752E-01  0.11892014911E-01  0.18202147397E-01  0.51100000000E-03 0.  1.
         11    1    4    4    0    0 -0.10490225283E+00  0.57953713256E-01  0.21236438594E-01  0.12171426775E+00  0.51100000000E-03 0. -1.
</event>
<event>
 6    1  0.2025822E+004  0.1043930E+01  0.7957747E-01            NaN
         13   -1    0    0    0    0  0.00000000000E+00  0.00000000000E+00  0.74505805969E-08  0.10566000000E+00  0.10566000000E+00 0. -1.
     999900   -1    0    0    0    0 -0.00000000000E+00 -0.00000000000E+00 -0.74505805969E-08  0.93827000000E+00  0.93827000000E+00 0. -1.
         14    1    1    2    0    0 -0.18421104639E-01  0.15749689307E-01  0.16109952505E-01  0.29101896487E-01  0.00000000000E+00 0.  1.
     999901    1    1    2    0    0  0.52089979324E-01  0.16817342045E-01 -0.11551259422E+00  0.88923526041E+00  0.88000000000E+00 0. -1.
        -11    1    1    2    0    0 -0.15125864478E-01  0.17154074626E-03  0.83299309408E-01  0.84663199037E-01  0.51100000000E-03 0.  1.
         11    1    1    2    0    0 -0.18543010206E-01 -0.32738572098E-01  0.16103332310E-01  0.40929644062E-01  0.51100000000E-03 0. -1.
</event>
<event>
 8    1  0.2025822E+004  0.1043930E+01  0.7957747E-01            NaN
         13   -1    0    0    0    0  0.00000000000E+00  0.00000000000E+00  0.74505805969E-08  0.10566000000E+00  0.10566000000E+00 0.  1.
     999900   -1    0    0    0    0 -0.00000000000E+00 -0.00000000000E+00 -0.74505805969E-08  0.93827000000E+00  0.93827000000E+00 0. -1.
     999902    2    1    2    0    0 -0.10925120416E-01 -0.12915822419E-02 -0.58744046935E-02  0.10314586299E+01  0.10313832315E+01 0.  0.
     999903    2    3    3    0    0 -0.11071817796E+00  0.58797603224E-01 -0.47972517026E-01  0.14278455267E+00  0.48686682121E-01 0.  0.
         14    1    1    2    0    0  0.10925120416E-01  0.12915822419E-02  0.58744046935E-02  0.12471370065E-01  0.00000000000E+00 0.  1.
     999901    1    3    3    0    0  0.99793057541E-01 -0.60089185466E-01  0.42098112333E-01  0.88867407727E+00  0.88000000000E+00 0.  1.
        -11    1    4    4    0    0 -0.10742825790E+00  0.39823564612E-01 -0.45839609694E-01  0.12340290852E+00  0.51100000000E-03 0. -1.
         11    1    4    4    0    0 -0.32899200605E-02  0.18974038612E-01 -0.21329073321E-02  0.19381644149E-01  0.51100000000E-03 0.  1.
</event>
<event>
 8    1  0.3050553E+004  0.1043930E+01  0.7957747E-01            NaN
         13   -1    0    0    0    0  0.00000000000E+00  0.00000000000E+00  0.74505805969E-08  0.10566000000E+00  0.10566000000E+00 0. -1.
     999900   -1    0    0    0    0 -0.00000000000E+00 -0.00000000000E+00 -0.74505805969E-08  0.93827000000E+00  0.93827000000E+00 0. -1.
     999902    2    1    2    0    0  0.20354876608E-01  0.83291199502E-02 -0.14460387960E-01  0.10176089426E+01  0.10172684808E+01 0.  0.
     999903    2    3    3    0    0  0.35773455074E-01 -0.62287084721E-01 -0.99264362816E-01  0.13058239564E+00  0.45154482775E-01 0.  0.
         14    1    1    2    0    0 -0.20354876608E-01 -0.83291199502E-02  0.14460387960E-01  0.26321057365E-01  0.00000000000E+00 0. -1.
     999901    1    3    3    0    0 -0.15418578466E-01  0.70616204671E-01  0.84803974857E-01  0.88702654700E+00  0.88000000000E+00 0.  1.
        -11    1    4    4    0    0  0.23179387098E-01 -0.21375079041E-01 -0.12671542038E-01  0.33985395229E-01  0.51100000000E-03 0.  1.
         11    1    4    4    0    0  0.12594067975E-01 -0.40912005680E-01 -0.86592820778E-01  0.96597000410E-01  0.51100000000E-03 0. -1.
</event>
<event>
 8    1  0.2025822E+004  0.1043930E+01  0.7957747E-01            NaN
         13   -1    0    0    0    0  0.00000000000E+00  0.00000000000E+00  0.74505805969E-08  0.10566000000E+00  0.10566000000E+00 0. -1.
     999900   -1    0    0    0    0 -0.00000000000E+00 -0.00000000000E+00 -0.74505805969E-08  0.93827000000E+00  0.93827000000E+00 0.  1.
     999902    2    1    2    0    0 -0.10927504889E-01  0.27410119795E-02 -0.55049475978E-02  0.10313909427E+01  0.10313147186E+01 0.  0.
     999903    2    3    3    0    0  0.74282731380E-02 -0.13338238083E+00 -0.48326787285E-02  0.14073558590E+00  0.44012629982E-01 0.  0.
         14    1    1    2    0    0  0.10927504889E-01 -0.27410119795E-02  0.55049475978E-02  0.12539057294E-01  0.00000000000E+00 0.  1.
     999901    1    3    3    0    0 -0.18355778027E-01  0.13612339281E+00 -0.67226886937E-03  0.89065535680E+00  0.88000000000E+00 0. -1.
        -11    1    4    4    0    0  0.20923884231E-01 -0.11850177652E+00 -0.13681692602E-02  0.12034372845E+00  0.51100000000E-03 0.  1.
         11    1    4    4    0    0 -0.13495611093E-01 -0.14880604310E-01 -0.34645094682E-02  0.20391857450E-01  0.51100000000E-03 0. -1.
</event>
<event>
 8    1  0.2025822E+004  0.1043930E+01  0.7957747E-01            NaN
         13   -1    0    0    0    0  0.00000000000E+00  0.00000000000E+00  0.74505805969E-08  0.10566000000E+00  0.10566000000E+00 0. -1.
     999900   -1    0    0    0    0 -0.00000000000E+00 -0.00000000000E+00 -0.74505805969E-08  0.93827000000E+00  0.93827000000E+00 0.  1.
     999902    2    1    2    0    0  0.42829771793E-02  0.45824982655E-02 -0.12841732571E-01  0.10296382793E+01  0.10295390877E+01 0.  0.
     999903    2    3    3    0    0 -0.72163071564E-01 -0.48198437653E-01 -0.10123821610E+00  0.14034431003E+00  0.43780711138E-01 0.  0.
         14    1    1    2    0    0 -0.42829771793E-02 -0.45824982655E-02  0.12841732571E-01  0.14291720656E-01  0.00000000000E+00 0. -1.
     999901    1    3    3    0    0  0.76446048743E-01  0.52780935919E-01  0.88396483529E-01  0.88929396932E+00  0.88000000000E+00 0. -1.
        -11    1    4    4    0    0 -0.29555990491E-01 -0.38480406718E-01 -0.75123818872E-01  0.89432363035E-01  0.51100000000E-03 0.  1.
         11    1    4    4    0    0 -0.42607081073E-01 -0.97180309349E-02 -0.26114397229E-01  0.50911946991E-01  0.51100000000E-03 0. -1.
</event>
<event>
 8    1  0.2025822E+004  0.1043930E+01  0.7957747E-01            NaN
         13   -1    0    0    0    0  0.00000000000E+00  0.00000000000E+00  0.74505805969E-08  0.10566000000E+00  0.10566000000E+00 0. -1.
     999900   -1    0    0    0    0 -0.00000000000E+00 -0.00000000000E+00 -0.74505805969E-08  0.93827000000E+00  0.93827000000E+00 0. -1.
     999902    2    1    2    0    0  0.54597034875E-02 -0.71165599013E-02 -0.12936760774E-01  0.10281879046E+01  0.10280673877E+01 0.  0.
     999903    2    3    3    0    0 -0.88530352280E-01 -0.45956625639E-01 -0.85824331078E-01  0.13933736648E+00  0.45819768401E-01 0.  0.
         14    1    1    2    0    0 -0.54597034875E-02  0.71165599013E-02  0.12936760774E-01  0.15742095360E-01  0.00000000000E+00 0. -1.
     999901    1    3    3    0    0  0.93990055767E-01  0.38840065738E-01  0.72887570304E-01  0.88885053816E+00  0.88000000000E+00 0.  1.
        -11    1    4    4    0    0 -0.39197477800E-01 -0.45992975686E-01 -0.47467834856E-01  0.76845641029E-01  0.51100000000E-03 0.  1.
         11    1    4    4    0    0 -0.49332874480E-01  0.36350046221E-04 -0.38356496223E-01  0.62491725447E-01  0.51100000000E-03 0. -1.
</event>
<event>
 8    1  0.2025822E+004  0.1043930E+01  0.7957747E-01            NaN
         13   -1    0    0    0    0  0.00000000000E+00  0.00000000000E+00  0.74505805969E-08  0.10566000000E+00  0.10566000000E+00 0. -1.
     999900   -1    0    0    0    0 -0.00000000000E+00 -0.00000000000E+00 -0.74505805969E-08  0.93827000000E+00  0.93827000000E+00 0. -1.
     999902    2    1    2    0    0  0.11516658590E-01  0.62499650137E-03  0.88811008092E-02  0.10293732834E+01  0.10292703526E+01 0.  0.
     999903    2    3    3    0    0  0.85348628059E-01  0.10011746021E+00  0.20786826747E-01  0.14061479185E+00  0.45083626396E-01 0.  0.
         14    1    1    2    0    0 -0.11516658590E-01 -0.62499650137E-03 -0.88811008092E-02  0.14556716570E-01  0.00000000000E+00 0.  1.
     999901    1    3    3    0    0 -0.73831969468E-01 -0.99492463712E-01 -0.11905725937E-01  0.88875849158E+00  0.88000000000E+00 0.  1.
        -11    1    4    4    0    0  0.66684087296E-01  0.48201552624E-01  0.19144917900E-02  0.82304821084E-01  0.51100000000E-03 0. -1.
         11    1    4    4    0    0  0.18664540763E-01  0.51915907589E-01  0.18872334957E-01  0.58309970763E-01  0.51100000000E-03 0.  1.
</event>
<event>
 8    1  0.2025822E+004  0.1043930E+01  0.7957747E-01            NaN
         13   -1    0    0    0    0  0.00000000000E+00  0.00000000000E+00  0.74505805969E-08  0.10566000000E+00  0.10566000000E+00 0.  1.
     999900   -1    0    0    0    0 -0.00000000000E+00 -0.00000000000E+00 -0.74505805969E-08  0.93827000000E+00  0.93827000000E+00 0.  1.
     999902    2    1    2    0    0 -0.33585643481E-02  0.10504999864E-01 -0.86273012371E-02  0.10299276679E+01  0.10298324795E+01 0.  0.
     999903    2    3    3    0    0  0.52986814890E-01 -0.11144479005E+00  0.43233700824E-01  0.13822361582E+00  0.44822665059E-01 0.  0.
         14    1    1    2    0    0  0.33585643481E-02 -0.10504999864E-01  0.86273012371E-02  0.14002332065E-01  0.00000000000E+00 0. -1.
     999901    1    3    3    0    0 -0.56345379238E-01  0.12194978991E+00 -0.51861002061E-01  0.89170405211E+00  0.88000000000E+00 0. -1.
        -11    1    4    4    0    0  0.28777170610E-01 -0.41972851233E-01 -0.35840602158E-02  0.51019137562E-01  0.51100000000E-03 0.  1.
         11    1    4    4    0    0  0.24209644280E-01 -0.69471938815E-01  0.46817761039E-01  0.87204478260E-01  0.51100000000E-03 0. -1.
</event>
<event>
 8    1  0.2025822E+004  0.1043930E+01  0.7957747E-01            NaN
         13   -1    0    0    0    0  0.00000000000E+00  0.00000000000E+00  0.74505805969E-08  0.10566000000E+00  0.10566000000E+00 0.  1.
     999900   -1    0    0    0    0 -0.00000000000E+00 -0.00000000000E+00 -0.74505805969E-08  0.93827000000E+00  0.93827000000E+00 0. -1.
     999902    2    1    2    0    0 -0.60991044223E-02 -0.10702376961E-01 -0.70403082212E-02  0.10297417694E+01  0.10296440190E+01 0.  0.
     999903    2    3    3    0    0 -0.26508645059E-01 -0.11884938372E+00 -0.56459947711E-01  0.14151059163E+00  0.44828981392E-01 0.  0.
         14    1    1    2    0    0  0.60991044223E-02  0.10702376961E-01  0.70403082212E-02  0.14188230588E-01  0.00000000000E+00 0.  1.
     999901    1    3    3    0    0  0.20409540637E-01  0.10814700676E+00  0.49419639490E-01  0.88823117778E+00  0.88000000000E+00 0. -1.
        -11    1    4    4    0    0 -0.34158348136E-01 -0.11015632417E+00 -0.59144279739E-01  0.12961294476E+00  0.51100000000E-03 0. -1.
         11    1    4    4    0    0  0.76497030774E-02 -0.86930595579E-02  0.26843320285E-02  0.11897646872E-01  0.51100000000E-03 0.  1.
</event>
<event>
 8    1  0.2025822E+004  0.1043930E+01  0.7957747E-01            NaN
         13   -1    0    0    0    0  0.00000000000E+00  0.00000000000E+00  0.74505805969E-08  0.10566000000E+00  0.10566000000E+00 0.  1.
     999900   -1    0    0    0    0 -0.00000000000E+00 -0.00000000000E+00 -0.74505805969E-08  0.93827000000E+00  0.93827000000E+00 0.  1.
     999902    2    1    2    0    0  0.62321485942E-02  0.66980086382E-02  0.36734222597E-02  0.10340711447E+01  0.10340241464E+01 0.  0.
     999903    2    3    3    0    0  0.51553729595E-01  0.11589625023E+00 -0.53076194352E-01  0.14435275073E+00  0.43942079863E-01 0.  0.
         14    1    1    2    0    0 -0.62321485942E-02 -0.66980086382E-02 -0.36734222597E-02  0.98588552539E-02  0.00000000000E+00 0. -1.
     999901    1    3    3    0    0 -0.45321581001E-01 -0.10919824159E+00  0.56749616612E-01  0.88971839402E+00  0.88000000000E+00 0.  1.
        -11    1    4    4    0    0  0.35115699484E-02  0.61262405195E-01 -0.27350309320E-01  0.67184179348E-01  0.51100000000E-03 0. -1.
         11    1    4    4    0    0  0.48042159647E-01  0.54633845036E-01 -0.25725885032E-01  0.77168571378E-01  0.51100000000E-03 0.  1.
</event>
<event>
 8    1  0.2025822E+004  0.1043930E+01  0.7957747E-01            NaN
         13   -1    0    0    0    0  0.00000000000E+00  0.00000000000E+00  0.74505805969E-08  0.10566000000E+00  0.10566000000E+00 0. -1.
     999900   -1    0    0    0    0 -0.00000000000E+00 -0.00000000000E+00 -0.74505805969E-08  0.93827000000E+00  0.93827000000E+00 0.  1.
     999902    2    1    2    0    0 -0.11103017870E-01 -0.75706885309E-02  0.58994294726E-02  0.10292536381E+01  0.10291489960E+01 0.  0.
     999903    2    3    3    0    0  0.46805776078E-01  0.64946566009E-01  0.10582036950E+00  0.13875019909E+00  0.40556504249E-01 0.  0.
         14    1    1    2    0    0  0.11103017870E-01  0.75706885309E-02 -0.58994294726E-02  0.14676361904E-01  0.00000000000E+00 0.  1.
     999901    1    3    3    0    0 -0.57908793947E-01 -0.72517254540E-01 -0.99920940025E-01  0.89050343900E+00  0.88000000000E+00 0.  1.
        -11    1    4    4    0    0  0.36096625992E-01  0.68109439199E-01  0.82614285663E-01  0.11299222731E+00  0.51100000000E-03 0.  1.
         11    1    4    4    0    0  0.10709150086E-01 -0.31628731896E-02  0.23206083834E-01  0.25757971782E-01  0.51100000000E-03 0. -1.
</event>
<event>
 8    1  0.2025822E+004  0.1043930E+01  0.7957747E-01            NaN
         13   -1    0    0    0    0  0.00000000000E+00  0.00000000000E+00  0.74505805969E-08  0.10566000000E+00  0.10566000000E+00 0.  1.
     999900   -1    0    0    0    0 -0.00000000000E+00 -0.00000000000E+00 -0.74505805969E-08  0.93827000000E+00  0.93827000000E+00 0. -1.
     999902    2    1    2    0    0  0.67397032233E-03 -0.13757826249E-01 -0.61871094273E-03  0.10301417868E+01  0.10300495067E+01 0.  0.
     999903    2    3    3    0    0  0.34380915981E-01  0.38434277129E-01 -0.12159510658E+00  0.13969501013E+00  0.45498185326E-01 0.  0.
         14    1    1    2    0    0 -0.67397032233E-03  0.13757826249E-01  0.61871094273E-03  0.13788213167E-01  0.00000000000E+00 0.  1.
     999901    1    3    3    0    0 -0.33706945659E-01 -0.52192103378E-01  0.12097639564E+00  0.89044677670E+00  0.88000000000E+00 0.  1.
        -11    1    4    4    0    0  0.22919586793E-01  0.19912458573E-01 -0.21375925589E-01  0.37134953628E-01  0.51100000000E-03 0. -1.
         11    1    4    4    0    0  0.11461329188E-01  0.18521818556E-01 -0.10021918099E+00  0.10256005650E+00  0.51100000000E-03 0.  1.
</event>
<event>
 8    1  0.2025822E+004  0.1043930E+01  0.7957747E-01            NaN
         13   -1    0    0    0    0  0.00000000000E+00  0.00000000000E+00  0.74505805969E-08  0.10566000000E+00  0.10566000000E+00 0.  1.
     999900   -1    0    0    0    0 -0.00000000000E+00 -0.00000000000E+00 -0.74505805969E-08  0.93827000000E+00  0.93827000000E+00 0.  1.
     999902    2    1    2    0    0 -0.29645917301E-02  0.28341458243E-03 -0.14287068321E-01  0.10293358420E+01  0.10292323771E+01 0.  0.
     999903    2    3    3    0    0 -0.40605347576E-01 -0.51901778493E-01 -0.11650320829E+00  0.14108573069E+00  0.44604898834E-01 0.  0.
         14    1    1    2    0    0  0.29645917301E-02 -0.28341458243E-03  0.14287068321E-01  0.14594158049E-01  0.00000000000E+00 0.  1.
     999901    1    3    3    0    0  0.37640755846E-01  0.52185193075E-01  0.10221613997E+00  0.88825011126E+00  0.88000000000E+00 0. -1.
        -11    1    4    4    0    0 -0.95614075976E-02 -0.24258121151E-01 -0.85043733251E-01  0.88952653942E-01  0.51100000000E-03 0. -1.
         11    1    4    4    0    0 -0.31043939978E-01 -0.27643657342E-01 -0.31459475043E-01  0.52133076752E-01  0.51100000000E-03 0.  1.
</event>
<event>
 8    1  0.2025822E+004  0.1043930E+01  0.7957747E-01            NaN
         13   -1    0    0    0    0  0.00000000000E+00  0.00000000000E+00  0.74505805969E-08  0.10566000000E+00  0.10566000000E+00 0. -1.
     999900   -1    0    0    0    0 -0.00000000000E+00 -0.00000000000E+00 -0.74505805969E-08  0.93827000000E+00  0.93827000000E+00 0.  1.
     999902    2    1    2    0    0  0.12637285150E-01  0.36292074736E-02 -0.47865186809E-02  0.10299377563E+01  0.10298427059E+01 0.  0.
     999903    2    3    3    0    0 -0.71627369261E-01 -0.69813270097E-01  0.85559608771E-01  0.13827820678E+00  0.42379748798E-01 0.  0.
         14    1    1    2    0    0 -0.12637285150E-01 -0.36292074736E-02  0.47865186809E-02  0.13992243706E-01  0.00000000000E+00 0.  1.
     999901    1    3    3    0    0  0.84264654411E-01  0.73442477571E-01 -0.90346127452E-01  0.89165954951E+00  0.88000000000E+00 0. -1.
        -11    1    4    4    0    0 -0.16880080676E-01 -0.43024031162E-01  0.25871902021E-01  0.52968111315E-01  0.51100000000E-03 0. -1.
         11    1    4    4    0    0 -0.54747288585E-01 -0.26789238935E-01  0.59687706750E-01  0.85310095465E-01  0.51100000000E-03 0.  1.
</event>
<event>
 8    1  0.2025822E+004  0.1043930E+01  0.7957747E-01            NaN
         13   -1    0    0    0    0  0.00000000000E+00  0.00000000000E+00  0.74505805969E-08  0.10566000000E+00  0.10566000000E+00 0. -1.
     999900   -1    0    0    0    0 -0.00000000000E+00 -0.00000000000E+00 -0.74505805969E-08  0.93827000000E+00  0.93827000000E+00 0.  1.
     999902    2    1    2    0    0  0.11382529848E-01 -0.68793336902E-02 -0.57048013943E-02  0.10294582352E+01  0.10293565107E+01 0.  0.
     999903    2    3    3    0    0 -0.35875117842E-01 -0.10435013987E+00 -0.73180705772E-01  0.14025249916E+00  0.46253346387E-01 0.  0.
         14    1    1    2    0    0 -0.11382529848E-01  0.68793336902E-02  0.57048013943E-02  0.14471764810E-01  0.00000000000E+00 0.  1.
     999901    1    3    3    0    0  0.47257647689E-01  0.97470806178E-01  0.67475904378E-01  0.88920573603E+00  0.88000000000E+00 0. -1.
        -11    1    4    4    0    0 -0.29717528867E-01 -0.10371371390E+00 -0.55119722705E-01  0.12115325388E+00  0.51100000000E-03 0.  1.
         11    1    4    4    0    0 -0.61575889741E-02 -0.63642596983E-03 -0.18060983067E-01  0.19099245282E-01  0.51100000000E-03 0. -1.
</event>
<event>
 8    1  0.2025822E+004  0.1043930E+01  0.7957747E-01            NaN
         13   -1    0    0    0    0  0.00000000000E+00  0.00000000000E+00  0.74505805969E-08  0.10566000000E+00  0.10566000000E+00 0. -1.
     999900   -1    0    0    0    0 -0.00000000000E+00 -0.00000000000E+00 -0.74505805969E-08  0.93827000000E+00  0.93827000000E+00 0.  1.
     999902    2    1    2    0    0  0.39770582035E-02  0.75981706662E-03 -0.13647495084E-01  0.10296945360E+01  0.10295961291E+01 0.  0.
     999903    2    3    3    0    0 -0.13119651481E-01 -0.59030520647E-01  0.11536076886E+00  0.13811710573E+00  0.45951063966E-01 0.  0.
         14    1    1    2    0    0 -0.39770582035E-02 -0.75981706662E-03  0.13647495084E-01  0.14235464024E-01  0.00000000000E+00 0. -1.
     999901    1    3    3    0    0  0.17096709685E-01  0.59790337713E-01 -0.12900826394E+00  0.89157743025E+00  0.88000000000E+00 0.  1.
        -11    1    4    4    0    0 -0.17157771206E-01 -0.32942735545E-02  0.44918455054E-01  0.48199274647E-01  0.51100000000E-03 0.  1.
         11    1    4    4    0    0  0.40381197248E-02 -0.55736247092E-01  0.70442313804E-01  0.89917831079E-01  0.51100000000E-03 0. -1.
</event>
<event>
 8    1  0.2025822E+004  0.1043930E+01  0.7957747E-01            NaN
         13   -1    0    0    0    0  0.00000000000E+00  0.00000000000E+00  0.74505805969E-08  0.10566000000E+00  0.10566000000E+00 0. -1.
     999900   -1    0    0    0    0 -0.00000000000E+00 -0.00000000000E+00 -0.74505805969E-08  0.93827000000E+00  0.93827000000E+00 0. -1.
     999902    2    1    2    0    0 -0.28463254646E-02 -0.32132459045E-02 -0.10712254253E-01  0.10323896833E+01  0.10323251810E+01 0.  0.
     999903    2    3    3    0    0  0.66354724687E-01  0.10545370932E+00  0.48376999998E-01  0.14104865292E+00  0.45066107726E-01 0.  0.
         14    1    1    2    0    0  0.28463254646E-02  0.32132459045E-02  0.10712254253E-01  0.11540316680E-01  0.00000000000E+00 0. -1.
     999901    1    3    3    0    0 -0.69201050151E-01 -0.10866695522E+00 -0.59089254251E-01  0.89134103040E+00  0.88000000000E+00 0.  1.
        -11    1    4    4    0    0  0.34484750438E-01  0.87321302795E-01  0.45317913491E-01  0.10425057476E+00  0.51100000000E-03 0. -1.
         11    1    4    4    0    0  0.31869974249E-01  0.18132406524E-01  0.30590865068E-02  0.36798078160E-01  0.51100000000E-03 0.  1.
</event>
<event>
 8    1  0.2025822E+004  0.1043930E+01  0.7957747E-01            NaN
         13   -1    0    0    0    0  0.00000000000E+00  0.00000000000E+00  0.74505805969E-08  0.10566000000E+00  0.10566000000E+00 0. -1.
     999900   -1    0    0    0    0 -0.00000000000E+00 -0.00000000000E+00 -0.74505805969E-08  0.93827000000E+00  0.93827000000E+00 0. -1.
     999902    2    1    2    0    0 -0.47955692147E-02  0.38259016733E-02  0.11946310617E-01  0.10305005791E+01  0.10304130697E+01 0.  0.
     999903    2    3    3    0    0  0.77386256357E-01 -0.10684106929E+00 -0.34581788350E-02  0.13963676843E+00  0.45637937459E-01 0.  0.
         14    1    1    2    0    0  0.47955692147E-02 -0.38259016733E-02 -0.11946310617E-01  0.13429420876E-01  0.00000000000E+00 0.  1.
     999901    1    3    3    0    0 -0.82181825571E-01  0.11066697096E+00  0.15404489452E-01  0.89086381070E+00  0.88000000000E+00 0.  1.
        -11    1    4    4    0    0  0.67628898243E-01 -0.76616589653E-01  0.14385411886E-01  0.10320354104E+00  0.51100000000E-03 0. -1.
         11    1    4    4    0    0  0.97573581134E-02 -0.30224479637E-01 -0.17843590721E-01  0.36433227383E-01  0.51100000000E-03 0.  1.
</event>
<event>
 8    1  0.2025822E+004  0.1043930E+01  0.7957747E-01            NaN
         13   -1    0    0    0    0  0.00000000000E+00  0.00000000000E+00  0.74505805969E-08  0.10566000000E+00  0.10566000000E+00 0. -1.
     999900   -1    0    0    0    0 -0.00000000000E+00 -0.00000000000E+00 -0.74505805969E-08  0.93827000000E+00  0.93827000000E+00 0. -1.
     999902    2    1    2    0    0 -0.27853312441E-02 -0.76700357413E-02 -0.10579779677E-01  0.10305688901E+01  0.10304822745E+01 0.  0.
     999903    2    3    3    0    0 -0.10926747517E+00 -0.13361498140E-01  0.74130561075E-01  0.14009335340E+00  0.44865318655E-01 0.  0.
         14    1    1    2    0    0  0.27853312441E-02  0.76700357413E-02  0.10579779677E-01  0.13361109850E-01  0.00000000000E+00 0. -1.
     999901    1    3    3    0    0  0.10648214393E+00  0.56914623988E-02 -0.84710340752E-01  0.89047553675E+00  0.88000000000E+00 0. -1.
        -11    1    4    4    0    0 -0.63290065902E-02  0.10474053783E-01  0.13671925026E-01  0.18356055731E-01  0.51100000000E-03 0. -1.
         11    1    4    4    0    0 -0.10293846858E+00 -0.23835551923E-01  0.60458636049E-01  0.12173729767E+00  0.51100000000E-03 0.  1.
</event>
<event>
 7    1  0.3503180E+004  0.1043930E+01  0.7957747E-01            NaN
         13   -1    0    0    0    0  0.00000000000E+00  0.00000000000E+00  0.74505805969E-08  0.10566000000E+00  0.10566000000E+00 0. -1.
     999900   -1    0    0    0    0 -0.00000000000E+00 -0.00000000000E+00 -0.74505805969E-08  0.93827000000E+00  0.93827000000E+00 0.  1.
     999902    2    1    2    0    0 -0.27501808471E-02  0.11651949796E-02 -0.13715192141E-01  0.10298933455E+01  0.10297976867E+01 0.  0.
         14    1    1    2    0    0  0.27501808471E-02 -0.11651949796E-02  0.13715192141E-01  0.14036654498E-01  0.00000000000E+00 0. -1.
     999901    1    3    3    0    0  0.10483890430E+00  0.58442393085E-01  0.49285277044E-01  0.88951433249E+00  0.88000000000E+00 0. -1.
        -11    1    3    3    0    0 -0.81886810462E-01 -0.28254713864E-01 -0.41654701194E-01  0.96120517246E-01  0.51100000000E-03 0. -1.
         11    1    3    3    0    0 -0.25702274689E-01 -0.29022484242E-01 -0.21345767990E-01  0.44258495770E-01  0.51100000000E-03 0.  1.
</event>
<event>
 8    1  0.2025822E+004  0.1043930E+01  0.7957747E-01            NaN
         13   -1    0    0    0    0  0.00000000000E+00  0.00000000000E+00  0.74505805969E-08  0.10566000000E+00  0.10566000000E+00 0.  1.
     999900   -1    0    0    0    0 -0.00000000000E+00 -0.00000000000E+00 -0.74505805969E-08  0.93827000000E+00  0.93827000000E+00 0. -1.
     999902    2    1    2    0    0 -0.12883805876E-01  0.69293548090E-02 -0.50429958431E-02  0.10284561440E+01  0.10283397298E+01 0.  0.
     999903    2    3    3    0    0 -0.41182586061E-01 -0.11254400915E+00  0.50440618963E-01  0.13820160897E+00  0.46832353038E-01 0.  0.
         14    1    1    2    0    0  0.12883805876E-01 -0.69293548090E-02  0.50429958431E-02  0.15473855983E-01  0.00000000000E+00 0. -1.
     999901    1    3    3    0    0  0.28298780185E-01  0.11947336396E+00 -0.55483614807E-01  0.89025453504E+00  0.88000000000E+00 0. -1.
        -11    1    4    4    0    0 -0.19026866826E-01 -0.78805922793E-01  0.54415379340E-01  0.97640615310E-01  0.51100000000E-03 0.  1.
         11    1    4    4    0    0 -0.22155719235E-01 -0.33738086357E-01 -0.39747603763E-02  0.40560993662E-01  0.51100000000E-03 0. -1.
</event>
<event>
 8    1  0.2025822E+004  0.1043930E+01  0.7957747E-01            NaN
         13   -1    0    0    0    0  0.00000000000E+00  0.00000000000E+00  0.74505805969E-08  0.10566000000E+00  0.10566000000E+00 0.  1.
     999900   -1    0    0    0    0 -0.00000000000E+00 -0.00000000000E+00 -0.74505805969E-08  0.93827000000E+00  0.93827000000E+00 0. -1.
     999902    2    1    2    0    0  0.13207691882E-01  0.23716145079E-02  0.42373337613E-02  0.10298579469E+01  0.10297618017E+01 0.  0.
     999903    2    3    3    0    0 -0.10184484122E+00  0.43738385857E-01  0.70379314525E-01  0.13894658391E+00  0.45469629260E-01 0.  0.
         14    1    1    2    0    0 -0.13207691882E-01 -0.23716145079E-02 -0.42373337613E-02  0.14072053071E-01  0.00000000000E+00 0. -1.
     999901    1    3    3    0    0  0.11505253310E+00 -0.41366771349E-01 -0.66141980763E-01  0.89091136302E+00  0.88000000000E+00 0. -1.
        -11    1    4    4    0    0 -0.49970992810E-01  0.44761869691E-01  0.47711070625E-01  0.82324555765E-01  0.51100000000E-03 0. -1.
         11    1    4    4    0    0 -0.51873848413E-01 -0.10234838341E-02  0.22668243899E-01  0.56622028141E-01  0.51100000000E-03 0.  1.
</event>
<event>
 8    1  0.2025822E+004  0.1043930E+01  0.7957747E-01            NaN
         13   -1    0    0    0    0  0.00000000000E+00  0.00000000000E+00  0.74505805969E-08  0.10566000000E+00  0.10566000000E+00 0.  1.
     999900   -1    0    0    0    0 -0.00000000000E+00 -0.00000000000E+00 -0.74505805969E-08  0.93827000000E+00  0.93827000000E+00 0.  1.
     999902    2    1    2    0    0  0.34271397883E-02 -0.27474830900E-02 -0.13577329406E-01  0.10296598275E+01  0.10295609367E+01 0.  0.
     999903    2    3    3    0    0  0.62922311074E-01 -0.44544236372E-01  0.10591892488E+00  0.13861213021E+00  0.45289046893E-01 0.  0.
         14    1    1    2    0    0 -0.34271397883E-02  0.27474830900E-02  0.13577329406E-01  0.14270172538E-01  0.00000000000E+00 0.  1.
     999901    1    3    3    0    0 -0.59495171286E-01  0.41796753281E-01 -0.11949625429E+00  0.89104769725E+00  0.88000000000E+00 0.  1.
        -11    1    4    4    0    0  0.57891416569E-01 -0.34677332764E-01  0.56647453203E-01  0.88108618167E-01  0.51100000000E-03 0. -1.
         11    1    4    4    0    0  0.50308945050E-02 -0.98669036078E-02  0.49271471677E-01  0.50503512042E-01  0.51100000000E-03 0.  1.
</event>
<event>
 8    1  0.2025822E+004  0.1043930E+01  0.7957747E-01            NaN
         13   -1    0    0    0    0  0.00000000000E+00  0.00000000000E+00  0.74505805969E-08  0.10566000000E+00  0.10566000000E+00 0.  1.
     999900   -1    0    0    0    0 -0.00000000000E+00 -0.00000000000E+00 -0.74505805969E-08  0.93827000000E+00  0.93827000000E+00 0. -1.
     999902    2    1    2    0    0  0.51804658246E-02 -0.11294848600E-01 -0.16949081940E-02  0.10313887263E+01  0.10313124751E+01 0.  0.
     999903    2    3    3    0    0 -0.52856627594E-01 -0.27554037826E-01  0.11959372383E+00  0.14102722802E+00  0.45088492795E-01 0.  0.
         14    1    1    2    0    0 -0.51804658246E-02  0.11294848600E-01  0.16949081940E-02  0.12541273653E-01  0.00000000000E+00 0.  1.
     999901    1    3    3    0    0  0.58037093418E-01  0.16259189225E-01 -0.12128863202E+00  0.89036149833E+00  0.88000000000E+00 0. -1.
        -11    1    4    4    0    0 -0.20378280420E-01  0.11626179349E-01  0.31370151344E-01  0.39176394366E-01  0.51100000000E-03 0. -1.
         11    1    4    4    0    0 -0.32478347174E-01 -0.39180217175E-01  0.88223572484E-01  0.10185083365E+00  0.51100000000E-03 0.  1.
</event>
<event>
 8    1  0.2259541E+004  0.1043930E+01  0.7957747E-01            NaN
         13   -1    0    0    0    0  0.00000000000E+00  0.00000000000E+00  0.74505805969E-08  0.10566000000E+00  0.10566000000E+00 0.  1.
     999900   -1    0    0    0    0 -0.00000000000E+00 -0.00000000000E+00 -0.74505805969E-08  0.93827000000E+00  0.93827000000E+00 0. -1.
     999902    2    1    2    0    0  0.12448454162E-01  0.83054970487E-02  0.62918127073E-02  0.10276963251E+01  0.10275681021E+01 0.  0.
     999903    2    3    3    0    0  0.11682032673E+00 -0.41029780199E-01 -0.43789669261E-01  0.13874435107E+00  0.44744029986E-01 0.  0.
         14    1    1    2    0    0 -0.12448454162E-01 -0.83054970487E-02 -0.62918127073E-02  0.16233674858E-01  0.00000000000E+00 0. -1.
     999901    1    3    3    0    0 -0.10437187257E+00  0.49335277248E-01  0.50081481968E-01  0.88895197407E+00  0.88000000000E+00 0.  1.
        -11    1    4    4    0    0  0.69087428708E-01 -0.19066643005E-01 -0.21569557130E-02  0.71704415903E-01  0.51100000000E-03 0.  1.
         11    1    4    4    0    0  0.47732898025E-01 -0.21963137194E-01 -0.41632713548E-01  0.67039935170E-01  0.51100000000E-03 0. -1.
</event>
<event>
 8    1  0.2025822E+004  0.1043930E+01  0.7957747E-01            NaN
         13   -1    0    0    0    0  0.00000000000E+00  0.00000000000E+00  0.74505805969E-08  0.10566000000E+00  0.10566000000E+00 0. -1.
     999900   -1    0    0    0    0 -0.00000000000E+00 -0.00000000000E+00 -0.74505805969E-08  0.93827000000E+00  0.93827000000E+00 0.  1.
     999902    2    1    2    0    0  0.10918250131E-01  0.65018154286E-02 -0.41413162209E-02  0.10305646609E+01  0.10304779900E+01 0.  0.
     999903    2    3    3    0    0  0.90366205926E-03 -0.10623100763E+00 -0.79831865393E-01  0.14009397601E+00  0.44354839591E-01 0.  0.
         14    1    1    2    0    0 -0.10918250131E-01 -0.65018154286E-02  0.41413162209E-02  0.13365339121E-01  0.00000000000E+00 0. -1.
     999901    1    3    3    0    0  0.10014588072E-01  0.11273282306E+00  0.75690549172E-01  0.89047068486E+00  0.88000000000E+00 0.  1.
        -11    1    4    4    0    0  0.82904202863E-02 -0.71678194219E-01 -0.28081243268E-01  0.77429399710E-01  0.51100000000E-03 0.  1.
         11    1    4    4    0    0 -0.73867582271E-02 -0.34552813415E-01 -0.51750622125E-01  0.62664576303E-01  0.51100000000E-03 0. -1.
</event>
<event>
 8    1  0.2025822E+004  0.1043930E+01  0.7957747E-01            NaN
         13   -1    0    0    0    0  0.00000000000E+00  0.00000000000E+00  0.74505805969E-08  0.10566000000E+00  0.10566000000E+00 0.  1.
     999900   -1    0    0    0    0 -0.00000000000E+00 -0.00000000000E+00 -0.74505805969E-08  0.93827000000E+00  0.93827000000E+00 0.  1.
     999902    2    1    2    0    0 -0.39054500372E-02  0.52780525003E-03  0.12657944872E-01  0.10306727497E+01  0.10305874840E+01 0.  0.
     999903    2    3    3    0    0 -0.32769793772E-01 -0.57061478633E-01 -0.11436272082E+00  0.13922228806E+00  0.44431316118E-01 0.  0.
         14    1    1    2    0    0  0.39054500372E-02 -0.52780525003E-03 -0.12657944872E-01  0.13257250347E-01  0.00000000000E+00 0. -1.
     999901    1    3    3    0    0  0.28864343735E-01  0.57589283883E-01  0.12702066569E+00  0.89145046159E+00  0.88000000000E+00 0. -1.
        -11    1    4    4    0    0  0.48457483860E-02 -0.21122527531E-01 -0.12971581595E-01  0.25261937708E-01  0.51100000000E-03 0. -1.
         11    1    4    4    0    0 -0.37615542158E-01 -0.35938951103E-01 -0.10139113923E+00  0.11396035035E+00  0.51100000000E-03 0.  1.
</event>
<event>
 8    1  0.2025822E+004  0.1043930E+01  0.7957747E-01            NaN
         13   -1    0    0    0    0  0.00000000000E+00  0.00000000000E+00  0.74505805969E-08  0.10566000000E+00  0.10566000000E+00 0. -1.
     999900   -1    0    0    0    0 -0.00000000000E+00 -0.00000000000E+00 -0.74505805969E-08  0.93827000000E+00  0.93827000000E+00 0.  1.
     999902    2    1    2    0    0  0.22250873094E-02  0.41638976401E-02  0.11893574636E-01  0.10311336656E+01  0.10310542615E+01 0.  0.
     999903    2    3    3    0    0 -0.66010387868E-01 -0.11586169751E+00 -0.11622738077E-01  0.14005833738E+00  0.41230396217E-01 0.  0.
         14    1    1    2    0    0 -0.22250873094E-02 -0.41638976401E-02 -0.11893574636E-01  0.12796334425E-01  0.00000000000E+00 0.  1.
     999901    1    3    3    0    0  0.68235475178E-01  0.12002559515E+00  0.23516312713E-01  0.89107532820E+00  0.88000000000E+00 0.  1.
        -11    1    4    4    0    0 -0.23702221727E-01 -0.40075025364E-01  0.15576308185E-01  0.49098731861E-01  0.51100000000E-03 0. -1.
         11    1    4    4    0    0 -0.42308166142E-01 -0.75786672143E-01 -0.27199046262E-01  0.90959605514E-01  0.51100000000E-03 0.  1.
</event>
<event>
 8    1  0.2025822E+004  0.1043930E+01  0.7957747E-01            NaN
         13   -1    0    0    0    0  0.00000000000E+00  0.00000000000E+00  0.74505805969E-08  0.10566000000E+00  0.10566000000E+00 0. -1.
     999900   -1    0    0    0    0 -0.00000000000E+00 -0.00000000000E+00 -0.74505805969E-08  0.93827000000E+00  0.93827000000E+00 0. -1.
     999902    2    1    2    0    0 -0.11606074726E-01  0.14884883516E-02 -0.70442756680E-02  0.10302720943E+01  0.10301815616E+01 0.  0.
     999903    2    3    3    0    0  0.42346697774E-02 -0.12364869060E+00  0.44474340447E-01  0.13978660282E+00  0.47491012363E-01 0.  0.
         14    1    1    2    0    0  0.11606074726E-01 -0.14884883516E-02  0.70442756680E-02  0.13657905689E-01  0.00000000000E+00 0.  1.
     999901    1    3    3    0    0 -0.15840744504E-01  0.12513717895E+00 -0.51518616115E-01  0.89048549149E+00  0.88000000000E+00 0. -1.
        -11    1    4    4    0    0  0.18342705421E-01 -0.38997040181E-01  0.30587477264E-01  0.52849587239E-01  0.51100000000E-03 0.  1.
         11    1    4    4    0    0 -0.14108035644E-01 -0.84651650421E-01  0.13886863184E-01  0.86937015584E-01  0.51100000000E-03 0. -1.
</event>
<event>
 8    1  0.2025822E+004  0.1043930E+01  0.7957747E-01            NaN
         13   -1    0    0    0    0  0.00000000000E+00  0.00000000000E+00  0.74505805969E-08  0.10566000000E+00  0.10566000000E+00 0.  1.
     999900   -1    0    0    0    0 -0.00000000000E+00 -0.00000000000E+00 -0.74505805969E-08  0.93827000000E+00  0.93827000000E+00 0.  1.
     999902    2    1    2    0    0  0.91079399394E-02 -0.48633226784E-02  0.10453331935E-01  0.10292371914E+01  0.10291323129E+01 0.  0.
     999903    2    3    3    0    0 -0.16321684349E-01  0.37694980090E-01 -0.12354320452E+00  0.13771436679E+00  0.44888913258E-01 0.  0.
         14    1    1    2    0    0 -0.91079399394E-02  0.48633226784E-02 -0.10453331935E-01  0.14692808648E-01  0.00000000000E+00 0. -1.
     999901    1    3    3    0    0  0.25429624289E-01 -0.42558302769E-01  0.13399653646E+00  0.89152282456E+00  0.88000000000E+00 0. -1.
        -11    1    4    4    0    0 -0.25288044228E-01  0.42933256822E-01 -0.10886282667E+00  0.11972520985E+00  0.51100000000E-03 0. -1.
         11    1    4    4    0    0  0.89663598790E-02 -0.52382767318E-02 -0.14680377852E-01  0.17989156942E-01  0.51100000000E-03 0.  1.
</event>
<event>
 8    1  0.2025822E+004  0.1043930E+01  0.7957747E-01            NaN
         13   -1    0    0    0    0  0.00000000000E+00  0.00000000000E+00  0.74505805969E-08  0.10566000000E+00  0.10566000000E+00 0.  1.
     999900   -1    0    0    0    0 -0.00000000000E+00 -0.00000000000E+00 -0.74505805969E-08  0.93827000000E+00  0.93827000000E+00 0.  1.
     999902    2    1    2    0    0 -0.63453632389E-02  0.12158186515E-02 -0.11584098990E-01  0.10306660187E+01  0.10305806659E+01 0.  0.
     999903    2    3    3    0    0  0.37819181357E-01  0.42097740749E-01  0.11883781581E+00  0.13902050934E+00  0.44741091814E-01 0.  0.
         14    1    1    2    0    0  0.63453632389E-02 -0.12158186515E-02  0.11584098990E-01  0.13263981267E-01  0.00000000000E+00 0.  1.
     999901    1    3    3    0    0 -0.44164544596E-01 -0.40881922098E-01 -0.13042191480E+00  0.89164550939E+00  0.88000000000E+00 0.  1.
        -11    1    4    4    0    0  0.28335289380E-01  0.15082282199E-01  0.24363208184E-01  0.40301251775E-01  0.51100000000E-03 0. -1.
         11    1    4    4    0    0  0.94838919775E-02  0.27015458550E-01  0.94474607627E-01  0.98719257569E-01  0.51100000000E-03 0.  1.
</event>
<event>
 8    1  0.2025822E+004  0.1043930E+01  0.7957747E-01            NaN
         13   -1    0    0    0    0  0.00000000000E+00  0.00000000000E+00  0.74505805969E-08  0.10566000000E+00  0.10566000000E+00 0.  1.
     999900   -1    0    0    0    0 -0.00000000000E+00 -0.00000000000E+00 -0.74505805969E-08  0.93827000000E+00  0.93827000000E+00 0. -1.
     999902    2    1    2    0    0  0.93060796431E-02 -0.83455536682E-02  0.83709105544E-02  0.10288859471E+01  0.10287759565E+01 0.  0.
     999903    2    3    3    0    0 -0.99657821933E-01 -0.49014519907E-01  0.69798914754E-01  0.13911041565E+00  0.46321858840E-01 0.  0.
         14    1    1    2    0    0 -0.93060796431E-02  0.83455536682E-02 -0.83709105544E-02  0.15044052907E-01  0.00000000000E+00 0. -1.
     999901    1    3    3    0    0  0.10896390158E+00  0.40668966239E-01 -0.61428004199E-01  0.88977553145E+00  0.88000000000E+00 0. -1.
        -11    1    4    4    0    0 -0.72415158799E-01 -0.18602985824E-01  0.25826024859E-01  0.79102913893E-01  0.51100000000E-03 0.  1.
         11    1    4    4    0    0 -0.27242663135E-01 -0.30411534083E-01  0.43972889895E-01  0.60007501753E-01  0.51100000000E-03 0. -1.
</event>
<event>
 8    1  0.2025822E+004  0.1043930E+01  0.7957747E-01            NaN
         13   -1    0    0    0    0  0.00000000000E+00  0.00000000000E+00  0.74505805969E-08  0.10566000000E+00  0.10566000000E+00 0. -1.
     999900   -1    0    0    0    0 -0.00000000000E+00 -0.00000000000E+00 -0.74505805969E-08  0.93827000000E+00  0.93827000000E+00 0.  1.
     999902    2    1    2    0    0  0.14128890567E-02  0.88418261211E-02  0.11938679307E-01  0.10290066556E+01  0.10288984357E+01 0.  0.
     999903    2    3    3    0    0 -0.93421341814E-01  0.90348699362E-01  0.32364169572E-01  0.13993179801E+00  0.40534356297E-01 0.  0.
         14    1    1    2    0    0 -0.14128890567E-02 -0.88418261211E-02 -0.11938679307E-01  0.14923344405E-01  0.00000000000E+00 0.  1.
     999901    1    3    3    0    0  0.94834230871E-01 -0.81506873241E-01 -0.20425490265E-01  0.88907485758E+00  0.88000000000E+00 0.  1.
        -11    1    4    4    0    0 -0.50043764958E-02  0.24695391870E-01  0.20140083178E-03  0.25203330078E-01  0.51100000000E-03 0. -1.
         11    1    4    4    0    0 -0.88416965319E-01  0.65653307492E-01  0.32162768740E-01  0.11472846794E+00  0.51100000000E-03 0.  1.
</event>
<event>
 8    1  0.2025822E+004  0.1043930E+01  0.7957747E-01            NaN
         13   -1    0    0    0    0  0.00000000000E+00  0.00000000000E+00  0.74505805969E-08  0.10566000000E+00  0.10566000000E+00 0. -1.
     999900   -1    0    0    0    0 -0.00000000000E+00 -0.00000000000E+00 -0.74505805969E-08  0.93827000000E+00  0.93827000000E+00 0. -1.
     999902    2    1    2    0    0 -0.46262093241E-03 -0.91475163998E-02 -0.10361547111E-01  0.10301005845E+01  0.10300077483E+01 0.  0.
     999903    2    3    3    0    0  0.40184693688E-01  0.11581998549E+00 -0.48425338689E-01  0.13952889568E+00  0.45762655684E-01 0.  0.
         14    1    1    2    0    0  0.46262093241E-03  0.91475163998E-02  0.10361547111E-01  0.13829415495E-01  0.00000000000E+00 0. -1.
     999901    1    3    3    0    0 -0.40647314620E-01 -0.12496750189E+00  0.38063791578E-01  0.89057168883E+00  0.88000000000E+00 0. -1.
        -11    1    4    4    0    0 -0.21972158210E-02  0.32163502987E-01 -0.29823708673E-01  0.43920762764E-01  0.51100000000E-03 0.  1.
         11    1    4    4    0    0  0.42381909509E-01  0.83656482504E-01 -0.18601630017E-01  0.95608132912E-01  0.51100000000E-03 0. -1.
</event>
<event>
 8    1  0.2025822E+004  0.1043930E+01  0.7957747E-01            NaN
         13   -1    0    0    0    0  0.00000000000E+00  0.00000000000E+00  0.74505805969E-08  0.10566000000E+00  0.10566000000E+00 0.  1.
     999900   -1    0    0    0    0 -0.00000000000E+00 -0.00000000000E+00 -0.74505805969E-08  0.93827000000E+00  0.93827000000E+00 0. -1.
     999902    2    1    2    0    0 -0.48883829867E-02 -0.75595356820E-03  0.13058406205E-01  0.10299661278E+01  0.10298714651E+01 0.  0.
     999903    2    3    3    0    0  0.10974388182E+00 -0.10089710960E-01 -0.70721638492E-01  0.13853650577E+00  0.45224898174E-01 0.  0.
         14    1    1    2    0    0  0.48883829867E-02  0.75595356820E-03 -0.13058406205E-01  0.13963872193E-01  0.00000000000E+00 0. -1.
     999901    1    3    3    0    0 -0.11463226481E+00  0.93337573916E-02  0.83780044697E-01  0.89142962204E+00  0.88000000000E+00 0.  1.
        -11    1    4    4    0    0  0.34896145342E-01 -0.17691611321E-01 -0.43549987233E-01  0.58545679429E-01  0.51100000000E-03 0.  1.
         11    1    4    4    0    0  0.74847736477E-01  0.76019003614E-02 -0.27171651259E-01  0.79990826337E-01  0.51100000000E-03 0. -1.
</event>
<event>
 8    1  0.2025822E+004  0.1043930E+01  0.7957747E-01            NaN
         13   -1    0    0    0    0  0.00000000000E+00  0.00000000000E+00  0.74505805969E-08  0.10566000000E+00  0.10566000000E+00 0. -1.
     999900   -1    0    0    0    0 -0.00000000000E+00 -0.00000000000E+00 -0.74505805969E-08  0.93827000000E+00  0.93827000000E+00 0. -1.
     999902    2    1    2    0    0 -0.11589528202E-01 -0.50476456755E-02 -0.22709597396E-02  0.10310865912E+01  0.10310065982E+01 0.  0.
     999903    2    3    3    0    0 -0.75751251549E-01  0.27991675184E-02  0.11096324468E+00  0.14147977680E+00  0.44244752494E-01 0.  0.
         14    1    1    2    0    0  0.11589528202E-01  0.50476456755E-02  0.22709597396E-02  0.12843408774E-01  0.00000000000E+00 0. -1.
     999901    1    3    3    0    0  0.64161723348E-01 -0.78468131939E-02 -0.11323420442E+00  0.88960681442E+00  0.88000000000E+00 0. -1.
        -11    1    4    4    0    0 -0.47966173149E-03 -0.41805351238E-02  0.31568062977E-01  0.31851384121E-01  0.51100000000E-03 0. -1.
         11    1    4    4    0    0 -0.75271589818E-01  0.69797026422E-02  0.79395181705E-01  0.10962839268E+00  0.51100000000E-03 0.  1.
</event>
<event>
 7    1  0.2025822E+004  0.1043930E+01  0.7957747E-01            NaN
         13   -1    0    0    0    0  0.00000000000E+00  0.00000000000E+00  0.74505805969E-08  0.10566000000E+00  0.10566000000E+00 0.  1.
     999900   -1    0    0    0    0 -0.00000000000E+00 -0.00000000000E+00 -0.74505805969E-08  0.93827000000E+00  0.93827000000E+00 0. -1.
     999903    2    1    2    0    0  0.42606219115E-01 -0.10964293704E+00 -0.15168235016E-01  0.12717778120E+00  0.45904783262E-01 0.  0.
         14    1    1    2    0    0 -0.10084201282E-01  0.27516812173E-01 -0.12586139647E-01  0.31894779806E-01  0.00000000000E+00 0.  1.
     999901    1    1    2    0    0 -0.32522017833E-01  0.82126124872E-01  0.27754374662E-01  0.88485743899E+00  0.88000000000E+00 0.  1.
        -11    1    3    3    0    0  0.24640499155E-01 -0.93338689514E-01 -0.26912550549E-01  0.10021881888E+00  0.51100000000E-03 0. -1.
         11    1    3    3    0    0  0.17965719961E-01 -0.16304247531E-01  0.11744315534E-01  0.26958962324E-01  0.51100000000E-03 0.  1.
</event>
<event>
 8    1  0.2025822E+004  0.1043930E+01  0.7957747E-01            NaN
         13   -1    0    0    0    0  0.00000000000E+00  0.00000000000E+00  0.74505805969E-08  0.10566000000E+00  0.10566000000E+00 0.  1.
     999900   -1    0    0    0    0 -0.00000000000E+00 -0.00000000000E+00 -0.74505805969E-08  0.93827000000E+00  0.93827000000E+00 0.  1.
     999902    2    1    2    0    0  0.39384791833E-02  0.90884764351E-02 -0.10482374873E-01  0.10295080651E+01  0.10294070448E+01 0.  0.
     999903    2    3    3    0    0  0.11603672228E+00 -0.60861435856E-01  0.82639073711E-02  0.13944602829E+00  0.46992205187E-01 0.  0.
         14    1    1    2    0    0 -0.39384791833E-02 -0.90884764351E-02  0.10482374873E-01  0.14421934862E-01  0.00000000000E+00 0.  1.
     999901    1    3    3    0    0 -0.11209824310E+00  0.69949912291E-01 -0.18746282244E-01  0.89006203685E+00  0.88000000000E+00 0. -1.
        -11    1    4    4    0    0  0.67765229470E-01 -0.60621972052E-01  0.51663154480E-02  0.91071959224E-01  0.51100000000E-03 0.  1.
         11    1    4    4    0    0  0.48271492815E-01 -0.23946380423E-03  0.30975919231E-02  0.48374069068E-01  0.51100000000E-03 0. -1.
</event>
<event>
 8    1  0.2025822E+004  0.1043930E+01  0.7957747E-01            NaN
         13   -1    0    0    0    0  0.00000000000E+00  0.00000000000E+00  0.74505805969E-08  0.10566000000E+00  0.10566000000E+00 0.  1.
     999900   -1    0    0    0    0 -0.00000000000E+00 -0.00000000000E+00 -0.74505805969E-08  0.93827000000E+00  0.93827000000E+00 0. -1.
     999902    2    1    2    0    0 -0.12371452553E-01 -0.44029807381E-02  0.66058619005E-02  0.10292304596E+01  0.10291254843E+01 0.  0.
     999903    2    3    3    0    0  0.88198544412E-01  0.42872947936E-01  0.87160099023E-01  0.13859118194E+00  0.44649299537E-01 0.  0.
         14    1    1    2    0    0  0.12371452553E-01  0.44029807381E-02 -0.66058619005E-02  0.14699540439E-01  0.00000000000E+00 0. -1.
     999901    1    3    3    0    0 -0.10056999697E+00 -0.47275928674E-01 -0.80554237122E-01  0.89063927762E+00  0.88000000000E+00 0.  1.
        -11    1    4    4    0    0  0.51850784613E-01  0.48187502230E-01  0.53048732918E-01  0.88458851572E-01  0.51100000000E-03 0. -1.
         11    1    4    4    0    0  0.36347759799E-01 -0.53145542947E-02  0.34111366104E-01  0.50132330369E-01  0.51100000000E-03 0.  1.
</event>
<event>
 8    1  0.2025822E+004  0.1043930E+01  0.7957747E-01            NaN
         13   -1    0    0    0    0  0.00000000000E+00  0.00000000000E+00  0.74505805969E-08  0.10566000000E+00  0.10566000000E+00 0.  1.
     999900   -1    0    0    0    0 -0.00000000000E+00 -0.00000000000E+00 -0.74505805969E-08  0.93827000000E+00  0.93827000000E+00 0.  1.
     999902    2    1    2    0    0  0.59295047817E-02  0.13182904952E-03  0.14591966020E-01  0.10281787499E+01  0.10280580917E+01 0.  0.
     999903    2    3    3    0    0 -0.90038944491E-01 -0.92353181426E-01  0.21068871070E-01  0.13811955488E+00  0.44687721679E-01 0.  0.
         14    1    1    2    0    0 -0.59295047817E-02 -0.13182904952E-03 -0.14591966020E-01  0.15751250052E-01  0.00000000000E+00 0.  1.
     999901    1    3    3    0    0  0.95968449272E-01  0.92485010476E-01 -0.64769050496E-02  0.89005919506E+00  0.88000000000E+00 0. -1.
        -11    1    4    4    0    0 -0.18757372852E-01 -0.29632138814E-01 -0.12762690568E-01  0.37323586089E-01  0.51100000000E-03 0. -1.
         11    1    4    4    0    0 -0.71281571639E-01 -0.62721042612E-01  0.33831561638E-01  0.10079596880E+00  0.51100000000E-03 0.  1.
</event>
<event>
 8    1  0.2025822E+004  0.1043930E+01  0.7957747E-01            NaN
         13   -1    0    0    0    0  0.00000000000E+00  0.00000000000E+00  0.74505805969E-08  0.10566000000E+00  0.10566000000E+00 0. -1.
     999900   -1    0    0    0    0 -0.00000000000E+00 -0.00000000000E+00 -0.74505805969E-08  0.93827000000E+00  0.93827000000E+00 0.  1.
     999902    2    1    2    0    0 -0.63264884515E-02 -0.64792650457E-02  0.10177052242E-01  0.10303073085E+01  0.10302172451E+01 0.  0.
     999903    2    3    3    0    0 -0.12435177932E+00  0.12053334159E-01  0.48723008401E-01  0.14139830457E+00  0.44843071948E-01 0.  0.
         14    1    1    2    0    0  0.63264884515E-02  0.64792650457E-02 -0.10177052242E-01  0.13622691511E-01  0.00000000000E+00 0.  1.
     999901    1    3    3    0    0  0.11802529087E+00 -0.18532599205E-01 -0.38545956159E-01  0.88890900392E+00  0.88000000000E+00 0.  1.
        -11    1    4    4    0    0 -0.87485356244E-01 -0.95903886752E-03  0.52634791431E-01  0.10210430795E+00  0.51100000000E-03 0.  1.
         11    1    4    4    0    0 -0.36866423078E-01  0.13012373027E-01 -0.39117830300E-02  0.39293996613E-01  0.51100000000E-03 0. -1.
</event>
<event>
 8    1  0.2025822E+004  0.1043930E+01  0.7957747E-01            NaN
         13   -1    0    0    0    0  0.00000000000E+00  0.00000000000E+00  0.74505805969E-08  0.10566000000E+00  0.10566000000E+00 0. -1.
     999900   -1    0    0    0    0 -0.00000000000E+00 -0.00000000000E+00 -0.74505805969E-08  0.93827000000E+00  0.93827000000E+00 0.  1.
     999902    2    1    2    0    0  0.80876073985E-02  0.15090373763E-01  0.79613940965E-04  0.10268088110E+01  0.10266660603E+01 0.  0.
     999903    2    3    3    0    0 -0.19570184649E-01 -0.11504506672E+00  0.51662855501E-01  0.13531511102E+00  0.44975205692E-01 0.  0.
         14    1    1    2    0    0 -0.80876073985E-02 -0.15090373763E-01 -0.79613940965E-04  0.17121188981E-01  0.00000000000E+00 0.  1.
     999901    1    3    3    0    0  0.27657792047E-01  0.13013544049E+00 -0.51583241560E-01  0.89149370000E+00  0.88000000000E+00 0.  1.
        -11    1    4    4    0    0 -0.75301967557E-02 -0.40329612779E-01 -0.42080920739E-02  0.41245008061E-01  0.51100000000E-03 0. -1.
         11    1    4    4    0    0 -0.12039987893E-01 -0.74715453943E-01  0.55870947575E-01  0.94070102957E-01  0.51100000000E-03 0.  1.
</event>
<event>
 8    1  0.2025822E+004  0.1043930E+01  0.7957747E-01            NaN
         13   -1    0    0    0    0  0.00000000000E+00  0.00000000000E+00  0.74505805969E-08  0.10566000000E+00  0.10566000000E+00 0.  1.
     999900   -1    0    0    0    0 -0.00000000000E+00 -0.00000000000E+00 -0.74505805969E-08  0.93827000000E+00  0.93827000000E+00 0. -1.
     999902    2    1    2    0    0 -0.10654221727E-01 -0.10434030420E-02  0.80084600986E-02  0.10305607605E+01  0.10304740388E+01 0.  0.
     999903    2    3    3    0    0 -0.10824352658E+00 -0.25349771504E-01 -0.74178002008E-01  0.14102768835E+00  0.45024004018E-01 0.  0.
         14    1    1    2    0    0  0.10654221727E-01  0.10434030420E-02 -0.80084600986E-02  0.13369239457E-01  0.00000000000E+00 0. -1.
     999901    1    3    3    0    0  0.97589304854E-01  0.24306368462E-01  0.82186462107E-01  0.88953307219E+00  0.88000000000E+00 0. -1.
        -11    1    4    4    0    0 -0.55049732632E-01 -0.34161949733E-01 -0.50454734937E-01  0.82118531836E-01  0.51100000000E-03 0. -1.
         11    1    4    4    0    0 -0.53193793948E-01  0.88121782287E-02 -0.23723267071E-01  0.58909156515E-01  0.51100000000E-03 0.  1.
</event>
<event>
 8    1  0.2025822E+004  0.1043930E+01  0.7957747E-01            NaN
         13   -1    0    0    0    0  0.00000000000E+00  0.00000000000E+00  0.74505805969E-08  0.10566000000E+00  0.10566000000E+00 0. -1.
     999900   -1    0    0    0    0 -0.00000000000E+00 -0.00000000000E+00 -0.74505805969E-08  0.93827000000E+00  0.93827000000E+00 0. -1.
     999902    2    1    2    0    0  0.13673893158E-01  0.48013506106E-03  0.49546433180E-02  0.10293782175E+01  0.10292753569E+01 0.  0.
     999903    2    3    3    0    0 -0.34453433789E-01 -0.30353856245E-01 -0.12253105108E+00  0.13835656967E+00  0.44947593952E-01 0.  0.
         14    1    1    2    0    0 -0.13673893158E-01 -0.48013506106E-03 -0.49546433180E-02  0.14551782508E-01  0.00000000000E+00 0. -1.
     999901    1    3    3    0    0  0.48127326947E-01  0.30833991307E-01  0.12748569440E+00  0.89102164783E+00  0.88000000000E+00 0.  1.
        -11    1    4    4    0    0  0.55784593255E-02 -0.13241683643E-01 -0.95077090382E-02  0.17237141477E-01  0.51100000000E-03 0. -1.
         11    1    4    4    0    0 -0.40031893115E-01 -0.17112172603E-01 -0.11302334204E+00  0.12111942819E+00  0.51100000000E-03 0.  1.
</event>
<event>
 8    1  0.2025822E+004  0.1043930E+01  0.7957747E-01            NaN
         13   -1    0    0    0    0  0.00000000000E+00  0.00000000000E+00  0.74505805969E-08  0.10566000000E+00  0.10566000000E+00 0.  1.
     999900   -1    0    0    0    0 -0.00000000000E+00 -0.00000000000E+00 -0.74505805969E-08  0.93827000000E+00  0.93827000000E+00 0.  1.
     999902    2    1    2    0    0  0.13656129925E-01 -0.59646754889E-02 -0.49162167828E-02  0.10282380777E+01  0.10281183337E+01 0.  0.
     999903    2    3    3    0    0 -0.36696155508E-01  0.11245708152E+00  0.51897038590E-01  0.13706648301E+00  0.45833559077E-01 0.  0.
         14    1    1    2    0    0 -0.13656129925E-01  0.59646754889E-02  0.49162167828E-02  0.15691922307E-01  0.00000000000E+00 0.  1.
     999901    1    3    3    0    0  0.50352285434E-01 -0.11842175701E+00 -0.56813255373E-01  0.89117159468E+00  0.88000000000E+00 0.  1.
        -11    1    4    4    0    0 -0.23062942126E-01  0.10716319101E+00  0.35809443807E-01  0.11531880243E+00  0.51100000000E-03 0. -1.
         11    1    4    4    0    0 -0.13633213382E-01  0.52938905118E-02  0.16087594783E-01  0.21747680584E-01  0.51100000000E-03 0.  1.
</event>
<event>
 8    1  0.2025822E+004  0.1043930E+01  0.7957747E-01            NaN
         13   -1    0    0    0    0  0.00000000000E+00  0.00000000000E+00  0.74505805969E-08  0.10566000000E+00  0.10566000000E+00 0.  1.
     999900   -1    0    0    0    0 -0.00000000000E+00 -0.00000000000E+00 -0.74505805969E-08  0.93827000000E+00  0.93827000000E+00 0.  1.
     999902    2    1    2    0    0 -0.72063265554E-02 -0.78569747668E-02  0.89086559914E-02  0.10300365718E+01  0.10299428683E+01 0.  0.
     999903    2    3    3    0    0  0.58615865809E-01 -0.44629512583E-01  0.11111054171E+00  0.14091902842E+00  0.45661876588E-01 0.  0.
         14    1    1    2    0    0  0.72063265554E-02  0.78569747668E-02 -0.89086559914E-02  0.13893428176E-01  0.00000000000E+00 0.  1.
     999901    1    3    3    0    0 -0.65822192365E-01  0.36772537816E-01 -0.10220188572E+00  0.88911754340E+00  0.88000000000E+00 0.  1.
        -11    1    4    4    0    0  0.49462555927E-01 -0.50290865899E-01  0.73826899027E-01  0.10210968501E+00  0.51100000000E-03 0.  1.
         11    1    4    4    0    0  0.91533098825E-02  0.56613533165E-02  0.37283642684E-01  0.38809343410E-01  0.51100000000E-03 0. -1.
</event>
<event>
 8    1  0.2025822E+004  0.1043930E+01  0.7957747E-01            NaN
         13   -1    0    0    0    0  0.00000000000E+00  0.00000000000E+00  0.74505805969E-08  0.10566000000E+00  0.10566000000E+00 0.  1.
     999900   -1    0    0    0    0 -0.00000000000E+00 -0.00000000000E+00 -0.74505805969E-08  0.93827000000E+00  0.93827000000E+00 0.  1.
     999902    2    1    2    0    0 -0.78095559100E-02  0.17867615420E-01 -0.68989347180E-02  0.10232457996E+01  0.10230367199E+01 0.  0.
     999903    2    3    3    0    0  0.85582045862E-01  0.93587431201E-01  0.60586422379E-02  0.13497591915E+00  0.45813728859E-01 0.  0.
         14    1    1    2    0    0  0.78095559100E-02 -0.17867615420E-01  0.68989347180E-02  0.20684200360E-01  0.00000000000E+00 0. -1.
     999901    1    3    3    0    0 -0.93391601772E-01 -0.75719815781E-01 -0.12957576956E-01  0.88826988049E+00  0.88000000000E+00 0.  1.
        -11    1    4    4    0    0  0.54709464790E-01  0.72203343778E-01 -0.15140663426E-01  0.91847423482E-01  0.51100000000E-03 0. -1.
         11    1    4    4    0    0  0.30872581072E-01  0.21384087423E-01  0.21199305664E-01  0.43128495669E-01  0.51100000000E-03 0.  1.
</event>
<event>
 8    1  0.2025822E+004  0.1043930E+01  0.7957747E-01            NaN
         13   -1    0    0    0    0  0.00000000000E+00  0.00000000000E+00  0.74505805969E-08  0.10566000000E+00  0.10566000000E+00 0. -1.
     999900   -1    0    0    0    0 -0.00000000000E+00 -0.00000000000E+00 -0.74505805969E-08  0.93827000000E+00  0.93827000000E+00 0.  1.
     999902    2    1    2    0    0  0.79692595551E-02 -0.82390208606E-02  0.22885398485E-02  0.10322412029E+01  0.10321750205E+01 0.  0.
     999903    2    3    3    0    0 -0.36356404067E-01 -0.75111047896E-01 -0.10564597918E+00  0.14202409858E+00  0.45236202615E-01 0.  0.
         14    1    1    2    0    0 -0.79692595551E-02  0.82390208606E-02 -0.22885398485E-02  0.11688797083E-01  0.00000000000E+00 0. -1.
     999901    1    3    3    0    0  0.44325663622E-01  0.66872027036E-01  0.10793451903E+00  0.89021710434E+00  0.88000000000E+00 0. -1.
        -11    1    4    4    0    0 -0.85710281428E-02 -0.56992047398E-01 -0.85816346487E-01  0.10337437998E+00  0.51100000000E-03 0.  1.
         11    1    4    4    0    0 -0.27785375924E-01 -0.18119000499E-01 -0.19829632697E-01  0.38649718605E-01  0.51100000000E-03 0. -1.
</event>
<event>
 8    1  0.2025822E+004  0.1043930E+01  0.7957747E-01            NaN
         13   -1    0    0    0    0  0.00000000000E+00  0.00000000000E+00  0.74505805969E-08  0.10566000000E+00  0.10566000000E+00 0. -1.
     999900   -1    0    0    0    0 -0.00000000000E+00 -0.00000000000E+00 -0.74505805969E-08  0.93827000000E+00  0.93827000000E+00 0. -1.
     999902    2    1    2    0    0  0.11894459959E-01 -0.24940530811E-03 -0.48384325095E-02  0.10310866823E+01  0.10310066904E+01 0.  0.
     999903    2    3    3    0    0 -0.62115533899E-01  0.11084959628E+00 -0.38365277473E-01  0.14038779002E+00  0.45725972115E-01 0.  0.
         14    1    1    2    0    0 -0.11894459959E-01  0.24940530811E-03  0.48384325095E-02  0.12843317713E-01  0.00000000000E+00 0.  1.
     999901    1    3    3    0    0  0.74009993859E-01 -0.11109900159E+00  0.33526844963E-01  0.89069889226E+00  0.88000000000E+00 0.  1.
        -11    1    4    4    0    0  0.70987028705E-02  0.13119122130E-01 -0.11023785605E-02  0.14965938240E-01  0.51100000000E-03 0.  1.
         11    1    4    4    0    0 -0.69214236770E-01  0.97730474147E-01 -0.37262898912E-01  0.12542185178E+00  0.51100000000E-03 0. -1.
</event>
<event>
 8    1  0.2025822E+004  0.1043930E+01  0.7957747E-01            NaN
         13   -1    0    0    0    0  0.00000000000E+00  0.00000000000E+00  0.74505805969E-08  0.10566000000E+00  0.10566000000E+00 0.  1.
     999900   -1    0    0    0    0 -0.00000000000E+00 -0.00000000000E+00 -0.74505805969E-08  0.93827000000E+00  0.93827000000E+00 0. -1.
     999902    2    1    2    0    0 -0.53464059620E-03  0.28626190049E-02  0.12670414731E-01  0.10309292370E+01  0.10308472593E+01 0.  0.
     999903    2    3    3    0    0 -0.16000144484E-01  0.65033745731E-01 -0.11399905236E+00  0.13955412817E+00  0.44656220671E-01 0.  0.
         14    1    1    2    0    0  0.53464059620E-03 -0.28626190049E-02 -0.12670414731E-01  0.13000762962E-01  0.00000000000E+00 0. -1.
     999901    1    3    3    0    0  0.15465503887E-01 -0.62171126726E-01  0.12666946709E+00  0.89137510886E+00  0.88000000000E+00 0.  1.
        -11    1    4    4    0    0  0.81359893060E-02  0.51758450737E-01 -0.82207578933E-01  0.97485787168E-01  0.51100000000E-03 0.  1.
         11    1    4    4    0    0 -0.24136133790E-01  0.13275294994E-01 -0.31791473425E-01  0.42068341006E-01  0.51100000000E-03 0. -1.
</event>
<event>
 8    1  0.2025822E+004  0.1043930E+01  0.7957747E-01            NaN
         13   -1    0    0    0    0  0.00000000000E+00  0.00000000000E+00  0.74505805969E-08  0.10566000000E+00  0.10566000000E+00 0. -1.
     999900   -1    0    0    0    0 -0.00000000000E+00 -0.00000000000E+00 -0.74505805969E-08  0.93827000000E+00  0.93827000000E+00 0. -1.
     999902    2    1    2    0    0 -0.49063726782E-02 -0.55559560158E-02 -0.10514453473E-01  0.10310655190E+01  0.10309852616E+01 0.  0.
     999903    2    3    3    0    0 -0.69097162239E-01  0.58039450138E-01 -0.99531521424E-01  0.14197110806E+00  0.45894184421E-01 0.  0.
         14    1    1    2    0    0  0.49063726782E-02  0.55559560158E-02  0.10514453473E-01  0.12864481021E-01  0.00000000000E+00 0. -1.
     999901    1    3    3    0    0  0.64190789561E-01 -0.63595406154E-01  0.89017067950E-01  0.88909441092E+00  0.88000000000E+00 0.  1.
        -11    1    4    4    0    0 -0.43281788254E-01  0.82538260317E-02 -0.54241178835E-01  0.69884228844E-01  0.51100000000E-03 0. -1.
         11    1    4    4    0    0 -0.25815373985E-01  0.49785624107E-01 -0.45290342589E-01  0.72086879212E-01  0.51100000000E-03 0.  1.
</event>
<event>
 8    1  0.2025822E+004  0.1043930E+01  0.7957747E-01            NaN
         13   -1    0    0    0    0  0.00000000000E+00  0.00000000000E+00  0.74505805969E-08  0.10566000000E+00  0.10566000000E+00 0. -1.
     999900   -1    0    0    0    0 -0.00000000000E+00 -0.00000000000E+00 -0.74505805969E-08  0.93827000000E+00  0.93827000000E+00 0. -1.
     999902    2    1    2    0    0  0.82553881837E-02  0.26805882704E-02  0.64017663340E-02  0.10331448435E+01  0.10330885481E+01 0.  0.
     999903    2    3    3    0    0  0.78446643490E-01  0.10727090906E+00  0.24012452108E-02  0.14416680574E+00  0.55833485425E-01 0.  0.
         14    1    1    2    0    0 -0.82553881837E-02 -0.26805882704E-02 -0.64017663340E-02  0.10785156454E-01  0.00000000000E+00 0. -1.
     999901    1    3    3    0    0 -0.70191255307E-01 -0.10459032079E+00  0.40005211232E-02  0.88897803780E+00  0.88000000000E+00 0. -1.
        -11    1    4    4    0    0  0.78294659155E-01  0.69373640777E-01 -0.78527020784E-02  0.10490320175E+00  0.51100000000E-03 0. -1.
         11    1    4    4    0    0  0.15198433543E-03  0.37897268282E-01  0.10253947289E-01  0.39263603993E-01  0.51100000000E-03 0.  1.
</event>
<event>
 8    1  0.2025822E+004  0.1043930E+01  0.7957747E-01            NaN
         13   -1    0    0    0    0  0.00000000000E+00  0.00000000000E+00  0.74505805969E-08  0.10566000000E+00  0.10566000000E+00 0.  1.
     999900   -1    0    0    0    0 -0.00000000000E+00 -0.00000000000E+00 -0.74505805969E-08  0.93827000000E+00  0.93827000000E+00 0.  1.
     999902    2    1    2    0    0  0.67307531646E-02  0.16504441848E-02 -0.11823224717E-01  0.10302254151E+01  0.10301342584E+01 0.  0.
     999903    2    3    3    0    0 -0.75855328231E-01  0.10800214038E+00 -0.47906412981E-02  0.13995545530E+00  0.46325868310E-01 0.  0.
         14    1    1    2    0    0 -0.67307531646E-02 -0.16504441848E-02  0.11823224717E-01  0.13704584885E-01  0.00000000000E+00 0.  1.
     999901    1    3    3    0    0  0.82586081396E-01 -0.10635169620E+00 -0.70325834190E-02  0.89026995982E+00  0.88000000000E+00 0. -1.
        -11    1    4    4    0    0 -0.63127692903E-02 -0.43823720052E-02  0.11760003727E-03  0.77026742936E-02  0.51100000000E-03 0. -1.
         11    1    4    4    0    0 -0.69542558941E-01  0.11238451239E+00 -0.49082413354E-02  0.13225278100E+00  0.51100000000E-03 0.  1.
</event>
<event>
 8    1  0.2025822E+004  0.1043930E+01  0.7957747E-01            NaN
         13   -1    0    0    0    0  0.00000000000E+00  0.00000000000E+00  0.74505805969E-08  0.10566000000E+00  0.10566000000E+00 0.  1.
     999900   -1    0    0    0    0 -0.00000000000E+00 -0.00000000000E+00 -0.74505805969E-08  0.93827000000E+00  0.93827000000E+00 0.  1.
     999902    2    1    2    0    0  0.70670450390E-02  0.76002568355E-02  0.15660686576E-04  0.10335517885E+01  0.10334996817E+01 0.  0.
     999903    2    3    3    0    0  0.33535581199E-01 -0.11153709218E+00 -0.69159507644E-01  0.14244040639E+00  0.44057618375E-01 0.  0.
         14    1    1    2    0    0 -0.70670450390E-02 -0.76002568355E-02 -0.15660686576E-04  0.10378211542E-01  0.00000000000E+00 0. -1.
     999901    1    3    3    0    0 -0.26468536160E-01  0.11913734901E+00  0.69175168331E-01  0.89111138207E+00  0.88000000000E+00 0. -1.
        -11    1    4    4    0    0  0.17650822761E-01 -0.16768610817E-01 -0.30090864492E-01  0.38709935414E-01  0.51100000000E-03 0. -1.
         11    1    4    4    0    0  0.15884758438E-01 -0.94768481362E-01 -0.39068643153E-01  0.10373047098E+00  0.51100000000E-03 0.  1.
</event>
<event>
 8    1  0.2025822E+004  0.1043930E+01  0.7957747E-01            NaN
         13   -1    0    0    0    0  0.00000000000E+00  0.00000000000E+00  0.74505805969E-08  0.10566000000E+00  0.10566000000E+00 0. -1.
     999900   -1    0    0    0    0 -0.00000000000E+00 -0.00000000000E+00 -0.74505805969E-08  0.93827000000E+00  0.93827000000E+00 0. -1.
     999902    2    1    2    0    0 -0.52810286677E-02  0.13267310188E-01 -0.37495738794E-02  0.10291661899E+01  0.10290602880E+01 0.  0.
     999903    2    3    3    0    0  0.81978163612E-01 -0.89906793750E-02 -0.10245419245E+00  0.13908069603E+00  0.45225289742E-01 0.  0.
         14    1    1    2    0    0  0.52810286677E-02 -0.13267310188E-01  0.37495738794E-02  0.14763810067E-01  0.00000000000E+00 0.  1.
     999901    1    3    3    0    0 -0.87259192280E-01  0.22257989563E-01  0.98704618568E-01  0.89008549391E+00  0.88000000000E+00 0.  1.
        -11    1    4    4    0    0 -0.23294180782E-03  0.96195166955E-02 -0.84182977817E-02  0.12795242158E-01  0.51100000000E-03 0.  1.
         11    1    4    4    0    0  0.82211105420E-01 -0.18610196070E-01 -0.94035894666E-01  0.12628545387E+00  0.51100000000E-03 0. -1.
</event>
<event>
 8    1  0.2025822E+004  0.1043930E+01  0.7957747E-01            NaN
         13   -1    0    0    0    0  0.00000000000E+00  0.00000000000E+00  0.74505805969E-08  0.10566000000E+00  0.10566000000E+00 0.  1.
     999900   -1    0    0    0    0 -0.00000000000E+00 -0.00000000000E+00 -0.74505805969E-08  0.93827000000E+00  0.93827000000E+00 0. -1.
     999902    2    1    2    0    0  0.56445458756E-02 -0.25884637619E-02 -0.13840248856E-01  0.10287605066E+01  0.10286486603E+01 0.  0.
     999903    2    3    3    0    0  0.34312934975E-02  0.39093476803E-02 -0.13380823467E+00  0.14059417211E+00  0.42837142656E-01 0.  0.
         14    1    1    2    0    0 -0.56445458756E-02  0.25884637619E-02  0.13840248856E-01  0.15169493439E-01  0.00000000000E+00 0.  1.
     999901    1    3    3    0    0  0.22132523781E-02 -0.64978114421E-02  0.11996798581E+00  0.88816633446E+00  0.88000000000E+00 0.  1.
        -11    1    4    4    0    0  0.37175597459E-02 -0.16631632495E-01 -0.27794207085E-01  0.32606909060E-01  0.51100000000E-03 0. -1.
         11    1    4    4    0    0 -0.28626624847E-03  0.20540980176E-01 -0.10601402758E+00  0.10798726305E+00  0.51100000000E-03 0.  1.
</event>
<event>
 8    1  0.2025822E+004  0.1043930E+01  0.7957747E-01            NaN
         13   -1    0    0    0    0  0.00000000000E+00  0.00000000000E+00  0.74505805969E-08  0.10566000000E+00  0.10566000000E+00 0.  1.
     999900   -1    0    0    0    0 -0.00000000000E+00 -0.00000000000E+00 -0.74505805969E-08  0.93827000000E+00  0.93827000000E+00 0. -1.
     999902    2    1    2    0    0  0.11708501828E-01  0.36405942591E-02 -0.20484647913E-02  0.10314986224E+01  0.10314237096E+01 0.  0.
     999903    2    3    3    0    0 -0.16021234067E-01  0.13814685841E-01  0.13189317944E+00  0.14087366514E+00  0.44744309812E-01 0.  0.
         14    1    1    2    0    0 -0.11708501828E-01 -0.36405942591E-02  0.20484647913E-02  0.12431377624E-01  0.00000000000E+00 0.  1.
     999901    1    3    3    0    0  0.27729735896E-01 -0.10174091582E-01 -0.13394164423E+00  0.89062495724E+00  0.88000000000E+00 0. -1.
        -11    1    4    4    0    0 -0.20958015827E-02  0.28810909261E-01  0.82175274841E-01  0.87106244282E-01  0.51100000000E-03 0.  1.
         11    1    4    4    0    0 -0.13925432485E-01 -0.14996223420E-01  0.49717904602E-01  0.53767420858E-01  0.51100000000E-03 0. -1.
</event>
<event>
 8    1  0.2025822E+004  0.1043930E+01  0.7957747E-01            NaN
         13   -1    0    0    0    0  0.00000000000E+00  0.00000000000E+00  0.74505805969E-08  0.10566000000E+00  0.10566000000E+00 0. -1.
     999900   -1    0    0    0    0 -0.00000000000E+00 -0.00000000000E+00 -0.74505805969E-08  0.93827000000E+00  0.93827000000E+00 0.  1.
     999902    2    1    2    0    0  0.68939271697E-02  0.26525015634E-03  0.11599155213E-01  0.10304341862E+01  0.10303458036E+01 0.  0.
     999903    2    3    3    0    0 -0.18278439471E-01 -0.10613659287E+00 -0.76230239716E-01  0.13932869137E+00  0.44747704923E-01 0.  0.
         14    1    1    2    0    0 -0.68939271697E-02 -0.26525015634E-03 -0.11599155213E-01  0.13495813837E-01  0.00000000000E+00 0.  1.
     999901    1    3    3    0    0  0.25172366641E-01  0.10640184302E+00  0.87829394929E-01  0.89110549480E+00  0.88000000000E+00 0. -1.
        -11    1    4    4    0    0 -0.27188421837E-01 -0.10025281569E+00 -0.75870677549E-01  0.12863303685E+00  0.51100000000E-03 0.  1.
         11    1    4    4    0    0  0.89099823659E-02 -0.58837771735E-02 -0.35956216687E-03  0.10695654517E-01  0.51100000000E-03 0. -1.
</event>
<event>
 8    1  0.2025822E+004  0.1043930E+01  0.7957747E-01            NaN
         13   -1    0    0    0    0  0.00000000000E+00  0.00000000000E+00  0.74505805969E-08  0.10566000000E+00  0.10566000000E+00 0. -1.
     999900   -1    0    0    0    0 -0.00000000000E+00 -0.00000000000E+00 -0.74505805969E-08  0.93827000000E+00  0.93827000000E+00 0. -1.
     999902    2    1    2    0    0  0.45222654682E-02 -0.90091427314E-02 -0.90631004701E-02  0.10303743618E+01  0.10302851887E+01 0.  0.
     999903    2    3    3    0    0 -0.10541834540E+00 -0.30658692030E-01  0.77363840889E-01  0.13906899485E+00  0.36083770716E-01 0.  0.
         14    1    1    2    0    0 -0.45222654682E-02  0.90091427314E-02  0.90631004701E-02  0.13555638231E-01  0.00000000000E+00 0. -1.
     999901    1    3    3    0    0  0.10994061086E+00  0.21649549299E-01 -0.86426941359E-01  0.89130536692E+00  0.88000000000E+00 0.  1.
        -11    1    4    4    0    0 -0.80066741605E-01 -0.65653250435E-02  0.49636656220E-01  0.94434344207E-01  0.51100000000E-03 0. -1.
         11    1    4    4    0    0 -0.25351603791E-01 -0.24093366986E-01  0.27727184670E-01  0.44634650645E-01  0.51100000000E-03 0.  1.
</event>
<event>
 8    1  0.2025822E+004  0.1043930E+01  0.7957747E-01            NaN
         13   -1    0    0    0    0  0.00000000000E+00  0.00000000000E+00  0.74505805969E-08  0.10566000000E+00  0.10566000000E+00 0. -1.
     999900   -1    0    0    0    0 -0.00000000000E+00 -0.00000000000E+00 -0.74505805969E-08  0.93827000000E+00  0.93827000000E+00 0. -1.
     999902    2    1    2    0    0 -0.97616863073E-02  0.77442436614E-03  0.95044119968E-02  0.10302836049E+01  0.10301932257E+01 0.  0.
     999903    2    3    3    0    0  0.13130711855E-01 -0.99415766772E-01 -0.85042265882E-01  0.13927226342E+00  0.45920214447E-01 0.  0.
         14    1    1    2    0    0  0.97616863073E-02 -0.77442436614E-03 -0.95044119968E-02  0.13646395131E-01  0.00000000000E+00 0. -1.
     999901    1    3    3    0    0 -0.22892398162E-01  0.10019019114E+00  0.94546677879E-01  0.89101134145E+00  0.88000000000E+00 0.  1.
        -11    1    4    4    0    0  0.10759322066E-01 -0.23278948342E-01 -0.48322812937E-01  0.54708571708E-01  0.51100000000E-03 0.  1.
         11    1    4    4    0    0  0.23713897884E-02 -0.76136818430E-01 -0.36719452945E-01  0.84563691711E-01  0.51100000000E-03 0. -1.
</event>
<event>
 8    1  0.2025822E+004  0.1043930E+01  0.7957747E-01            NaN
         13   -1    0    0    0    0  0.00000000000E+00  0.00000000000E+00  0.74505805969E-08  0.10566000000E+00  0.10566000000E+00 0.  1.
     999900   -1    0    0    0    0 -0.00000000000E+00 -0.00000000000E+00 -0.74505805969E-08  0.93827000000E+00  0.93827000000E+00 0. -1.
     999902    2    1    2    0    0 -0.37536171710E-02 -0.10165162668E-01  0.93812007358E-02  0.10295972717E+01  0.10294975059E+01 0.  0.
     999903    2    3    3    0    0  0.59140408796E-01 -0.83212044836E-01  0.83581731178E-01  0.14122954139E+00  0.50379015635E-01 0.  0.
         14    1    1    2    0    0  0.37536171710E-02  0.10165162668E-01 -0.93812007358E-02  0.14332728323E-01  0.00000000000E+00 0. -1.
     999901    1    3    3    0    0 -0.62894025967E-01  0.73046882169E-01 -0.74200530442E-01  0.88836773029E+00  0.88000000000E+00 0. -1.
        -11    1    4    4    0    0 -0.10238979920E-02 -0.34228420050E-01  0.13949089313E-01  0.36979336391E-01  0.51100000000E-03 0. -1.
         11    1    4    4    0    0  0.60164306788E-01 -0.48983624786E-01  0.69632641865E-01  0.10425020500E+00  0.51100000000E-03 0.  1.
</event>
<event>
 8    1  0.2025822E+004  0.1043930E+01  0.7957747E-01            NaN
         13   -1    0    0    0    0  0.00000000000E+00  0.00000000000E+00  0.74505805969E-08  0.10566000000E+00  0.10566000000E+00 0.  1.
     999900   -1    0    0    0    0 -0.00000000000E+00 -0.00000000000E+00 -0.74505805969E-08  0.93827000000E+00  0.93827000000E+00 0.  1.
     999902    2    1    2    0    0  0.45777006499E-02 -0.13357185468E-01  0.45397508326E-02  0.10290983081E+01  0.10289914230E+01 0.  0.
     999903    2    3    3    0    0 -0.32376194155E-01  0.88624069923E-02  0.12558702207E+00  0.13976611904E+00  0.51339144067E-01 0.  0.
         14    1    1    2    0    0 -0.45777006499E-02  0.13357185468E-01 -0.45397508326E-02  0.14831691896E-01  0.00000000000E+00 0. -1.
     999901    1    3    3    0    0  0.36953894805E-01 -0.22219592461E-01 -0.12104727124E+00  0.88933218906E+00  0.88000000000E+00 0.  1.
        -11    1    4    4    0    0 -0.32957583031E-01 -0.30416248236E-02  0.34170509772E-01  0.47574558536E-01  0.51100000000E-03 0. -1.
         11    1    4    4    0    0  0.58138887613E-03  0.11904031816E-01  0.91416512298E-01  0.92191560505E-01  0.51100000000E-03 0.  1.
</event>
<event>
 8    1  0.2025822E+004  0.1043930E+01  0.7957747E-01            NaN
         13   -1    0    0    0    0  0.00000000000E+00  0.00000000000E+00  0.74505805969E-08  0.10566000000E+00  0.10566000000E+00 0.  1.
     999900   -1    0    0    0    0 -0.00000000000E+00 -0.00000000000E+00 -0.74505805969E-08  0.93827000000E+00  0.93827000000E+00 0.  1.
     999902    2    1    2    0    0  0.12302906452E-01 -0.16146329111E-02 -0.20858190177E-02  0.10313475047E+01  0.10312707483E+01 0.  0.
     999903    2    3    3    0    0 -0.80920915743E-01 -0.88096695696E-01  0.57808776114E-01  0.14019252901E+00  0.44753415467E-01 0.  0.
         14    1    1    2    0    0 -0.12302906452E-01  0.16146329111E-02  0.20858190177E-02  0.12582495284E-01  0.00000000000E+00 0.  1.
     999901    1    3    3    0    0  0.93223822195E-01  0.86482062784E-01 -0.59894595131E-01  0.89115497571E+00  0.88000000000E+00 0.  1.
        -11    1    4    4    0    0 -0.49375919339E-01 -0.72538137724E-01  0.57690637831E-01  0.10501539720E+00  0.51100000000E-03 0. -1.
         11    1    4    4    0    0 -0.31544996404E-01 -0.15558557972E-01  0.11813828237E-03  0.35177131804E-01  0.51100000000E-03 0.  1.
</event>
<event>
 8    1  0.2025822E+004  0.1043930E+01  0.7957747E-01            NaN
         13   -1    0    0    0    0  0.00000000000E+00  0.00000000000E+00  0.74505805969E-08  0.10566000000E+00  0.10566000000E+00 0. -1.
     999900   -1    0    0    0    0 -0.00000000000E+00 -0.00000000000E+00 -0.74505805969E-08  0.93827000000E+00  0.93827000000E+00 0. -1.
     999902    2    1    2    0    0  0.43934898836E-02  0.11091429920E-02 -0.12856403717E-01  0.10302984165E+01  0.10302082348E+01 0.  0.
     999903    2    3    3    0    0 -0.11372968656E+00 -0.66797044797E-01 -0.11985193686E-01  0.13981254119E+00  0.44806417048E-01 0.  0.
         14    1    1    2    0    0 -0.43934898836E-02 -0.11091429920E-02  0.12856403717E-01  0.13631583477E-01  0.00000000000E+00 0. -1.
     999901    1    3    3    0    0  0.11812317644E+00  0.67906187789E-01 -0.87121003143E-03  0.89048587533E+00  0.88000000000E+00 0.  1.
        -11    1    4    4    0    0 -0.12534930498E-01  0.53602580779E-02 -0.72171160286E-02  0.15433882662E-01  0.51100000000E-03 0. -1.
         11    1    4    4    0    0 -0.10119475606E+00 -0.72157302875E-01 -0.47680776573E-02  0.12437865853E+00  0.51100000000E-03 0.  1.
</event>
<event>
 8    1  0.2025822E+004  0.1043930E+01  0.7957747E-01            NaN
         13   -1    0    0    0    0  0.00000000000E+00  0.00000000000E+00  0.74505805969E-08  0.10566000000E+00  0.10566000000E+00 0.  1.
     999900   -1    0    0    0    0 -0.00000000000E+00 -0.00000000000E+00 -0.74505805969E-08  0.93827000000E+00  0.93827000000E+00 0.  1.
     999902    2    1    2    0    0 -0.58709285233E-02 -0.47239025732E-02 -0.11495937657E-01  0.10301844684E+01  0.10300927624E+01 0.  0.
     999903    2    3    3    0    0  0.10666210940E-01  0.35972167615E-01  0.12388280091E+00  0.13874908094E+00  0.49965930405E-01 0.  0.
         14    1    1    2    0    0  0.58709285233E-02  0.47239025732E-02  0.11495937657E-01  0.13745531632E-01  0.00000000000E+00 0.  1.
     999901    1    3    3    0    0 -0.16537139463E-01 -0.40696070188E-01 -0.13537873856E+00  0.89143538743E+00  0.88000000000E+00 0.  1.
        -11    1    4    4    0    0  0.19642028058E-01  0.44716288957E-01  0.86741221400E-01  0.99547256995E-01  0.51100000000E-03 0. -1.
         11    1    4    4    0    0 -0.89758171181E-02 -0.87441213423E-02  0.37141579507E-01  0.39201823941E-01  0.51100000000E-03 0.  1.
</event>
<event>
 8    1  0.2025822E+004  0.1043930E+01  0.7957747E-01            NaN
         13   -1    0    0    0    0  0.00000000000E+00  0.00000000000E+00  0.74505805969E-08  0.10566000000E+00  0.10566000000E+00 0.  1.
     999900   -1    0    0    0    0 -0.00000000000E+00 -0.00000000000E+00 -0.74505805969E-08  0.93827000000E+00  0.93827000000E+00 0.  1.
     999902    2    1    2    0    0  0.77364132479E-02  0.94987168960E-02 -0.75336661453E-02  0.10295482811E+01  0.10294478274E+01 0.  0.
     999903    2    3    3    0    0 -0.23422316086E-01  0.11868481995E+00  0.53998012858E-01  0.14012227574E+00  0.45648388665E-01 0.  0.
         14    1    1    2    0    0 -0.77364132479E-02 -0.94987168960E-02  0.75336661453E-02  0.14381718889E-01  0.00000000000E+00 0.  1.
     999901    1    3    3    0    0  0.31158729334E-01 -0.10918610305E+00 -0.61531679004E-01  0.88942600537E+00  0.88000000000E+00 0. -1.
        -11    1    4    4    0    0 -0.27327528640E-01  0.77050561704E-01  0.15359751860E-01  0.83185130755E-01  0.51100000000E-03 0.  1.
         11    1    4    4    0    0  0.39052125538E-02  0.41634258246E-01  0.38638260998E-01  0.56937144983E-01  0.51100000000E-03 0. -1.
</event>
<event>
 8    1  0.2025822E+004  0.1043930E+01  0.7957747E-01            NaN
         13   -1    0    0    0    0  0.00000000000E+00  0.00000000000E+00  0.74505805969E-08  0.10566000000E+00  0.10566000000E+00 0.  1.
     999900   -1    0    0    0    0 -0.00000000000E+00 -0.00000000000E+00 -0.74505805969E-08  0.93827000000E+00  0.93827000000E+00 0. -1.
     999902    2    1    2    0    0 -0.13159590529E-01 -0.40858660578E-02 -0.27331025749E-02  0.10298822609E+01  0.10297864499E+01 0.  0.
     999903    2    3    3    0    0 -0.13006460610E+00 -0.13239895968E-02 -0.34036172418E-01  0.14159498033E+00  0.44408588291E-01 0.  0.
         14    1    1    2    0    0  0.13159590529E-01  0.40858660578E-02  0.27331025749E-02  0.14047739107E-01  0.00000000000E+00 0.  1.
     999901    1    3    3    0    0  0.11690501557E+00 -0.27618764610E-02  0.31303069843E-01  0.88828728056E+00  0.88000000000E+00 0.  1.
        -11    1    4    4    0    0 -0.70916779726E-01  0.21291086838E-01 -0.20625887191E-01  0.76864740739E-01  0.51100000000E-03 0.  1.
         11    1    4    4    0    0 -0.59147826372E-01 -0.22615076435E-01 -0.13410285228E-01  0.64730239592E-01  0.51100000000E-03 0. -1.
</event>
<event>
 8    1  0.2025822E+004  0.1043930E+01  0.7957747E-01            NaN
         13   -1    0    0    0    0  0.00000000000E+00  0.00000000000E+00  0.74505805969E-08  0.10566000000E+00  0.10566000000E+00 0. -1.
     999900   -1    0    0    0    0 -0.00000000000E+00 -0.00000000000E+00 -0.74505805969E-08  0.93827000000E+00  0.93827000000E+00 0. -1.
     999902    2    1    2    0    0 -0.12778493928E-01 -0.21540999510E-02 -0.80961459449E-03  0.10309459510E+01  0.10308641852E+01 0.  0.
     999903    2    3    3    0    0 -0.10128525803E+00 -0.34714155939E-01  0.83891869249E-01  0.14186330806E+00  0.40293626438E-01 0.  0.
         14    1    1    2    0    0  0.12778493928E-01  0.21540999510E-02  0.80961459449E-03  0.12984049040E-01  0.00000000000E+00 0.  1.
     999901    1    3    3    0    0  0.88506764102E-01  0.32560055988E-01 -0.84701483843E-01  0.88908264290E+00  0.88000000000E+00 0. -1.
        -11    1    4    4    0    0 -0.89441514519E-01 -0.16548720082E-01  0.57127235582E-01  0.10741241466E+00  0.51100000000E-03 0. -1.
         11    1    4    4    0    0 -0.11843743511E-01 -0.18165435857E-01  0.26764633666E-01  0.34450893407E-01  0.51100000000E-03 0.  1.
</event>
<event>
 8    1  0.2025822E+004  0.1043930E+01  0.7957747E-01            NaN
         13   -1    0    0    0    0  0.00000000000E+00  0.00000000000E+00  0.74505805969E-08  0.10566000000E+00  0.10566000000E+00 0. -1.
     999900   -1    0    0    0    0 -0.00000000000E+00 -0.00000000000E+00 -0.74505805969E-08  0.93827000000E+00  0.93827000000E+00 0.  1.
     999902    2    1    2    0    0 -0.96313587207E-02 -0.91540151429E-02  0.46774860022E-02  0.10298431998E+01  0.10297468515E+01 0.  0.
     999903    2    3    3    0    0 -0.90400144653E-01  0.96529013851E-01 -0.98563447231E-02  0.13972875120E+00  0.44010677264E-01 0.  0.
         14    1    1    2    0    0  0.96313587207E-02  0.91540151429E-02 -0.46774860022E-02  0.14086800181E-01  0.00000000000E+00 0.  1.
     999901    1    3    3    0    0  0.80768785932E-01 -0.10568302899E+00  0.14533830725E-01  0.89011444862E+00  0.88000000000E+00 0.  1.
        -11    1    4    4    0    0 -0.50403366736E-01  0.25947000778E-01  0.61883144412E-02  0.57028962680E-01  0.51100000000E-03 0.  1.
         11    1    4    4    0    0 -0.39996777917E-01  0.70582013073E-01 -0.16044659164E-01  0.82699788524E-01  0.51100000000E-03 0. -1.
</event>
<event>
 8    1  0.2025822E+004  0.1043930E+01  0.7957747E-01            NaN
         13   -1    0    0    0    0  0.00000000000E+00  0.00000000000E+00  0.74505805969E-08  0.10566000000E+00  0.10566000000E+00 0.  1.
     999900   -1    0    0    0    0 -0.00000000000E+00 -0.00000000000E+00 -0.74505805969E-08  0.93827000000E+00  0.93827000000E+00 0.  1.
     999902    2    1    2    0    0 -0.11785334080E-01  0.65795443910E-02 -0.16465929709E-02  0.10303323615E+01  0.10302426313E+01 0.  0.
     999903    2    3    3    0    0 -0.99726497725E-01 -0.82390889275E-01 -0.31452792497E-01  0.14098552487E+00  0.46411281854E-01 0.  0.
         14    1    1    2    0    0  0.11785334080E-01 -0.65795443910E-02  0.16465929709E-02  0.13597638478E-01  0.00000000000E+00 0. -1.
     999901    1    3    3    0    0  0.87941163645E-01  0.88970433666E-01  0.29806199526E-01  0.88934683665E+00  0.88000000000E+00 0. -1.
        -11    1    4    4    0    0 -0.15844525147E-01 -0.26371998618E-01 -0.25461942193E-01  0.39938739458E-01  0.51100000000E-03 0. -1.
         11    1    4    4    0    0 -0.83881972579E-01 -0.56018890657E-01 -0.59908503046E-02  0.10104678541E+00  0.51100000000E-03 0.  1.
</event>
<event>
 8    1  0.2025822E+004  0.1043930E+01  0.7957747E-01            NaN
         13   -1    0    0    0    0  0.00000000000E+00  0.00000000000E+00  0.74505805969E-08  0.10566000000E+00  0.10566000000E+00 0.  1.
     999900   -1    0    0    0    0 -0.00000000000E+00 -0.00000000000E+00 -0.74505805969E-08  0.93827000000E+00  0.93827000000E+00 0.  1.
     999902    2    1    2    0    0 -0.12780334152E-01 -0.55974783083E-02 -0.37004109647E-03  0.10299727211E+01  0.10298781484E+01 0.  0.
     999903    2    3    3    0    0  0.86617555140E-01 -0.50752859345E-01  0.85176056095E-01  0.13910960950E+00  0.44922926582E-01 0.  0.
         14    1    1    2    0    0  0.12780334152E-01  0.55974783083E-02  0.37004109647E-03  0.13957278920E-01  0.00000000000E+00 0.  1.
     999901    1    3    3    0    0 -0.99397889292E-01  0.45155381036E-01 -0.85546097191E-01  0.89086311158E+00  0.88000000000E+00 0.  1.
        -11    1    4    4    0    0  0.66465152062E-01 -0.19360079321E-01  0.71094321765E-01  0.99232518955E-01  0.51100000000E-03 0.  1.
         11    1    4    4    0    0  0.20152403079E-01 -0.31392780024E-01  0.14081734330E-01  0.39877090543E-01  0.51100000000E-03 0. -1.
</event>
<event>
 8    1  0.2025822E+004  0.1043930E+01  0.7957747E-01            NaN
         13   -1    0    0    0    0  0.00000000000E+00  0.00000000000E+00  0.74505805969E-08  0.10566000000E+00  0.10566000000E+00 0.  1.
     999900   -1    0    0    0    0 -0.00000000000E+00 -0.00000000000E+00 -0.74505805969E-08  0.93827000000E+00  0.93827000000E+00 0. -1.
     999902    2    1    2    0    0 -0.69613195247E-02  0.77120674856E-02  0.91734086443E-02  0.10300704408E+01  0.10299771967E+01 0.  0.
     999903    2    3    3    0    0 -0.20534752116E-01  0.12965116731E+00 -0.25058617601E-01  0.14089935843E+00  0.44649677053E-01 0.  0.
         14    1    1    2    0    0  0.69613195247E-02 -0.77120674856E-02 -0.91734086443E-02  0.13859559177E-01  0.00000000000E+00 0. -1.
     999901    1    3    3    0    0  0.13573432591E-01 -0.12193909983E+00  0.34232026246E-01  0.88917108239E+00  0.88000000000E+00 0.  1.
        -11    1    4    4    0    0 -0.32827866480E-01  0.10702777420E+00 -0.13816085864E-01  0.11279963926E+00  0.51100000000E-03 0. -1.
         11    1    4    4    0    0  0.12293114364E-01  0.22623393110E-01 -0.11242531738E-01  0.28099719171E-01  0.51100000000E-03 0.  1.
</event>
<event>
 7    1  0.2025822E+004  0.1043930E+01  0.7957747E-01            NaN
         13   -1    0    0    0    0  0.00000000000E+00  0.00000000000E+00  0.74505805969E-08  0.10566000000E+00  0.10566000000E+00 0. -1.
     999900   -1    0    0    0    0 -0.00000000000E+00 -0.00000000000E+00 -0.74505805969E-08  0.93827000000E+00  0.93827000000E+00 0.  1.
     999902    2    1    2    0    0 -0.11660919284E-01  0.29196962132E-02 -0.79302476245E-02  0.10295289413E+01  0.10294282153E+01 0.  0.
         14    1    1    2    0    0  0.11660919284E-01 -0.29196962132E-02  0.79302476245E-02  0.14401058708E-01  0.00000000000E+00 0.  1.
     999901    1    3    3    0    0  0.10719112711E+00  0.17756688841E-02  0.65073009814E-01  0.88889121232E+00  0.88000000000E+00 0.  1.
        -11    1    3    3    0    0 -0.55860332425E-01  0.85908826541E-02 -0.38970336781E-01  0.68652227008E-01  0.51100000000E-03 0. -1.
         11    1    3    3    0    0 -0.62991713974E-01 -0.74468553250E-02 -0.34032920658E-01  0.71985501965E-01  0.51100000000E-03 0.  1.
</event>
<event>
 8    1  0.2025822E+004  0.1043930E+01  0.7957747E-01            NaN
         13   -1    0    0    0    0  0.00000000000E+00  0.00000000000E+00  0.74505805969E-08  0.10566000000E+00  0.10566000000E+00 0. -1.
     999900   -1    0    0    0    0 -0.00000000000E+00 -0.00000000000E+00 -0.74505805969E-08  0.93827000000E+00  0.93827000000E+00 0.  1.
     999902    2    1    2    0    0 -0.57465190490E-02 -0.14366776151E-01 -0.25865214149E-02  0.10282418889E+01  0.10281222034E+01 0.  0.
     999903    2    3    3    0    0  0.78267947486E-02  0.91639705825E-01  0.90962102781E-01  0.13685367144E+00  0.44673581051E-01 0.  0.
         14    1    1    2    0    0  0.57465190490E-02  0.14366776151E-01  0.25865214149E-02  0.15688111141E-01  0.00000000000E+00 0. -1.
     999901    1    3    3    0    0 -0.13573313798E-01 -0.10600648198E+00 -0.93548624196E-01  0.89138821742E+00  0.88000000000E+00 0.  1.
        -11    1    4    4    0    0 -0.89127679403E-03  0.47287366265E-02  0.29873444052E-01  0.30262833723E-01  0.51100000000E-03 0. -1.
         11    1    4    4    0    0  0.87180715426E-02  0.86910969199E-01  0.61088658729E-01  0.10659083772E+00  0.51100000000E-03 0.  1.
</event>
<event>
 8    1  0.2025822E+004  0.1043930E+01  0.7957747E-01            NaN
         13   -1    0    0    0    0  0.00000000000E+00  0.00000000000E+00  0.74505805969E-08  0.10566000000E+00  0.10566000000E+00 0.  1.
     999900   -1    0    0    0    0 -0.00000000000E+00 -0.00000000000E+00 -0.74505805969E-08  0.93827000000E+00  0.93827000000E+00 0. -1.
     999902    2    1    2    0    0 -0.59331271893E-02 -0.92458878160E-02 -0.85191292716E-02  0.10300280576E+01  0.10299342384E+01 0.  0.
     999903    2    3    3    0    0 -0.18018493212E-01 -0.12730590731E+00 -0.36390088902E-01  0.14162442483E+00  0.46923118033E-01 0.  0.
         14    1    1    2    0    0  0.59331271893E-02  0.92458878160E-02  0.85191292716E-02  0.13901942429E-01  0.00000000000E+00 0.  1.
     999901    1    3    3    0    0  0.12085366022E-01  0.11806001949E+00  0.27870959630E-01  0.88840363274E+00  0.88000000000E+00 0.  1.
        -11    1    4    4    0    0  0.15756451151E-01 -0.48987051290E-01 -0.16519090808E-01  0.54047557106E-01  0.51100000000E-03 0.  1.
         11    1    4    4    0    0 -0.33774944363E-01 -0.78318856016E-01 -0.19870998094E-01  0.87576867726E-01  0.51100000000E-03 0. -1.
</event>
<event>
 8    1  0.2025822E+004  0.1043930E+01  0.7957747E-01            NaN
         13   -1    0    0    0    0  0.00000000000E+00  0.00000000000E+00  0.74505805969E-08  0.10566000000E+00  0.10566000000E+00 0.  1.
     999900   -1    0    0    0    0 -0.00000000000E+00 -0.00000000000E+00 -0.74505805969E-08  0.93827000000E+00  0.93827000000E+00 0.  1.
     999902    2    1    2    0    0 -0.84444595392E-02  0.14616787029E-01 -0.77560737155E-02  0.10253527010E+01  0.10251843958E+01 0.  0.
     999903    2    3    3    0    0  0.11713421163E+00  0.52017723220E-01  0.59319178973E-02  0.13554587148E+00  0.43717600160E-01 0.  0.
         14    1    1    2    0    0  0.84444595392E-02 -0.14616787029E-01  0.77560737155E-02  0.18577299035E-01  0.00000000000E+00 0. -1.
     999901    1    3    3    0    0 -0.12557867116E+00 -0.37400936190E-01 -0.13687991613E-01  0.88980682948E+00  0.88000000000E+00 0.  1.
        -11    1    4    4    0    0  0.46966651352E-01  0.23364403217E-01  0.23905429699E-01  0.57649738655E-01  0.51100000000E-03 0. -1.
         11    1    4    4    0    0  0.70167560274E-01  0.28653320002E-01 -0.17973511801E-01  0.77896132827E-01  0.51100000000E-03 0.  1.
</event>
<event>
 8    1  0.2025822E+004  0.1043930E+01  0.7957747E-01            NaN
         13   -1    0    0    0    0  0.00000000000E+00  0.00000000000E+00  0.74505805969E-08  0.10566000000E+00  0.10566000000E+00 0. -1.
     999900   -1    0    0    0    0 -0.00000000000E+00 -0.00000000000E+00 -0.74505805969E-08  0.93827000000E+00  0.93827000000E+00 0.  1.
     999902    2    1    2    0    0 -0.13159729499E-01  0.92605842053E-02 -0.60951376816E-02  0.10267228037E+01  0.10265786030E+01 0.  0.
     999903    2    3    3    0    0  0.70852310871E-01 -0.97459067455E-01 -0.42697458427E-01  0.13555119463E+00  0.45085847265E-01 0.  0.
         14    1    1    2    0    0  0.13159729499E-01 -0.92605842053E-02  0.60951376816E-02  0.17207196276E-01  0.00000000000E+00 0.  1.
     999901    1    3    3    0    0 -0.84012040371E-01  0.10671965166E+00  0.36602320745E-01  0.89117160910E+00  0.88000000000E+00 0. -1.
        -11    1    4    4    0    0  0.36474394542E-01 -0.82097270935E-01 -0.38218896106E-01  0.97628318088E-01  0.51100000000E-03 0. -1.
         11    1    4    4    0    0  0.34377916329E-01 -0.15361796520E-01 -0.44785623202E-02  0.37922876538E-01  0.51100000000E-03 0.  1.
</event>
<event>
 8    1  0.2025822E+004  0.1043930E+01  0.7957747E-01            NaN
         13   -1    0    0    0    0  0.00000000000E+00  0.00000000000E+00  0.74505805969E-08  0.10566000000E+00  0.10566000000E+00 0. -1.
     999900   -1    0    0    0    0 -0.00000000000E+00 -0.00000000000E+00 -0.74505805969E-08  0.93827000000E+00  0.93827000000E+00 0. -1.
     999902    2    1    2    0    0  0.39730016087E-02 -0.69904332964E-02 -0.10220370789E-01  0.10309258899E+01  0.10308438697E+01 0.  0.
     999903    2    3    3    0    0  0.82702251972E-01 -0.97374395036E-03 -0.10589964041E+00  0.14222514275E+00  0.46611658758E-01 0.  0.
         14    1    1    2    0    0 -0.39730016087E-02  0.69904332964E-02  0.10220370789E-01  0.13004110063E-01  0.00000000000E+00 0.  1.
     999901    1    3    3    0    0 -0.78729250363E-01 -0.60166893460E-02  0.95679269625E-01  0.88870074719E+00  0.88000000000E+00 0. -1.
        -11    1    4    4    0    0  0.51987172700E-01  0.18638528972E-01 -0.44949601436E-01  0.71209470423E-01  0.51100000000E-03 0.  1.
         11    1    4    4    0    0  0.30715079271E-01 -0.19612272922E-01 -0.60950038978E-01  0.71015672328E-01  0.51100000000E-03 0. -1.
</event>
<event>
 8    1  0.2025822E+004  0.1043930E+01  0.7957747E-01            NaN
         13   -1    0    0    0    0  0.00000000000E+00  0.00000000000E+00  0.74505805969E-08  0.10566000000E+00  0.10566000000E+00 0.  1.
     999900   -1    0    0    0    0 -0.00000000000E+00 -0.00000000000E+00 -0.74505805969E-08  0.93827000000E+00  0.93827000000E+00 0. -1.
     999902    2    1    2    0    0  0.21851925493E-01  0.30036985910E-02  0.22364384504E-03  0.10218714672E+01  0.10216333572E+01 0.  0.
     999903    2    3    3    0    0 -0.65709949345E-01  0.93163018149E-01  0.48307947861E-01  0.13164234774E+00  0.44709109797E-01 0.  0.
         14    1    1    2    0    0 -0.21851925493E-01 -0.30036985910E-02 -0.22364384504E-03  0.22058532806E-01  0.00000000000E+00 0. -1.
     999901    1    3    3    0    0  0.87561874838E-01 -0.90159319558E-01 -0.48084304016E-01  0.89022911945E+00  0.88000000000E+00 0.  1.
        -11    1    4    4    0    0 -0.11176367870E-01 -0.31731487515E-02  0.28681134073E-02  0.11977782236E-01  0.51100000000E-03 0.  1.
         11    1    4    4    0    0 -0.54533581475E-01  0.96336166900E-01  0.45439834454E-01  0.11966456551E+00  0.51100000000E-03 0. -1.
</event>
<event>
 8    1  0.2025822E+004  0.1043930E+01  0.7957747E-01            NaN
         13   -1    0    0    0    0  0.00000000000E+00  0.00000000000E+00  0.74505805969E-08  0.10566000000E+00  0.10566000000E+00 0.  1.
     999900   -1    0    0    0    0 -0.00000000000E+00 -0.00000000000E+00 -0.74505805969E-08  0.93827000000E+00  0.93827000000E+00 0. -1.
     999902    2    1    2    0    0  0.13326396816E-01  0.29036986750E-02 -0.12867352321E-02  0.10302303648E+01  0.10301392743E+01 0.  0.
     999903    2    3    3    0    0 -0.38717359827E-03 -0.13150141716E+00  0.14562362667E-01  0.13977879894E+00  0.45091879634E-01 0.  0.
         14    1    1    2    0    0 -0.13326396816E-01 -0.29036986750E-02  0.12867352321E-02  0.13699635238E-01  0.00000000000E+00 0.  1.
     999901    1    3    3    0    0  0.13713570414E-01  0.13440511583E+00 -0.15849097899E-01  0.89045156582E+00  0.88000000000E+00 0. -1.
        -11    1    4    4    0    0 -0.22036277407E-01 -0.77494792533E-01  0.12693163905E-01  0.81562356039E-01  0.51100000000E-03 0.  1.
         11    1    4    4    0    0  0.21649103809E-01 -0.54006624622E-01  0.18691987615E-02  0.58216442899E-01  0.51100000000E-03 0. -1.
</event>
<event>
 8    1  0.2025822E+004  0.1043930E+01  0.7957747E-01            NaN
         13   -1    0    0    0    0  0.00000000000E+00  0.00000000000E+00  0.74505805969E-08  0.10566000000E+00  0.10566000000E+00 0.  1.
     999900   -1    0    0    0    0 -0.00000000000E+00 -0.00000000000E+00 -0.74505805969E-08  0.93827000000E+00  0.93827000000E+00 0. -1.
     999902    2    1    2    0    0 -0.11284981031E-01  0.54631351382E-02  0.56992561476E-02  0.10301576304E+01  0.10300655636E+01 0.  0.
     999903    2    3    3    0    0 -0.13262330739E+00  0.15331449992E-01 -0.19069623771E-01  0.14143164878E+00  0.42605935089E-01 0.  0.
         14    1    1    2    0    0  0.11284981031E-01 -0.54631351382E-02 -0.56992561476E-02  0.13772369551E-01  0.00000000000E+00 0.  1.
     999901    1    3    3    0    0  0.12133832636E+00 -0.98683148539E-02  0.24768879919E-01  0.88872598167E+00  0.88000000000E+00 0.  1.
        -11    1    4    4    0    0 -0.34082373034E-01  0.22748666728E-01 -0.11314408709E-02  0.40995746962E-01  0.51100000000E-03 0.  1.
         11    1    4    4    0    0 -0.98540934353E-01 -0.74172167358E-02 -0.17938182901E-01  0.10043590182E+00  0.51100000000E-03 0. -1.
</event>
<event>
 8    1  0.2025822E+004  0.1043930E+01  0.7957747E-01            NaN
         13   -1    0    0    0    0  0.00000000000E+00  0.00000000000E+00  0.74505805969E-08  0.10566000000E+00  0.10566000000E+00 0. -1.
     999900   -1    0    0    0    0 -0.00000000000E+00 -0.00000000000E+00 -0.74505805969E-08  0.93827000000E+00  0.93827000000E+00 0. -1.
     999902    2    1    2    0    0 -0.65041365519E-03  0.49050494622E-02  0.12313471500E-01  0.10306595769E+01  0.10305741407E+01 0.  0.
     999903    2    3    3    0    0  0.84978569847E-01  0.15179687975E-01  0.10279474525E+00  0.14182621127E+00  0.45783559188E-01 0.  0.
         14    1    1    2    0    0  0.65041365519E-03 -0.49050494622E-02 -0.12313471500E-01  0.13270423073E-01  0.00000000000E+00 0.  1.
     999901    1    3    3    0    0 -0.85628983502E-01 -0.10274638513E-01 -0.90481273745E-01  0.88883336566E+00  0.88000000000E+00 0. -1.
        -11    1    4    4    0    0  0.63884024057E-01  0.17216251744E-02  0.43064283610E-01  0.77064428674E-01  0.51100000000E-03 0.  1.
         11    1    4    4    0    0  0.21094545790E-01  0.13458062801E-01  0.59730461635E-01  0.64761782593E-01  0.51100000000E-03 0. -1.
</event>
<event>
 8    1  0.2125356E+004  0.1043930E+01  0.7957747E-01            NaN
         13   -1    0    0    0    0  0.00000000000E+00  0.00000000000E+00  0.74505805969E-08  0.10566000000E+00  0.10566000000E+00 0. -1.
     999900   -1    0    0    0    0 -0.00000000000E+00 -0.00000000000E+00 -0.74505805969E-08  0.93827000000E+00  0.93827000000E+00 0. -1.
     999902    2    1    2    0    0  0.89341745211E-02  0.59568186010E-02 -0.86511185235E-02  0.10301406920E+01  0.10300483971E+01 0.  0.
     999903    2    3    3    0    0  0.95049448321E-01 -0.86522809573E-01 -0.34379354849E-01  0.14074187028E+00  0.45888340649E-01 0.  0.
         14    1    1    2    0    0 -0.89341745211E-02 -0.59568186010E-02  0.86511185235E-02  0.13789307957E-01  0.00000000000E+00 0. -1.
     999901    1    3    3    0    0 -0.86115273800E-01  0.92479628174E-01  0.25728236326E-01  0.88939882176E+00  0.88000000000E+00 0.  1.
        -11    1    4    4    0    0  0.67809545059E-01 -0.44426495608E-01 -0.20783599629E-02  0.81095182436E-01  0.51100000000E-03 0.  1.
         11    1    4    4    0    0  0.27239903262E-01 -0.42096313965E-01 -0.32300994887E-01  0.59646687844E-01  0.51100000000E-03 0. -1.
</event>
<event>
 8    1  0.2025822E+004  0.1043930E+01  0.7957747E-01            NaN
         13   -1    0    0    0    0  0.00000000000E+00  0.00000000000E+00  0.74505805969E-08  0.10566000000E+00  0.10566000000E+00 0.  1.
     999900   -1    0    0    0    0 -0.00000000000E+00 -0.00000000000E+00 -0.74505805969E-08  0.93827000000E+00  0.93827000000E+00 0. -1.
     999902    2    1    2    0    0 -0.57850153396E-02 -0.10430550133E-01 -0.68550105790E-02  0.10301730400E+01  0.10300811805E+01 0.  0.
     999903    2    3    3    0    0  0.12718444075E+00 -0.10086116928E-01 -0.35811547608E-01  0.13971277927E+00  0.44267166453E-01 0.  0.
         14    1    1    2    0    0  0.57850153396E-02  0.10430550133E-01  0.68550105790E-02  0.13756960005E-01  0.00000000000E+00 0.  1.
     999901    1    3    3    0    0 -0.13296945609E+00 -0.34443320431E-03  0.28956537029E-01  0.89046026072E+00  0.88000000000E+00 0.  1.
        -11    1    4    4    0    0  0.10306523131E+00  0.10079909935E-01 -0.25959302402E-01  0.10676232009E+00  0.51100000000E-03 0. -1.
         11    1    4    4    0    0  0.24119209442E-01 -0.20166026864E-01 -0.98522452055E-02  0.32950459180E-01  0.51100000000E-03 0.  1.
</event>
<event>
 8    1  0.2025822E+004  0.1043930E+01  0.7957747E-01            NaN
         13   -1    0    0    0    0  0.00000000000E+00  0.00000000000E+00  0.74505805969E-08  0.10566000000E+00  0.10566000000E+00 0. -1.
     999900   -1    0    0    0    0 -0.00000000000E+00 -0.00000000000E+00 -0.74505805969E-08  0.93827000000E+00  0.93827000000E+00 0. -1.
     999902    2    1    2    0    0 -0.65143389910E-02  0.68297423092E-02 -0.10256817990E-01  0.10299914094E+01  0.10298970915E+01 0.  0.
     999903    2    3    3    0    0 -0.10281472855E+00  0.38681083530E-01  0.73874057681E-01  0.14017891387E+00  0.46104846459E-01 0.  0.
         14    1    1    2    0    0  0.65143389910E-02 -0.68297423092E-02  0.10256817990E-01  0.13938590595E-01  0.00000000000E+00 0. -1.
     999901    1    3    3    0    0  0.96300389554E-01 -0.31851341221E-01 -0.84130875671E-01  0.88981249553E+00  0.88000000000E+00 0. -1.
        -11    1    4    4    0    0 -0.51505884674E-01  0.26284560686E-01  0.12384071029E-01  0.59138486815E-01  0.51100000000E-03 0.  1.
         11    1    4    4    0    0 -0.51308843871E-01  0.12396522845E-01  0.61489986652E-01  0.81040427057E-01  0.51100000000E-03 0. -1.
</event>
<event>
 8    1  0.2025822E+004  0.1043930E+01  0.7957747E-01            NaN
         13   -1    0    0    0    0  0.00000000000E+00  0.00000000000E+00  0.74505805969E-08  0.10566000000E+00  0.10566000000E+00 0.  1.
     999900   -1    0    0    0    0 -0.00000000000E+00 -0.00000000000E+00 -0.74505805969E-08  0.93827000000E+00  0.93827000000E+00 0. -1.
     999902    2    1    2    0    0  0.55015651746E-02 -0.12644786396E-01 -0.72730423724E-03  0.10301210604E+01  0.10300285007E+01 0.  0.
     999903    2    3    3    0    0  0.76268126955E-01  0.73284187835E-01  0.78773621053E-01  0.13955265087E+00  0.45631782934E-01 0.  0.
         14    1    1    2    0    0 -0.55015651746E-02  0.12644786396E-01  0.72730423724E-03  0.13808939634E-01  0.00000000000E+00 0. -1.
     999901    1    3    3    0    0 -0.70766561781E-01 -0.85928974231E-01 -0.79500925291E-01  0.89056840950E+00  0.88000000000E+00 0.  1.
        -11    1    4    4    0    0  0.90994904471E-02  0.34399008970E-01  0.13229680881E-01  0.37965485927E-01  0.51100000000E-03 0.  1.
         11    1    4    4    0    0  0.67168636508E-01  0.38885178866E-01  0.65543940173E-01  0.10158716494E+00  0.51100000000E-03 0. -1.
</event>
<event>
 8    1  0.2025822E+004  0.1043930E+01  0.7957747E-01            NaN
         13   -1    0    0    0    0  0.00000000000E+00  0.00000000000E+00  0.74505805969E-08  0.10566000000E+00  0.10566000000E+00 0. -1.
     999900   -1    0    0    0    0 -0.00000000000E+00 -0.00000000000E+00 -0.74505805969E-08  0.93827000000E+00  0.93827000000E+00 0. -1.
     999902    2    1    2    0    0 -0.19435525767E-02 -0.23720655525E-02 -0.14544196470E-01  0.10290660253E+01  0.10289586711E+01 0.  0.
     999903    2    3    3    0    0  0.42614826579E-01 -0.72451748758E-01  0.99586187305E-01  0.13781838543E+00  0.44846619923E-01 0.  0.
         14    1    1    2    0    0  0.19435525767E-02  0.23720655525E-02  0.14544196470E-01  0.14863974655E-01  0.00000000000E+00 0. -1.
     999901    1    3    3    0    0 -0.44558379156E-01  0.70079683206E-01 -0.11413038377E+00  0.89124763991E+00  0.88000000000E+00 0. -1.
        -11    1    4    4    0    0 -0.53040358340E-02 -0.74233827660E-02  0.29468301920E-01  0.30852574396E-01  0.51100000000E-03 0. -1.
         11    1    4    4    0    0  0.47918862413E-01 -0.65028365992E-01  0.70117885384E-01  0.10696581103E+00  0.51100000000E-03 0.  1.
</event>
<event>
 8    1  0.2025822E+004  0.1043930E+01  0.7957747E-01            NaN
         13   -1    0    0    0    0  0.00000000000E+00  0.00000000000E+00  0.74505805969E-08  0.10566000000E+00  0.10566000000E+00 0.  1.
     999900   -1    0    0    0    0 -0.00000000000E+00 -0.00000000000E+00 -0.74505805969E-08  0.93827000000E+00  0.93827000000E+00 0. -1.
     999902    2    1    2    0    0  0.97210060571E-02  0.69731186334E-02 -0.74404761696E-02  0.10298415995E+01  0.10297452292E+01 0.  0.
     999903    2    3    3    0    0 -0.31492887623E-01  0.90585234700E-01  0.90386844038E-01  0.13952718565E+00  0.45831945658E-01 0.  0.
         14    1    1    2    0    0 -0.97210060571E-02 -0.69731186334E-02  0.74404761696E-02  0.14088400472E-01  0.00000000000E+00 0.  1.
     999901    1    3    3    0    0  0.41213893680E-01 -0.83612116067E-01 -0.97827320207E-01  0.89031441388E+00  0.88000000000E+00 0. -1.
        -11    1    4    4    0    0 -0.47452700900E-02  0.23805717466E-01  0.35209598880E-03  0.24281986427E-01  0.51100000000E-03 0. -1.
         11    1    4    4    0    0 -0.26747617533E-01  0.66779517235E-01  0.90034748049E-01  0.11524519922E+00  0.51100000000E-03 0.  1.
</event>
<event>
 8    1  0.2025822E+004  0.1043930E+01  0.7957747E-01            NaN
         13   -1    0    0    0    0  0.00000000000E+00  0.00000000000E+00  0.74505805969E-08  0.10566000000E+00  0.10566000000E+00 0.  1.
     999900   -1    0    0    0    0 -0.00000000000E+00 -0.00000000000E+00 -0.74505805969E-08  0.93827000000E+00  0.93827000000E+00 0.  1.
     999902    2    1    2    0    0 -0.68884827577E-02  0.12607810362E-01 -0.16759412481E-02  0.10294656695E+01  0.10293640502E+01 0.  0.
     999903    2    3    3    0    0  0.10464121923E+00  0.79045448860E-01 -0.16922379796E-01  0.13981108031E+00  0.45418096541E-01 0.  0.
         14    1    1    2    0    0  0.68884827577E-02 -0.12607810362E-01  0.16759412481E-02  0.14464330468E-01  0.00000000000E+00 0. -1.
     999901    1    3    3    0    0 -0.11152970198E+00 -0.66437638498E-01  0.15246438548E-01  0.88965458922E+00  0.88000000000E+00 0.  1.
        -11    1    4    4    0    0  0.24186893202E-01  0.16263315521E-01 -0.23648674251E-01  0.37536943793E-01  0.51100000000E-03 0. -1.
         11    1    4    4    0    0  0.80454326023E-01  0.62782133339E-01  0.67262944547E-02  0.10227413652E+00  0.51100000000E-03 0.  1.
</event>
<event>
 8    1  0.2025822E+004  0.1043930E+01  0.7957747E-01            NaN
         13   -1    0    0    0    0  0.00000000000E+00  0.00000000000E+00  0.74505805969E-08  0.10566000000E+00  0.10566000000E+00 0. -1.
     999900   -1    0    0    0    0 -0.00000000000E+00 -0.00000000000E+00 -0.74505805969E-08  0.93827000000E+00  0.93827000000E+00 0. -1.
     999902    2    1    2    0    0 -0.76575198104E-02 -0.49343816055E-03 -0.81907152870E-02  0.10327064129E+01  0.10326454214E+01 0.  0.
     999903    2    3    3    0    0 -0.55427312973E-01 -0.63715202170E-01 -0.10715375425E+00  0.14362113707E+00  0.44869699726E-01 0.  0.
         14    1    1    2    0    0  0.76575198104E-02  0.49343816055E-03  0.81907152870E-02  0.11223587117E-01  0.00000000000E+00 0. -1.
     999901    1    3    3    0    0  0.47769793162E-01  0.63221764009E-01  0.98963038961E-01  0.88908527581E+00  0.88000000000E+00 0.  1.
        -11    1    4    4    0    0 -0.13859088533E-01  0.54700474450E-02 -0.16055694729E-01  0.21909865546E-01  0.51100000000E-03 0. -1.
         11    1    4    4    0    0 -0.41568224440E-01 -0.69185249615E-01 -0.91098059519E-01  0.12171127153E+00  0.51100000000E-03 0.  1.
</event>
<event>
 8    1  0.2025822E+004  0.1043930E+01  0.7957747E-01            NaN
         13   -1    0    0    0    0  0.00000000000E+00  0.00000000000E+00  0.74505805969E-08  0.10566000000E+00  0.10566000000E+00 0.  1.
     999900   -1    0    0    0    0 -0.00000000000E+00 -0.00000000000E+00 -0.74505805969E-08  0.93827000000E+00  0.93827000000E+00 0.  1.
     999902    2    1    2    0    0 -0.25759924622E-02 -0.12112347156E-01  0.15169636716E-02  0.10314541886E+01  0.10313787361E+01 0.  0.
     999903    2    3    3    0    0  0.10623800584E+00 -0.89840705032E-02  0.80691441129E-01  0.14121889937E+00  0.45436125070E-01 0.  0.
         14    1    1    2    0    0  0.25759924622E-02  0.12112347156E-01 -0.15169636716E-02  0.12475811379E-01  0.00000000000E+00 0.  1.
     999901    1    3    3    0    0 -0.10881399830E+00 -0.31282766523E-02 -0.79174477458E-01  0.89023528925E+00  0.88000000000E+00 0.  1.
        -11    1    4    4    0    0  0.60780428038E-01 -0.17694676370E-01  0.23230567144E-01  0.67433540432E-01  0.51100000000E-03 0. -1.
         11    1    4    4    0    0  0.45457577800E-01  0.87106058664E-02  0.57460873985E-01  0.73785358942E-01  0.51100000000E-03 0.  1.
</event>
<event>
 8    1  0.2025822E+004  0.1043930E+01  0.7957747E-01            NaN
         13   -1    0    0    0    0  0.00000000000E+00  0.00000000000E+00  0.74505805969E-08  0.10566000000E+00  0.10566000000E+00 0.  1.
     999900   -1    0    0    0    0 -0.00000000000E+00 -0.00000000000E+00 -0.74505805969E-08  0.93827000000E+00  0.93827000000E+00 0.  1.
     999902    2    1    2    0    0 -0.75011189973E-02 -0.11744628176E-01 -0.13035175384E-02  0.10299334920E+01  0.10298383833E+01 0.  0.
     999903    2    3    3    0    0 -0.63281677936E-02 -0.79349175119E-02  0.13196946539E+00  0.13988991013E+00  0.45279559811E-01 0.  0.
         14    1    1    2    0    0  0.75011189973E-02  0.11744628176E-01  0.13035175384E-02  0.13996507964E-01  0.00000000000E+00 0. -1.
     999901    1    3    3    0    0 -0.11729512037E-02 -0.38097106645E-02 -0.13327298293E+00  0.89004358190E+00  0.88000000000E+00 0.  1.
        -11    1    4    4    0    0 -0.16995070542E-01 -0.20944595862E-01  0.57102841768E-01  0.63154605355E-01  0.51100000000E-03 0.  1.
         11    1    4    4    0    0  0.10666902749E-01  0.13009678350E-01  0.74866623626E-01  0.76735304776E-01  0.51100000000E-03 0. -1.
</event>
<event>
 8    1  0.2025822E+004  0.1043930E+01  0.7957747E-01            NaN
         13   -1    0    0    0    0  0.00000000000E+00  0.00000000000E+00  0.74505805969E-08  0.10566000000E+00  0.10566000000E+00 0.  1.
     999900   -1    0    0    0    0 -0.00000000000E+00 -0.00000000000E+00 -0.74505805969E-08  0.93827000000E+00  0.93827000000E+00 0.  1.
     999902    2    1    2    0    0  0.89547572407E-02 -0.11828671154E-01  0.17241727952E-02  0.10289942071E+01  0.10288858053E+01 0.  0.
     999903    2    3    3    0    0 -0.72888897100E-01 -0.94230827572E-01 -0.56769771784E-01  0.13943811514E+00  0.45032663490E-01 0.  0.
         14    1    1    2    0    0 -0.89547572407E-02  0.11828671154E-01 -0.17241727952E-02  0.14935792927E-01  0.00000000000E+00 0. -1.
     999901    1    3    3    0    0  0.81843654340E-01  0.82402156417E-01  0.58493944579E-01  0.88955609193E+00  0.88000000000E+00 0. -1.
        -11    1    4    4    0    0 -0.46859484778E-01 -0.29134980266E-01 -0.37540752287E-01  0.66739999940E-01  0.51100000000E-03 0.  1.
         11    1    4    4    0    0 -0.26029412321E-01 -0.65095847305E-01 -0.19229019497E-01  0.72698115203E-01  0.51100000000E-03 0. -1.
</event>
<event>
 8    1  0.2025822E+004  0.1043930E+01  0.7957747E-01            NaN
         13   -1    0    0    0    0  0.00000000000E+00  0.00000000000E+00  0.74505805969E-08  0.10566000000E+00  0.10566000000E+00 0. -1.
     999900   -1    0    0    0    0 -0.00000000000E+00 -0.00000000000E+00 -0.74505805969E-08  0.93827000000E+00  0.93827000000E+00 0.  1.
     999902    2    1    2    0    0 -0.83576329428E-02  0.98438661633E-02 -0.48603679055E-02  0.10301323587E+01  0.10300399514E+01 0.  0.
     999903    2    3    3    0    0 -0.11103196072E+00 -0.59482248833E-01  0.42330826339E-01  0.14020250942E+00  0.44705822462E-01 0.  0.
         14    1    1    2    0    0  0.83576329428E-02 -0.98438661633E-02  0.48603679055E-02  0.13797641307E-01  0.00000000000E+00 0. -1.
     999901    1    3    3    0    0  0.10267432778E+00  0.69326114996E-01 -0.47191194245E-01  0.88992984927E+00  0.88000000000E+00 0. -1.
        -11    1    4    4    0    0 -0.93775504151E-02 -0.24280183702E-01  0.97465510793E-02  0.27797880339E-01  0.51100000000E-03 0. -1.
         11    1    4    4    0    0 -0.10165441031E+00 -0.35202065131E-01  0.32584275260E-01  0.11240462909E+00  0.51100000000E-03 0.  1.
</event>
<event>
 8    1  0.2025822E+004  0.1043930E+01  0.7957747E-01            NaN
         13   -1    0    0    0    0  0.00000000000E+00  0.00000000000E+00  0.74505805969E-08  0.10566000000E+00  0.10566000000E+00 0. -1.
     999900   -1    0    0    0    0 -0.00000000000E+00 -0.00000000000E+00 -0.74505805969E-08  0.93827000000E+00  0.93827000000E+00 0.  1.
     999902    2    1    2    0    0  0.41436558171E-02 -0.55576550926E-02  0.12162118759E-01  0.10299309091E+01  0.10298357650E+01 0.  0.
     999903    2    3    3    0    0 -0.14324572801E-01 -0.95877037779E-01  0.92032215146E-01  0.14151777397E+00  0.46473131645E-01 0.  0.
         14    1    1    2    0    0 -0.41436558171E-02  0.55576550926E-02 -0.12162118759E-01  0.13999090913E-01  0.00000000000E+00 0.  1.
     999901    1    3    3    0    0  0.18468228618E-01  0.90319382687E-01 -0.79870096386E-01  0.88841313512E+00  0.88000000000E+00 0.  1.
        -11    1    4    4    0    0 -0.18480481696E-01 -0.51147224363E-01  0.76746733955E-01  0.94063218409E-01  0.51100000000E-03 0.  1.
         11    1    4    4    0    0  0.41559088944E-02 -0.44729813417E-01  0.15285481191E-01  0.47454555558E-01  0.51100000000E-03 0. -1.
</event>
<event>
 8    1  0.2025822E+004  0.1043930E+01  0.7957747E-01            NaN
         13   -1    0    0    0    0  0.00000000000E+00  0.00000000000E+00  0.74505805969E-08  0.10566000000E+00  0.10566000000E+00 0. -1.
     999900   -1    0    0    0    0 -0.00000000000E+00 -0.00000000000E+00 -0.74505805969E-08  0.93827000000E+00  0.93827000000E+00 0. -1.
     999902    2    1    2    0    0 -0.10766263597E-01 -0.72894978030E-03  0.79463336293E-02  0.10305289546E+01  0.10304418170E+01 0.  0.
     999903    2    3    3    0    0  0.12486085663E+00  0.31754002021E-01  0.25863872694E-01  0.13936628926E+00  0.46427066529E-01 0.  0.
         14    1    1    2    0    0  0.10766263597E-01  0.72894978030E-03 -0.79463336293E-02  0.13401045398E-01  0.00000000000E+00 0. -1.
     999901    1    3    3    0    0 -0.13562712023E+00 -0.32482951801E-01 -0.17917539065E-01  0.89116266535E+00  0.88000000000E+00 0. -1.
        -11    1    4    4    0    0  0.68041171388E-01  0.42179732941E-02 -0.63725502057E-02  0.68470890309E-01  0.51100000000E-03 0.  1.
         11    1    4    4    0    0  0.56819685246E-01  0.27536028727E-01  0.32236422900E-01  0.70895398947E-01  0.51100000000E-03 0. -1.
</event>
<event>
 8    1  0.2025822E+004  0.1043930E+01  0.7957747E-01            NaN
         13   -1    0    0    0    0  0.00000000000E+00  0.00000000000E+00  0.74505805969E-08  0.10566000000E+00  0.10566000000E+00 0. -1.
     999900   -1    0    0    0    0 -0.00000000000E+00 -0.00000000000E+00 -0.74505805969E-08  0.93827000000E+00  0.93827000000E+00 0.  1.
     999902    2    1    2    0    0  0.13052450815E-01  0.53649537488E-02  0.46329154241E-02  0.10290769496E+01  0.10289697542E+01 0.  0.
     999903    2    3    3    0    0 -0.64866633846E-01 -0.44664256650E-02  0.11666703622E+00  0.13850427766E+00  0.36668902950E-01 0.  0.
         14    1    1    2    0    0 -0.13052450815E-01 -0.53649537488E-02 -0.46329154241E-02  0.14853050405E-01  0.00000000000E+00 0.  1.
     999901    1    3    3    0    0  0.77919084661E-01  0.98313794138E-02 -0.11203412080E+00  0.89057267194E+00  0.88000000000E+00 0.  1.
        -11    1    4    4    0    0  0.32012407017E-02  0.32199749367E-02  0.16733911959E-01  0.17346501407E-01  0.51100000000E-03 0. -1.
         11    1    4    4    0    0 -0.68067874547E-01 -0.76864006016E-02  0.99933124266E-01  0.12115777625E+00  0.51100000000E-03 0.  1.
</event>
<event>
 8    1  0.2025822E+004  0.1043930E+01  0.7957747E-01            NaN
         13   -1    0    0    0    0  0.00000000000E+00  0.00000000000E+00  0.74505805969E-08  0.10566000000E+00  0.10566000000E+00 0.  1.
     999900   -1    0    0    0    0 -0.00000000000E+00 -0.00000000000E+00 -0.74505805969E-08  0.93827000000E+00  0.93827000000E+00 0.  1.
     999902    2    1    2    0    0  0.43460613430E-02  0.75124462478E-02 -0.48634883631E-02  0.10339812002E+01  0.10339333363E+01 0.  0.
     999903    2    3    3    0    0 -0.11086141101E-01  0.12623360057E+00 -0.52688346764E-01  0.14458810242E+00  0.45517392698E-01 0.  0.
         14    1    1    2    0    0 -0.43460613430E-02 -0.75124462478E-02  0.48634883631E-02  0.99487997709E-02  0.00000000000E+00 0.  1.
     999901    1    3    3    0    0  0.15432202444E-01 -0.11872115432E+00  0.47824858401E-01  0.88939309781E+00  0.88000000000E+00 0. -1.
        -11    1    4    4    0    0 -0.27744261462E-01  0.57471581186E-01 -0.27374924172E-01  0.69443317047E-01  0.51100000000E-03 0.  1.
         11    1    4    4    0    0  0.16658120361E-01  0.68762019385E-01 -0.25313422592E-01  0.75144785369E-01  0.51100000000E-03 0. -1.
</event>
<event>
 8    1  0.2025822E+004  0.1043930E+01  0.7957747E-01            NaN
         13   -1    0    0    0    0  0.00000000000E+00  0.00000000000E+00  0.74505805969E-08  0.10566000000E+00  0.10566000000E+00 0.  1.
     999900   -1    0    0    0    0 -0.00000000000E+00 -0.00000000000E+00 -0.74505805969E-08  0.93827000000E+00  0.93827000000E+00 0. -1.
     999902    2    1    2    0    0  0.76402344369E-02  0.10829302312E-01  0.23365051007E-02  0.10304724286E+01  0.10303845496E+01 0.  0.
     999903    2    3    3    0    0 -0.12853521962E+00  0.34636755341E-01 -0.25441616117E-01  0.13924733186E+00  0.31961478334E-01 0.  0.
         14    1    1    2    0    0 -0.76402344369E-02 -0.10829302312E-01 -0.23365051007E-02  0.13457571360E-01  0.00000000000E+00 0. -1.
     999901    1    3    3    0    0  0.13617545406E+00 -0.23807453029E-01  0.27778121218E-01  0.89122509678E+00  0.88000000000E+00 0.  1.
        -11    1    4    4    0    0 -0.56936398936E-01  0.24162678187E-01  0.19231126784E-02  0.61883342059E-01  0.51100000000E-03 0.  1.
         11    1    4    4    0    0 -0.71598820682E-01  0.10474077154E-01 -0.27364728795E-01  0.77363989804E-01  0.51100000000E-03 0. -1.
</event>
<event>
 8    1  0.2025822E+004  0.1043930E+01  0.7957747E-01            NaN
         13   -1    0    0    0    0  0.00000000000E+00  0.00000000000E+00  0.74505805969E-08  0.10566000000E+00  0.10566000000E+00 0. -1.
     999900   -1    0    0    0    0 -0.00000000000E+00 -0.00000000000E+00 -0.74505805969E-08  0.93827000000E+00  0.93827000000E+00 0.  1.
     999902    2    1    2    0    0  0.12983709474E-02  0.77786774881E-02 -0.12057585775E-01  0.10295223990E+01  0.10294215809E+01 0.  0.
     999903    2    3    3    0    0  0.35726227095E-01  0.65562220902E-01  0.10799278665E+00  0.13882811530E+00  0.45122450264E-01 0.  0.
         14    1    1    2    0    0 -0.12983709474E-02 -0.77786774881E-02  0.12057585775E-01  0.14407600956E-01  0.00000000000E+00 0. -1.
     999901    1    3    3    0    0 -0.34427856148E-01 -0.57783543413E-01 -0.12005037243E+00  0.89069428374E+00  0.88000000000E+00 0.  1.
        -11    1    4    4    0    0  0.15700709757E-01  0.34891104035E-01  0.19275812678E-01  0.42845297327E-01  0.51100000000E-03 0. -1.
         11    1    4    4    0    0  0.20025517338E-01  0.30671116866E-01  0.88716973975E-01  0.95982817976E-01  0.51100000000E-03 0.  1.
</event>
<event>
 8    1  0.2025822E+004  0.1043930E+01  0.7957747E-01            NaN
         13   -1    0    0    0    0  0.00000000000E+00  0.00000000000E+00  0.74505805969E-08  0.10566000000E+00  0.10566000000E+00 0. -1.
     999900   -1    0    0    0    0 -0.00000000000E+00 -0.00000000000E+00 -0.74505805969E-08  0.93827000000E+00  0.93827000000E+00 0.  1.
     999902    2    1    2    0    0  0.66297021597E-02 -0.92857422704E-02  0.72356676113E-02  0.10304195283E+01  0.10303309524E+01 0.  0.
     999903    2    3    3    0    0  0.52772195280E-01  0.48480847374E-01 -0.11084707909E+00  0.13945957204E+00  0.45017775769E-01 0.  0.
         14    1    1    2    0    0 -0.66297021597E-02  0.92857422704E-02 -0.72356676113E-02  0.13510471717E-01  0.00000000000E+00 0.  1.
     999901    1    3    3    0    0 -0.46142493120E-01 -0.57766589645E-01  0.11808274670E+00  0.89095995624E+00  0.88000000000E+00 0. -1.
        -11    1    4    4    0    0  0.17218394524E-01  0.33323956143E-02 -0.60708269016E-01  0.63192824106E-01  0.51100000000E-03 0. -1.
         11    1    4    4    0    0  0.35553800756E-01  0.45148451760E-01 -0.50138810074E-01  0.76266747939E-01  0.51100000000E-03 0.  1.
</event>
<event>
 8    1  0.2025822E+004  0.1043930E+01  0.7957747E-01            NaN
         13   -1    0    0    0    0  0.00000000000E+00  0.00000000000E+00  0.74505805969E-08  0.10566000000E+00  0.10566000000E+00 0. -1.
     999900   -1    0    0    0    0 -0.00000000000E+00 -0.00000000000E+00 -0.74505805969E-08  0.93827000000E+00  0.93827000000E+00 0. -1.
     999902    2    1    2    0    0 -0.86612654346E-02 -0.60950774972E-02  0.28615471487E-02  0.10329593145E+01  0.10329010550E+01 0.  0.
     999903    2    3    3    0    0  0.34871891845E-01  0.51507512394E-01  0.11983908499E+00  0.14228713096E+00  0.44890407335E-01 0.  0.
         14    1    1    2    0    0  0.86612654346E-02  0.60950774972E-02 -0.28615471487E-02  0.10970685517E-01  0.00000000000E+00 0.  1.
     999901    1    3    3    0    0 -0.43533157279E-01 -0.57602589891E-01 -0.11697753784E+00  0.89067218352E+00  0.88000000000E+00 0. -1.
        -11    1    4    4    0    0  0.41664972092E-01  0.25993584873E-01  0.65455795967E-01  0.81831281920E-01  0.51100000000E-03 0.  1.
         11    1    4    4    0    0 -0.67930802466E-02  0.25513927520E-01  0.54383289025E-01  0.60455849038E-01  0.51100000000E-03 0. -1.
</event>
<event>
 8    1  0.2025822E+004  0.1043930E+01  0.7957747E-01            NaN
         13   -1    0    0    0    0  0.00000000000E+00  0.00000000000E+00  0.74505805969E-08  0.10566000000E+00  0.10566000000E+00 0.  1.
     999900   -1    0    0    0    0 -0.00000000000E+00 -0.00000000000E+00 -0.74505805969E-08  0.93827000000E+00  0.93827000000E+00 0. -1.
     999902    2    1    2    0    0 -0.50978802858E-02 -0.41342953706E-02 -0.12179462838E-01  0.10300945348E+01  0.10300016168E+01 0.  0.
     999903    2    3    3    0    0  0.56659172286E-01 -0.94941548097E-01  0.71630627910E-01  0.13931733372E+00  0.45323429497E-01 0.  0.
         14    1    1    2    0    0  0.50978802858E-02  0.41342953706E-02  0.12179462838E-01  0.13835465176E-01  0.00000000000E+00 0.  1.
     999901    1    3    3    0    0 -0.61757052572E-01  0.90807252727E-01 -0.83810090749E-01  0.89077720110E+00  0.88000000000E+00 0. -1.
        -11    1    4    4    0    0  0.11538723759E-01 -0.52055097756E-01  0.15582709705E-01  0.55551393422E-01  0.51100000000E-03 0. -1.
         11    1    4    4    0    0  0.45120448528E-01 -0.42886450341E-01  0.56047918206E-01  0.83765940300E-01  0.51100000000E-03 0.  1.
</event>
<event>
 8    1  0.2025822E+004  0.1043930E+01  0.7957747E-01            NaN
         13   -1    0    0    0    0  0.00000000000E+00  0.00000000000E+00  0.74505805969E-08  0.10566000000E+00  0.10566000000E+00 0.  1.
     999900   -1    0    0    0    0 -0.00000000000E+00 -0.00000000000E+00 -0.74505805969E-08  0.93827000000E+00  0.93827000000E+00 0.  1.
     999902    2    1    2    0    0  0.22323875683E-02 -0.12004990652E-01 -0.49440932766E-02  0.10307562605E+01  0.10306720725E+01 0.  0.
     999903    2    3    3    0    0  0.12086888918E-01 -0.10461104337E+00 -0.86541616698E-01  0.14208807266E+00  0.40124876253E-01 0.  0.
         14    1    1    2    0    0 -0.22323875683E-02  0.12004990652E-01  0.49440932766E-02  0.13173739528E-01  0.00000000000E+00 0.  1.
     999901    1    3    3    0    0 -0.98545013494E-02  0.92606052714E-01  0.81597523421E-01  0.88866818781E+00  0.88000000000E+00 0. -1.
        -11    1    4    4    0    0  0.22421811385E-01 -0.60964841937E-01 -0.66487664409E-01  0.92953322790E-01  0.51100000000E-03 0. -1.
         11    1    4    4    0    0 -0.10334922467E-01 -0.43646201429E-01 -0.20053952289E-01  0.49134749872E-01  0.51100000000E-03 0.  1.
</event>
<event>
 8    1  0.2025822E+004  0.1043930E+01  0.7957747E-01            NaN
         13   -1    0    0    0    0  0.00000000000E+00  0.00000000000E+00  0.74505805969E-08  0.10566000000E+00  0.10566000000E+00 0.  1.
     999900   -1    0    0    0    0 -0.00000000000E+00 -0.00000000000E+00 -0.74505805969E-08  0.93827000000E+00  0.93827000000E+00 0. -1.
     999902    2    1    2    0    0 -0.13363763644E-01  0.13183921747E-02 -0.21215306880E-02  0.10303348086E+01  0.10302451109E+01 0.  0.
     999903    2    3    3    0    0  0.32247456205E-01 -0.89747004671E-01  0.92149943702E-01  0.13945861027E+00  0.43158644256E-01 0.  0.
         14    1    1    2    0    0  0.13363763644E-01 -0.13183921747E-02  0.21215306880E-02  0.13595191397E-01  0.00000000000E+00 0. -1.
     999901    1    3    3    0    0 -0.45611219849E-01  0.91065396846E-01 -0.94271474390E-01  0.89087619834E+00  0.88000000000E+00 0. -1.
        -11    1    4    4    0    0  0.40123737271E-01 -0.51267777677E-01  0.62449852828E-01  0.90213882301E-01  0.51100000000E-03 0. -1.
         11    1    4    4    0    0 -0.78762810658E-02 -0.38479226993E-01  0.29700090874E-01  0.49244727965E-01  0.51100000000E-03 0.  1.
</event>
<event>
 8    1  0.2025822E+004  0.1043930E+01  0.7957747E-01            NaN
         13   -1    0    0    0    0  0.00000000000E+00  0.00000000000E+00  0.74505805969E-08  0.10566000000E+00  0.10566000000E+00 0. -1.
     999900   -1    0    0    0    0 -0.00000000000E+00 -0.00000000000E+00 -0.74505805969E-08  0.93827000000E+00  0.93827000000E+00 0. -1.
     999902    2    1    2    0    0 -0.89417259736E-02  0.67989190343E-02 -0.50837041358E-02  0.10316002064E+01  0.10315265202E+01 0.  0.
     999903    2    3    3    0    0  0.98838390666E-03  0.11603578196E+00  0.67868388717E-01  0.14179499894E+00  0.45104588889E-01 0.  0.
         14    1    1    2    0    0  0.89417259736E-02 -0.67989190343E-02  0.50837041358E-02  0.12329793638E-01  0.00000000000E+00 0.  1.
     999901    1    3    3    0    0 -0.99301098803E-02 -0.10923686293E+00 -0.72952092853E-01  0.88980520742E+00  0.88000000000E+00 0. -1.
        -11    1    4    4    0    0 -0.42537021881E-02  0.94928612689E-01  0.32799547603E-01  0.10052664788E+00  0.51100000000E-03 0.  1.
         11    1    4    4    0    0  0.52420860948E-02  0.21107169273E-01  0.35068841114E-01  0.41268351062E-01  0.51100000000E-03 0. -1.
</event>
<event>
 8    1  0.2025822E+004  0.1043930E+01  0.7957747E-01            NaN
         13   -1    0    0    0    0  0.00000000000E+00  0.00000000000E+00  0.74505805969E-08  0.10566000000E+00  0.10566000000E+00 0. -1.
     999900   -1    0    0    0    0 -0.00000000000E+00 -0.00000000000E+00 -0.74505805969E-08  0.93827000000E+00  0.93827000000E+00 0. -1.
     999902    2    1    2    0    0 -0.81992945502E-02  0.14684043131E-02 -0.97680268782E-02  0.10310925941E+01  0.10310126762E+01 0.  0.
     999903    2    3    3    0    0 -0.13105495535E+00 -0.27724315100E-01 -0.15050340128E-01  0.14206299326E+00  0.44847991534E-01 0.  0.
         14    1    1    2    0    0  0.81992945502E-02 -0.14684043131E-02  0.97680268782E-02  0.12837405947E-01  0.00000000000E+00 0. -1.
     999901    1    3    3    0    0  0.12285566080E+00  0.29192719413E-01  0.52823132501E-02  0.88902960080E+00  0.88000000000E+00 0. -1.
        -11    1    4    4    0    0 -0.77863071877E-01  0.52067336152E-02 -0.15173921756E-01  0.79500170185E-01  0.51100000000E-03 0. -1.
         11    1    4    4    0    0 -0.53191883477E-01 -0.32931048715E-01  0.12358162744E-03  0.62562823072E-01  0.51100000000E-03 0.  1.
</event>
<event>
 8    1  0.2860883E+004  0.1043930E+01  0.7957747E-01            NaN
         13   -1    0    0    0    0  0.00000000000E+00  0.00000000000E+00  0.74505805969E-08  0.10566000000E+00  0.10566000000E+00 0. -1.
     999900   -1    0    0    0    0 -0.00000000000E+00 -0.00000000000E+00 -0.74505805969E-08  0.93827000000E+00  0.93827000000E+00 0. -1.
     999902    2    1    2    0    0 -0.98481819023E-02  0.74589572533E-02 -0.90231758115E-02  0.10286316200E+01  0.10285178507E+01 0.  0.
     999903    2    3    3    0    0  0.71298135248E-01  0.50599946705E-01 -0.99064832488E-01  0.13927602758E+00  0.44047612045E-01 0.  0.
         14    1    1    2    0    0  0.98481819023E-02 -0.74589572533E-02  0.90231758115E-02  0.15298380039E-01  0.00000000000E+00 0.  1.
     999901    1    3    3    0    0 -0.81146317150E-01 -0.43140989451E-01  0.90041656677E-01  0.88935559238E+00  0.88000000000E+00 0.  1.
        -11    1    4    4    0    0  0.48005062352E-01  0.22336041781E-01 -0.29388756145E-01  0.60558607007E-01  0.51100000000E-03 0.  1.
         11    1    4    4    0    0  0.23293072896E-01  0.28263904924E-01 -0.69676076343E-01  0.78717420576E-01  0.51100000000E-03 0. -1.
</event>
<event>
 8    1  0.2025822E+004  0.1043930E+01  0.7957747E-01            NaN
         13   -1    0    0    0    0  0.00000000000E+00  0.00000000000E+00  0.74505805969E-08  0.10566000000E+00  0.10566000000E+00 0.  1.
     999900   -1    0    0    0    0 -0.00000000000E+00 -0.00000000000E+00 -0.74505805969E-08  0.93827000000E+00  0.93827000000E+00 0. -1.
     999902    2    1    2    0    0  0.13805958615E-01  0.43870084132E-02 -0.94664345317E-03  0.10294128904E+01  0.10293105229E+01 0.  0.
     999903    2    3    3    0    0 -0.59491441344E-01 -0.89226832395E-01  0.73578527990E-01  0.13829557986E+00  0.47023487924E-01 0.  0.
         14    1    1    2    0    0 -0.13805958615E-01 -0.43870084132E-02  0.94664345317E-03  0.14517109558E-01  0.00000000000E+00 0.  1.
     999901    1    3    3    0    0  0.73297399959E-01  0.93613840808E-01 -0.74525171443E-01  0.89111731058E+00  0.88000000000E+00 0. -1.
        -11    1    4    4    0    0 -0.11956317691E-01  0.31363600437E-02  0.13429303852E-01  0.18259178787E-01  0.51100000000E-03 0.  1.
         11    1    4    4    0    0 -0.47535123654E-01 -0.92363192439E-01  0.60149224138E-01  0.12003640108E+00  0.51100000000E-03 0. -1.
</event>
<event>
 8    1  0.2025822E+004  0.1043930E+01  0.7957747E-01            NaN
         13   -1    0    0    0    0  0.00000000000E+00  0.00000000000E+00  0.74505805969E-08  0.10566000000E+00  0.10566000000E+00 0. -1.
     999900   -1    0    0    0    0 -0.00000000000E+00 -0.00000000000E+00 -0.74505805969E-08  0.93827000000E+00  0.93827000000E+00 0. -1.
     999902    2    1    2    0    0 -0.14668862069E-01  0.13910112529E-02 -0.27909950598E-02  0.10289333310E+01  0.10288240373E+01 0.  0.
     999903    2    3    3    0    0 -0.13947426966E-01 -0.62154932301E-01 -0.11515515595E+00  0.13951536851E+00  0.46325606077E-01 0.  0.
         14    1    1    2    0    0  0.14668862069E-01 -0.13910112529E-02  0.27909950598E-02  0.14996668968E-01  0.00000000000E+00 0.  1.
     999901    1    3    3    0    0 -0.72143510266E-03  0.63545943554E-01  0.11236416089E+00  0.88941796253E+00  0.88000000000E+00 0.  1.
        -11    1    4    4    0    0 -0.31016969726E-01 -0.36224334636E-01 -0.68066827129E-01  0.83112026249E-01  0.51100000000E-03 0. -1.
         11    1    4    4    0    0  0.17069542760E-01 -0.25930597665E-01 -0.47088328825E-01  0.56403342258E-01  0.51100000000E-03 0.  1.
</event>
<event>
 8    1  0.2025822E+004  0.1043930E+01  0.7957747E-01            NaN
         13   -1    0    0    0    0  0.00000000000E+00  0.00000000000E+00  0.74505805969E-08  0.10566000000E+00  0.10566000000E+00 0.  1.
     999900   -1    0    0    0    0 -0.00000000000E+00 -0.00000000000E+00 -0.74505805969E-08  0.93827000000E+00  0.93827000000E+00 0.  1.
     999902    2    1    2    0    0  0.83016564390E-03  0.14184860691E-01 -0.40685627516E-02  0.10291498562E+01  0.10290437182E+01 0.  0.
     999903    2    3    3    0    0  0.65062712811E-01 -0.79676419759E-02 -0.11235210505E+00  0.13991317285E+00  0.51536981980E-01 0.  0.
         14    1    1    2    0    0 -0.83016564390E-03 -0.14184860691E-01  0.40685627516E-02  0.14780143797E-01  0.00000000000E+00 0. -1.
     999901    1    3    3    0    0 -0.64232547167E-01  0.22152502666E-01  0.10828354229E+00  0.88923668335E+00  0.88000000000E+00 0. -1.
        -11    1    4    4    0    0  0.45303320965E-01 -0.29002784923E-01 -0.81603291061E-01  0.97738992509E-01  0.51100000000E-03 0.  1.
         11    1    4    4    0    0  0.19759391846E-01  0.21035142947E-01 -0.30748813985E-01  0.42174180340E-01  0.51100000000E-03 0. -1.
</event>
<event>
 7    1  0.2025822E+004  0.1043930E+01  0.7957747E-01            NaN
         13   -1    0    0    0    0  0.00000000000E+00  0.00000000000E+00  0.74505805969E-08  0.10566000000E+00  0.10566000000E+00 0.  1.
     999900   -1    0    0    0    0 -0.00000000000E+00 -0.00000000000E+00 -0.74505805969E-08  0.93827000000E+00  0.93827000000E+00 0.  1.
     999903    2    1    2    0    0  0.97227679773E-01  0.14965906125E-01  0.15997108831E-02  0.10837829403E+00  0.45454323032E-01 0.  0.
         14    1    1    2    0    0 -0.26748885815E-01  0.27574096955E-01  0.33559513625E-01  0.51010534892E-01  0.00000000000E+00 0.  1.
     999901    1    1    2    0    0 -0.70478793957E-01 -0.42540003080E-01 -0.35159224508E-01  0.88454117108E+00  0.88000000000E+00 0.  1.
        -11    1    3    3    0    0  0.44632366231E-01  0.25490270110E-01 -0.12533964070E-01  0.52907120144E-01  0.51100000000E-03 0.  1.
         11    1    3    3    0    0  0.52595313542E-01 -0.10524363985E-01  0.14133674953E-01  0.55471173888E-01  0.51100000000E-03 0. -1.
</event>
<event>
 8    1  0.2025822E+004  0.1043930E+01  0.7957747E-01            NaN
         13   -1    0    0    0    0  0.00000000000E+00  0.00000000000E+00  0.74505805969E-08  0.10566000000E+00  0.10566000000E+00 0.  1.
     999900   -1    0    0    0    0 -0.00000000000E+00 -0.00000000000E+00 -0.74505805969E-08  0.93827000000E+00  0.93827000000E+00 0. -1.
     999902    2    1    2    0    0 -0.42967472662E-02  0.68004354965E-02  0.11978349148E-01  0.10295012506E+01  0.10294001342E+01 0.  0.
     999903    2    3    3    0    0 -0.45943283609E-02 -0.71269106455E-01  0.11190819300E+00  0.14041131388E+00  0.45732920495E-01 0.  0.
         14    1    1    2    0    0  0.42967472662E-02 -0.68004354965E-02 -0.11978349148E-01  0.14428749368E-01  0.00000000000E+00 0. -1.
     999901    1    3    3    0    0  0.29758109472E-03  0.78069541951E-01 -0.99929843856E-01  0.88908993675E+00  0.88000000000E+00 0. -1.
        -11    1    4    4    0    0 -0.62935690442E-02 -0.25748761031E-01  0.81338401774E-01  0.85550011281E-01  0.51100000000E-03 0. -1.
         11    1    4    4    0    0  0.16992406833E-02 -0.45520345424E-01  0.30569791230E-01  0.54861302602E-01  0.51100000000E-03 0.  1.
</event>
<event>
 8    1  0.2025822E+004  0.1043930E+01  0.7957747E-01            NaN
         13   -1    0    0    0    0  0.00000000000E+00  0.00000000000E+00  0.74505805969E-08  0.10566000000E+00  0.10566000000E+00 0. -1.
     999900   -1    0    0    0    0 -0.00000000000E+00 -0.00000000000E+00 -0.74505805969E-08  0.93827000000E+00  0.93827000000E+00 0.  1.
     999902    2    1    2    0    0  0.11751706174E-04  0.34763304113E-02  0.12603820945E-01  0.10308555473E+01  0.10307726316E+01 0.  0.
     999903    2    3    3    0    0  0.53662225134E-02  0.15076155297E-01 -0.13056107832E+00  0.13919450481E+00  0.45528322998E-01 0.  0.
         14    1    1    2    0    0 -0.11751706174E-04 -0.34763304113E-02 -0.12603820945E-01  0.13074452709E-01  0.00000000000E+00 0.  1.
     999901    1    3    3    0    0 -0.53544708073E-02 -0.11599824885E-01  0.14316489926E+00  0.89166104248E+00  0.88000000000E+00 0. -1.
        -11    1    4    4    0    0  0.25513340001E-01  0.64382096894E-02 -0.69549420854E-01  0.74362383798E-01  0.51100000000E-03 0.  1.
         11    1    4    4    0    0 -0.20147117487E-01  0.86379456073E-02 -0.61011657465E-01  0.64832121013E-01  0.51100000000E-03 0. -1.
</event>
<event>
 8    1  0.2025822E+004  0.1043930E+01  0.7957747E-01            NaN
         13   -1    0    0    0    0  0.00000000000E+00  0.00000000000E+00  0.74505805969E-08  0.10566000000E+00  0.10566000000E+00 0.  1.
     999900   -1    0    0    0    0 -0.00000000000E+00 -0.00000000000E+00 -0.74505805969E-08  0.93827000000E+00  0.93827000000E+00 0. -1.
     999902    2    1    2    0    0 -0.11284638188E-01 -0.13719403125E-01  0.16649349061E-02  0.10260879965E+01  0.10259328630E+01 0.  0.
     999903    2    3    3    0    0  0.11321508902E+00 -0.13142957322E-01 -0.55602851498E-01  0.13548139774E+00  0.47677440487E-01 0.  0.
         14    1    1    2    0    0  0.11284638188E-01  0.13719403125E-01 -0.16649349061E-02  0.17842003513E-01  0.00000000000E+00 0. -1.
     999901    1    3    3    0    0 -0.12449972721E+00 -0.57644580299E-03  0.57267786404E-01  0.89060659874E+00  0.88000000000E+00 0.  1.
        -11    1    4    4    0    0  0.90937391054E-01  0.47883351651E-02 -0.26886487421E-01  0.94950942977E-01  0.51100000000E-03 0. -1.
         11    1    4    4    0    0  0.22277697965E-01 -0.17931292487E-01 -0.28716364077E-01  0.40530454768E-01  0.51100000000E-03 0.  1.
</event>
<event>
 8    1  0.2025822E+004  0.1043930E+01  0.7957747E-01            NaN
         13   -1    0    0    0    0  0.00000000000E+00  0.00000000000E+00  0.74505805969E-08  0.10566000000E+00  0.10566000000E+00 0. -1.
     999900   -1    0    0    0    0 -0.00000000000E+00 -0.00000000000E+00 -0.74505805969E-08  0.93827000000E+00  0.93827000000E+00 0. -1.
     999902    2    1    2    0    0 -0.14513778474E-02 -0.10775778641E-01  0.82700631561E-02  0.10302691857E+01  0.10301786142E+01 0.  0.
     999903    2    3    3    0    0 -0.66621003432E-01 -0.10941058876E+00 -0.40459051826E-01  0.14102769289E+00  0.42928315317E-01 0.  0.
         14    1    1    2    0    0  0.14513778474E-02  0.10775778641E-01 -0.82700631561E-02  0.13660814309E-01  0.00000000000E+00 0.  1.
     999901    1    3    3    0    0  0.65169625585E-01  0.98634810124E-01  0.48729114982E-01  0.88924149280E+00  0.88000000000E+00 0.  1.
        -11    1    4    4    0    0 -0.17611714510E-01 -0.70069112953E-01 -0.21406281191E-01  0.75354781358E-01  0.51100000000E-03 0.  1.
         11    1    4    4    0    0 -0.49009288922E-01 -0.39341475811E-01 -0.19052770635E-01  0.65672911535E-01  0.51100000000E-03 0. -1.
</event>
<event>
 8    1  0.2025822E+004  0.1043930E+01  0.7957747E-01            NaN
         13   -1    0    0    0    0  0.00000000000E+00  0.00000000000E+00  0.74505805969E-08  0.10566000000E+00  0.10566000000E+00 0. -1.
     999900   -1    0    0    0    0 -0.00000000000E+00 -0.00000000000E+00 -0.74505805969E-08  0.93827000000E+00  0.93827000000E+00 0. -1.
     999902    2    1    2    0    0 -0.25567934021E-02  0.47123386369E-02 -0.11891599827E-01  0.10308857110E+01  0.10308031799E+01 0.  0.
     999903    2    3    3    0    0 -0.39880803741E-02 -0.12192157083E+00  0.50536359345E-01  0.13963072750E+00  0.45409715107E-01 0.  0.
         14    1    1    2    0    0  0.25567934021E-02 -0.47123386369E-02  0.11891599827E-01  0.13044288956E-01  0.00000000000E+00 0. -1.
     999901    1    3    3    0    0  0.14312869720E-02  0.12663390947E+00 -0.62427959172E-01  0.89125498355E+00  0.88000000000E+00 0.  1.
        -11    1    4    4    0    0  0.19501198189E-01 -0.37304009695E-01  0.20449942211E-01  0.46801144511E-01  0.51100000000E-03 0. -1.
         11    1    4    4    0    0 -0.23489278563E-01 -0.84617561139E-01  0.30086417134E-01  0.92829582986E-01  0.51100000000E-03 0.  1.
</event>
<event>
 8    1  0.2025822E+004  0.1043930E+01  0.7957747E-01            NaN
         13   -1    0    0    0    0  0.00000000000E+00  0.00000000000E+00  0.74505805969E-08  0.10566000000E+00  0.10566000000E+00 0.  1.
     999900   -1    0    0    0    0 -0.00000000000E+00 -0.00000000000E+00 -0.74505805969E-08  0.93827000000E+00  0.93827000000E+00 0.  1.
     999902    2    1    2    0    0  0.37685067608E-02 -0.12847374003E-01 -0.30241049761E-02  0.10302040438E+01  0.10301126007E+01 0.  0.
     999903    2    3    3    0    0 -0.81131157579E-01 -0.85641814026E-01 -0.66076816536E-01  0.14088822369E+00  0.39579803590E-01 0.  0.
         14    1    1    2    0    0 -0.37685067608E-02  0.12847374003E-01  0.30241049761E-02  0.13725956174E-01  0.00000000000E+00 0.  1.
     999901    1    3    3    0    0  0.84899664339E-01  0.72794440023E-01  0.63052711560E-01  0.88931582013E+00  0.88000000000E+00 0. -1.
        -11    1    4    4    0    0 -0.20000702792E-01 -0.16910355385E-02 -0.15564658460E-01  0.25404870150E-01  0.51100000000E-03 0.  1.
         11    1    4    4    0    0 -0.61130454787E-01 -0.83950778488E-01 -0.50512158076E-01  0.11548335354E+00  0.51100000000E-03 0. -1.
</event>
<event>
 8    1  0.2025822E+004  0.1043930E+01  0.7957747E-01            NaN
         13   -1    0    0    0    0  0.00000000000E+00  0.00000000000E+00  0.74505805969E-08  0.10566000000E+00  0.10566000000E+00 0. -1.
     999900   -1    0    0    0    0 -0.00000000000E+00 -0.00000000000E+00 -0.74505805969E-08  0.93827000000E+00  0.93827000000E+00 0.  1.
     999902    2    1    2    0    0  0.69922076620E-02 -0.10941947549E-01 -0.43852979874E-02  0.10302242340E+01  0.10301330614E+01 0.  0.
     999903    2    3    3    0    0 -0.10145114657E+00 -0.58881431850E-01 -0.62878617728E-01  0.14034804950E+00  0.44547685387E-01 0.  0.
         14    1    1    2    0    0 -0.69922076620E-02  0.10941947549E-01  0.43852979874E-02  0.13705766035E-01  0.00000000000E+00 0. -1.
     999901    1    3    3    0    0  0.10844335423E+00  0.47939484301E-01  0.58493319740E-01  0.88987618447E+00  0.88000000000E+00 0. -1.
        -11    1    4    4    0    0 -0.49648817345E-01 -0.53435302008E-01 -0.42447197278E-01  0.84394088906E-01  0.51100000000E-03 0. -1.
         11    1    4    4    0    0 -0.51802329222E-01 -0.54461298419E-02 -0.20431420449E-01  0.55953960590E-01  0.51100000000E-03 0.  1.
</event>
<event>
 8    1  0.2025822E+004  0.1043930E+01  0.7957747E-01            NaN
         13   -1    0    0    0    0  0.00000000000E+00  0.00000000000E+00  0.74505805969E-08  0.10566000000E+00  0.10566000000E+00 0.  1.
     999900   -1    0    0    0    0 -0.00000000000E+00 -0.00000000000E+00 -0.74505805969E-08  0.93827000000E+00  0.93827000000E+00 0. -1.
     999902    2    1    2    0    0  0.21510105033E-02  0.25982422413E-02 -0.14168816055E-01  0.10293652117E+01  0.10292621659E+01 0.  0.
     999903    2    3    3    0    0  0.65786688411E-02  0.50488500875E-01  0.12013800361E+00  0.13787690399E+00  0.44548099154E-01 0.  0.
         14    1    1    2    0    0 -0.21510105033E-02 -0.25982422413E-02  0.14168816055E-01  0.14564788270E-01  0.00000000000E+00 0.  1.
     999901    1    3    3    0    0 -0.44276583378E-02 -0.47890258634E-01 -0.13430681966E+00  0.89148830774E+00  0.88000000000E+00 0. -1.
        -11    1    4    4    0    0  0.55776286734E-03  0.47377671193E-01  0.55900345451E-01  0.73280724407E-01  0.51100000000E-03 0.  1.
         11    1    4    4    0    0  0.60209059738E-02  0.31108296826E-02  0.64237658158E-01  0.64596179583E-01  0.51100000000E-03 0. -1.
</event>
<event>
 8    1  0.2025822E+004  0.1043930E+01  0.7957747E-01            NaN
         13   -1    0    0    0    0  0.00000000000E+00  0.00000000000E+00  0.74505805969E-08  0.10566000000E+00  0.10566000000E+00 0. -1.
     999900   -1    0    0    0    0 -0.00000000000E+00 -0.00000000000E+00 -0.74505805969E-08  0.93827000000E+00  0.93827000000E+00 0.  1.
     999902    2    1    2    0    0 -0.11378412641E-02 -0.64823315111E-02 -0.12638335847E-01  0.10296806899E+01  0.10295820902E+01 0.  0.
     999903    2    3    3    0    0 -0.76454419707E-02  0.12984842641E+00  0.20823017738E-01  0.13853082228E+00  0.42873348699E-01 0.  0.
         14    1    1    2    0    0  0.11378412641E-02  0.64823315111E-02  0.12638335847E-01  0.14249310073E-01  0.00000000000E+00 0. -1.
     999901    1    3    3    0    0  0.65076007066E-02 -0.13633075793E+00 -0.33461353585E-01  0.89114986765E+00  0.88000000000E+00 0. -1.
        -11    1    4    4    0    0 -0.21738145000E-01  0.51085737253E-01 -0.12224217096E-02  0.55534268110E-01  0.51100000000E-03 0. -1.
         11    1    4    4    0    0  0.14092703029E-01  0.78762689162E-01  0.22045439447E-01  0.82996554170E-01  0.51100000000E-03 0.  1.
</event>
<event>
 8    1  0.2025822E+004  0.1043930E+01  0.7957747E-01            NaN
         13   -1    0    0    0    0  0.00000000000E+00  0.00000000000E+00  0.74505805969E-08  0.10566000000E+00  0.10566000000E+00 0. -1.
     999900   -1    0    0    0    0 -0.00000000000E+00 -0.00000000000E+00 -0.74505805969E-08  0.93827000000E+00  0.93827000000E+00 0. -1.
     999902    2    1    2    0    0 -0.62873661169E-02 -0.77214735392E-02 -0.28876976017E-02  0.10335622170E+01  0.10335102155E+01 0.  0.
     999903    2    3    3    0    0  0.11717607798E+00 -0.52745387172E-02  0.66605410145E-01  0.14222698181E+00  0.45101881165E-01 0.  0.
         14    1    1    2    0    0  0.62873661169E-02  0.77214735392E-02  0.28876976017E-02  0.10367782971E-01  0.00000000000E+00 0.  1.
     999901    1    3    3    0    0 -0.12346344410E+00 -0.24469348220E-02 -0.69493107746E-01  0.89133523522E+00  0.88000000000E+00 0. -1.
        -11    1    4    4    0    0  0.69697388783E-01  0.18297034264E-01  0.45164212058E-01  0.85044545021E-01  0.51100000000E-03 0.  1.
         11    1    4    4    0    0  0.47478689197E-01 -0.23571572981E-01  0.21441198087E-01  0.57182436788E-01  0.51100000000E-03 0. -1.
</event>
<event>
 8    1  0.2025822E+004  0.1043930E+01  0.7957747E-01            NaN
         13   -1    0    0    0    0  0.00000000000E+00  0.00000000000E+00  0.74505805969E-08  0.10566000000E+00  0.10566000000E+00 0. -1.
     999900   -1    0    0    0    0 -0.00000000000E+00 -0.00000000000E+00 -0.74505805969E-08  0.93827000000E+00  0.93827000000E+00 0.  1.
     999902    2    1    2    0    0  0.14686862950E-01 -0.78674438630E-03  0.17125106724E-02  0.10291227179E+01  0.10290161869E+01 0.  0.
     999903    2    3    3    0    0 -0.10268283080E+00  0.37732487450E-01  0.70348485943E-01  0.13784819604E+00  0.45669588647E-01 0.  0.
         14    1    1    2    0    0 -0.14686862950E-01  0.78674438630E-03 -0.17125106724E-02  0.14807282089E-01  0.00000000000E+00 0. -1.
     999901    1    3    3    0    0  0.11736969375E+00 -0.38519231837E-01 -0.68635975271E-01  0.89127452187E+00  0.88000000000E+00 0.  1.
        -11    1    4    4    0    0 -0.31859845511E-01  0.82589647414E-02 -0.12130025682E-02  0.32939228145E-01  0.51100000000E-03 0. -1.
         11    1    4    4    0    0 -0.70822985290E-01  0.29473522709E-01  0.71561488511E-01  0.10490896790E+00  0.51100000000E-03 0.  1.
</event>
<event>
 8    1  0.2025822E+004  0.1043930E+01  0.7957747E-01            NaN
         13   -1    0    0    0    0  0.00000000000E+00  0.00000000000E+00  0.74505805969E-08  0.10566000000E+00  0.10566000000E+00 0. -1.
     999900   -1    0    0    0    0 -0.00000000000E+00 -0.00000000000E+00 -0.74505805969E-08  0.93827000000E+00  0.93827000000E+00 0. -1.
     999902    2    1    2    0    0  0.41653664076E-02 -0.13110488785E-01  0.25045158816E-02  0.10299475899E+01  0.10298526740E+01 0.  0.
     999903    2    3    3    0    0 -0.10664222820E+00 -0.40077501713E-01  0.68511731223E-01  0.14013721945E+00  0.44337478295E-01 0.  0.
         14    1    1    2    0    0 -0.41653664076E-02  0.13110488785E-01 -0.25045158816E-02  0.13982410139E-01  0.00000000000E+00 0.  1.
     999901    1    3    3    0    0  0.11080759461E+00  0.26967012929E-01 -0.66007215342E-01  0.88981037041E+00  0.88000000000E+00 0.  1.
        -11    1    4    4    0    0 -0.42682534675E-01  0.42157138371E-02  0.13926126996E-01  0.45097329672E-01  0.51100000000E-03 0. -1.
         11    1    4    4    0    0 -0.63959693526E-01 -0.44293215551E-01  0.54585604227E-01  0.95039889781E-01  0.51100000000E-03 0.  1.
</event>
<event>
 8    1  0.2025822E+004  0.1043930E+01  0.7957747E-01            NaN
         13   -1    0    0    0    0  0.00000000000E+00  0.00000000000E+00  0.74505805969E-08  0.10566000000E+00  0.10566000000E+00 0. -1.
     999900   -1    0    0    0    0 -0.00000000000E+00 -0.00000000000E+00 -0.74505805969E-08  0.93827000000E+00  0.93827000000E+00 0. -1.
     999902    2    1    2    0    0 -0.75516498926E-02 -0.55873357598E-02  0.91584210676E-02  0.10308104568E+01  0.10307269646E+01 0.  0.
     999903    2    3    3    0    0 -0.72717048312E-01 -0.80522570590E-01 -0.77852645333E-01  0.14096061316E+00  0.45135424977E-01 0.  0.
         14    1    1    2    0    0  0.75516498926E-02  0.55873357598E-02 -0.91584210676E-02  0.13119543187E-01  0.00000000000E+00 0.  1.
     999901    1    3    3    0    0  0.65165398419E-01  0.74935234830E-01  0.87011066401E-01  0.88984984365E+00  0.88000000000E+00 0.  1.
        -11    1    4    4    0    0 -0.71071636284E-01 -0.54518093694E-01 -0.70179848588E-01  0.11379311180E+00  0.51100000000E-03 0. -1.
         11    1    4    4    0    0 -0.16454120274E-02 -0.26004476896E-01 -0.76727967458E-02  0.27167501362E-01  0.51100000000E-03 0.  1.
</event>
<event>
 8    1  0.2025822E+004  0.1043930E+01  0.7957747E-01            NaN
         13   -1    0    0    0    0  0.00000000000E+00  0.00000000000E+00  0.74505805969E-08  0.10566000000E+00  0.10566000000E+00 0. -1.
     999900   -1    0    0    0    0 -0.00000000000E+00 -0.00000000000E+00 -0.74505805969E-08  0.93827000000E+00  0.93827000000E+00 0.  1.
     999902    2    1    2    0    0  0.34016425313E-02  0.38521713201E-02  0.12391499149E-01  0.10305150961E+01  0.10304277770E+01 0.  0.
     999903    2    3    3    0    0 -0.51062042761E-01 -0.11608932681E+00  0.39129187323E-01  0.14030885035E+00  0.45512813315E-01 0.  0.
         14    1    1    2    0    0 -0.34016425313E-02 -0.38521713201E-02 -0.12391499149E-01  0.13414903911E-01  0.00000000000E+00 0.  1.
     999901    1    3    3    0    0  0.54463685292E-01  0.11994149813E+00 -0.26737688174E-01  0.89020624574E+00  0.88000000000E+00 0.  1.
        -11    1    4    4    0    0 -0.14506647161E-01 -0.80977577806E-01  0.13025395073E-01  0.83293054675E-01  0.51100000000E-03 0.  1.
         11    1    4    4    0    0 -0.36555395600E-01 -0.35111749001E-01  0.26103792249E-01  0.57015795672E-01  0.51100000000E-03 0. -1.
</event>
<event>
 8    1  0.2025822E+004  0.1043930E+01  0.7957747E-01            NaN
         13   -1    0    0    0    0  0.00000000000E+00  0.00000000000E+00  0.74505805969E-08  0.10566000000E+00  0.10566000000E+00 0.  1.
     999900   -1    0    0    0    0 -0.00000000000E+00 -0.00000000000E+00 -0.74505805969E-08  0.93827000000E+00  0.93827000000E+00 0. -1.
     999902    2    1    2    0    0 -0.58725453338E-02  0.68183739384E-02 -0.10023138771E-01  0.10304600214E+01  0.10303719792E+01 0.  0.
     999903    2    3    3    0    0  0.53654723822E-01 -0.10760014057E+00  0.47767688411E-01  0.13918291977E+00  0.51317769444E-01 0.  0.
         14    1    1    2    0    0  0.58725453338E-02 -0.68183739384E-02  0.10023138771E-01  0.13469978570E-01  0.00000000000E+00 0.  1.
     999901    1    3    3    0    0 -0.59527269156E-01  0.11441851451E+00 -0.57790827182E-01  0.89127710166E+00  0.88000000000E+00 0. -1.
        -11    1    4    4    0    0  0.40842885891E-01 -0.71838378768E-01  0.56619455793E-01  0.10017443729E+00  0.51100000000E-03 0.  1.
         11    1    4    4    0    0  0.12811837931E-01 -0.35761761802E-01 -0.88517673822E-02  0.39008482477E-01  0.51100000000E-03 0. -1.
</event>
<event>
 8    1  0.2025822E+004  0.1043930E+01  0.7957747E-01            NaN
         13   -1    0    0    0    0  0.00000000000E+00  0.00000000000E+00  0.74505805969E-08  0.10566000000E+00  0.10566000000E+00 0. -1.
     999900   -1    0    0    0    0 -0.00000000000E+00 -0.00000000000E+00 -0.74505805969E-08  0.93827000000E+00  0.93827000000E+00 0. -1.
     999902    2    1    2    0    0 -0.16468790362E-01 -0.60199309130E-02 -0.66485879742E-02  0.10251772843E+01  0.10250057560E+01 0.  0.
     999903    2    3    3    0    0 -0.54559423908E-01  0.11575054757E+00  0.89267133388E-02  0.13583958927E+00  0.44696619574E-01 0.  0.
         14    1    1    2    0    0  0.16468790362E-01  0.60199309130E-02  0.66485879742E-02  0.18752715703E-01  0.00000000000E+00 0. -1.
     999901    1    3    3    0    0  0.38090633546E-01 -0.12177047848E+00 -0.15575301313E-01  0.88933769503E+00  0.88000000000E+00 0.  1.
        -11    1    4    4    0    0 -0.23966441093E-01  0.62700840889E-01  0.26435455010E-01  0.72144855322E-01  0.51100000000E-03 0.  1.
         11    1    4    4    0    0 -0.30592982815E-01  0.53049706679E-01 -0.17508741671E-01  0.63694733943E-01  0.51100000000E-03 0. -1.
</event>
<event>
 8    1  0.2025822E+004  0.1043930E+01  0.7957747E-01            NaN
         13   -1    0    0    0    0  0.00000000000E+00  0.00000000000E+00  0.74505805969E-08  0.10566000000E+00  0.10566000000E+00 0. -1.
     999900   -1    0    0    0    0 -0.00000000000E+00 -0.00000000000E+00 -0.74505805969E-08  0.93827000000E+00  0.93827000000E+00 0.  1.
     999902    2    1    2    0    0 -0.85142056012E-02 -0.33871009468E-02 -0.10240722356E-01  0.10301882190E+01  0.10300965635E+01 0.  0.
     999903    2    3    3    0    0 -0.41543392928E-01  0.60995623995E-01 -0.11171328481E+00  0.14140661289E+00  0.45493433844E-01 0.  0.
         14    1    1    2    0    0  0.85142056012E-02  0.33871009468E-02  0.10240722356E-01  0.13741780970E-01  0.00000000000E+00 0. -1.
     999901    1    3    3    0    0  0.33029187326E-01 -0.64382724942E-01  0.10147256245E+00  0.88878160614E+00  0.88000000000E+00 0. -1.
        -11    1    4    4    0    0 -0.17357679584E-01  0.47792643518E-01 -0.40373234339E-01  0.64928306516E-01  0.51100000000E-03 0.  1.
         11    1    4    4    0    0 -0.24185713344E-01  0.13202980477E-01 -0.71340050471E-01  0.76478306372E-01  0.51100000000E-03 0. -1.
</event>
<event>
 8    1  0.2025822E+004  0.1043930E+01  0.7957747E-01            NaN
         13   -1    0    0    0    0  0.00000000000E+00  0.00000000000E+00  0.74505805969E-08  0.10566000000E+00  0.10566000000E+00 0. -1.
     999900   -1    0    0    0    0 -0.00000000000E+00 -0.00000000000E+00 -0.74505805969E-08  0.93827000000E+00  0.93827000000E+00 0.  1.
     999902    2    1    2    0    0  0.52593297687E-03 -0.15101903786E-02  0.13656101530E-01  0.10301805858E+01  0.10300888278E+01 0.  0.
     999903    2    3    3    0    0  0.86608912231E-01 -0.82463885696E-01 -0.51201702419E-01  0.13991640324E+00  0.51513002662E-01 0.  0.
         14    1    1    2    0    0 -0.52593297687E-03  0.15101903786E-02 -0.13656101530E-01  0.13749414150E-01  0.00000000000E+00 0.  1.
     999901    1    3    3    0    0 -0.86082979254E-01  0.80953695318E-01  0.64857803949E-01  0.89026418261E+00  0.88000000000E+00 0. -1.
        -11    1    4    4    0    0  0.54805112848E-01 -0.26989954533E-01 -0.55448175369E-02  0.61343819269E-01  0.51100000000E-03 0. -1.
         11    1    4    4    0    0  0.31803799383E-01 -0.55473931163E-01 -0.45656884882E-01  0.78572583972E-01  0.51100000000E-03 0.  1.
</event>
<event>
 8    1  0.2025822E+004  0.1043930E+01  0.7957747E-01            NaN
         13   -1    0    0    0    0  0.00000000000E+00  0.00000000000E+00  0.74505805969E-08  0.10566000000E+00  0.10566000000E+00 0.  1.
     999900   -1    0    0    0    0 -0.00000000000E+00 -0.00000000000E+00 -0.74505805969E-08  0.93827000000E+00  0.93827000000E+00 0. -1.
     999902    2    1    2    0    0  0.22100868251E-02 -0.44040716685E-02  0.13686567401E-01  0.10293834383E+01  0.10292806520E+01 0.  0.
     999903    2    3    3    0    0  0.96294523675E-01  0.33652766406E-01 -0.81761895155E-01  0.13842293792E+00  0.45505584989E-01 0.  0.
         14    1    1    2    0    0 -0.22100868251E-02  0.44040716685E-02 -0.13686567401E-01  0.14546561733E-01  0.00000000000E+00 0. -1.
     999901    1    3    3    0    0 -0.94084436850E-01 -0.38056838074E-01  0.95448462556E-01  0.89096050035E+00  0.88000000000E+00 0.  1.
        -11    1    4    4    0    0  0.94071127188E-01  0.32808239066E-01 -0.59532686456E-01  0.11606101584E+00  0.51100000000E-03 0.  1.
         11    1    4    4    0    0  0.22233964873E-02  0.84452734049E-03 -0.22229208699E-01  0.22361922072E-01  0.51100000000E-03 0. -1.
</event>
<event>
 8    1  0.2025822E+004  0.1043930E+01  0.7957747E-01            NaN
         13   -1    0    0    0    0  0.00000000000E+00  0.00000000000E+00  0.74505805969E-08  0.10566000000E+00  0.10566000000E+00 0.  1.
     999900   -1    0    0    0    0 -0.00000000000E+00 -0.00000000000E+00 -0.74505805969E-08  0.93827000000E+00  0.93827000000E+00 0. -1.
     999902    2    1    2    0    0  0.12751514286E-01  0.95575910038E-02  0.32524434530E-02  0.10276657124E+01  0.10275370015E+01 0.  0.
     999903    2    3    3    0    0  0.62436119433E-01 -0.33620268718E-01  0.11047620962E+00  0.13871699421E+00  0.44819862932E-01 0.  0.
         14    1    1    2    0    0 -0.12751514286E-01 -0.95575910038E-02 -0.32524434530E-02  0.16264287590E-01  0.00000000000E+00 0. -1.
     999901    1    3    3    0    0 -0.49684605147E-01  0.43177859722E-01 -0.10722376616E+00  0.88894871820E+00  0.88000000000E+00 0. -1.
        -11    1    4    4    0    0  0.43751926638E-01  0.17911920430E-02  0.55172098231E-01  0.70439058751E-01  0.51100000000E-03 0. -1.
         11    1    4    4    0    0  0.18684192795E-01 -0.35411460761E-01  0.55304111385E-01  0.68277935460E-01  0.51100000000E-03 0.  1.
</event>
<event>
 8    1  0.2025822E+004  0.1043930E+01  0.7957747E-01            NaN
         13   -1    0    0    0    0  0.00000000000E+00  0.00000000000E+00  0.74505805969E-08  0.10566000000E+00  0.10566000000E+00 0. -1.
     999900   -1    0    0    0    0 -0.00000000000E+00 -0.00000000000E+00 -0.74505805969E-08  0.93827000000E+00  0.93827000000E+00 0.  1.
     999902    2    1    2    0    0  0.11014965532E-01 -0.78014573271E-02  0.38126968678E-02  0.10299039935E+01  0.10298084807E+01 0.  0.
     999903    2    3    3    0    0  0.48756111966E-01  0.93621329494E-01 -0.79509997369E-01  0.13936839777E+00  0.44267356191E-01 0.  0.
         14    1    1    2    0    0 -0.11014965532E-01  0.78014573271E-02 -0.38126968678E-02  0.14026006541E-01  0.00000000000E+00 0.  1.
     999901    1    3    3    0    0 -0.37741146434E-01 -0.10142278682E+00  0.83322694237E-01  0.89053559569E+00  0.88000000000E+00 0. -1.
        -11    1    4    4    0    0  0.43342336942E-01  0.73588005647E-01 -0.82078242535E-01  0.11845189642E+00  0.51100000000E-03 0.  1.
         11    1    4    4    0    0  0.54137750235E-02  0.20033323847E-01  0.25682451660E-02  0.20916501347E-01  0.51100000000E-03 0. -1.
</event>
<event>
 8    1  0.2025822E+004  0.1043930E+01  0.7957747E-01            NaN
         13   -1    0    0    0    0  0.00000000000E+00  0.00000000000E+00  0.74505805969E-08  0.10566000000E+00  0.10566000000E+00 0.  1.
     999900   -1    0    0    0    0 -0.00000000000E+00 -0.00000000000E+00 -0.74505805969E-08  0.93827000000E+00  0.93827000000E+00 0.  1.
     999902    2    1    2    0    0 -0.42685238786E-02  0.51552772770E-02 -0.12602734560E-01  0.10296602383E+01  0.10295613533E+01 0.  0.
     999903    2    3    3    0    0 -0.11482111743E+00  0.63955563471E-01  0.19606529560E-01  0.14021277709E+00  0.44732580419E-01 0.  0.
         14    1    1    2    0    0  0.42685238786E-02 -0.51552772770E-02  0.12602734560E-01  0.14269761676E-01  0.00000000000E+00 0.  1.
     999901    1    3    3    0    0  0.11055259355E+00 -0.58800286194E-01 -0.32209264120E-01  0.88944746123E+00  0.88000000000E+00 0.  1.
        -11    1    4    4    0    0 -0.55936436305E-01  0.87059053222E-02  0.18155026182E-01  0.59452029323E-01  0.51100000000E-03 0.  1.
         11    1    4    4    0    0 -0.58884681128E-01  0.55249658148E-01  0.14515033784E-02  0.80760747768E-01  0.51100000000E-03 0. -1.
</event>
<event>
 7    1  0.2025822E+004  0.1043930E+01  0.7957747E-01            NaN
         13   -1    0    0    0    0  0.00000000000E+00  0.00000000000E+00  0.74505805969E-08  0.10566000000E+00  0.10566000000E+00 0. -1.
     999900   -1    0    0    0    0 -0.00000000000E+00 -0.00000000000E+00 -0.74505805969E-08  0.93827000000E+00  0.93827000000E+00 0.  1.
     999903    2    1    2    0    0 -0.10238667787E-01 -0.68007062960E-01  0.88483982827E-01  0.12060571994E+00  0.44570545597E-01 0.  0.
         14    1    1    2    0    0  0.43111242139E-02 -0.26946438578E-01  0.16660986257E-01  0.31973188878E-01  0.00000000000E+00 0. -1.
     999901    1    1    2    0    0  0.59275435731E-02  0.94953501537E-01 -0.10514496908E+00  0.89135109118E+00  0.88000000000E+00 0.  1.
        -11    1    3    3    0    0 -0.15694200416E-01 -0.21433953074E-02  0.16247104707E-01  0.22696510800E-01  0.51100000000E-03 0.  1.
         11    1    3    3    0    0  0.54555326287E-02 -0.65863667652E-01  0.72236878120E-01  0.97909209140E-01  0.51100000000E-03 0. -1.
</event>
<event>
 7    1  0.2025822E+004  0.1043930E+01  0.7957747E-01            NaN
         13   -1    0    0    0    0  0.00000000000E+00  0.00000000000E+00  0.74505805969E-08  0.10566000000E+00  0.10566000000E+00 0. -1.
     999900   -1    0    0    0    0 -0.00000000000E+00 -0.00000000000E+00 -0.74505805969E-08  0.93827000000E+00  0.93827000000E+00 0. -1.
     999903    2    1    2    0    0 -0.86262714276E-01  0.24745882893E-01 -0.62632915011E-01  0.11820914146E+00  0.44686737262E-01 0.  0.
         14    1    1    2    0    0  0.21229344190E-01  0.17975412876E-01 -0.25713310783E-01  0.37881062210E-01  0.00000000000E+00 0.  1.
     999901    1    1    2    0    0  0.65033370087E-01 -0.42721295768E-01  0.88346225794E-01  0.88783979633E+00  0.88000000000E+00 0.  1.
        -11    1    3    3    0    0 -0.65275310474E-01  0.58056415503E-02 -0.61560494869E-01  0.89913999359E-01  0.51100000000E-03 0.  1.
         11    1    3    3    0    0 -0.20987403802E-01  0.18940241342E-01 -0.10724201423E-02  0.28295142100E-01  0.51100000000E-03 0. -1.
</event>
<event>
 8    1  0.2025822E+004  0.1043930E+01  0.7957747E-01            NaN
         13   -1    0    0    0    0  0.00000000000E+00  0.00000000000E+00  0.74505805969E-08  0.10566000000E+00  0.10566000000E+00 0. -1.
     999900   -1    0    0    0    0 -0.00000000000E+00 -0.00000000000E+00 -0.74505805969E-08  0.93827000000E+00  0.93827000000E+00 0.  1.
     999902    2    1    2    0    0  0.88297811793E-02  0.79239481220E-02 -0.63652026449E-02  0.10304663529E+01  0.10303783939E+01 0.  0.
     999903    2    3    3    0    0  0.11849616691E-01 -0.21146667815E-01  0.13139113457E+00  0.13926994995E+00  0.39305136309E-01 0.  0.
         14    1    1    2    0    0 -0.88297811793E-02 -0.79239481220E-02  0.63652026449E-02  0.13463647137E-01  0.00000000000E+00 0. -1.
     999901    1    3    3    0    0 -0.30198355115E-02  0.29070615937E-01 -0.13775633722E+00  0.89119640291E+00  0.88000000000E+00 0.  1.
        -11    1    4    4    0    0 -0.31827764524E-02 -0.28146071895E-01  0.97560137021E-01  0.10159022042E+00  0.51100000000E-03 0. -1.
         11    1    4    4    0    0  0.15032393143E-01  0.69994040809E-02  0.33830997552E-01  0.37679729530E-01  0.51100000000E-03 0.  1.
</event>
<event>
 8    1  0.2025822E+004  0.1043930E+01  0.7957747E-01            NaN
         13   -1    0    0    0    0  0.00000000000E+00  0.00000000000E+00  0.74505805969E-08  0.10566000000E+00  0.10566000000E+00 0. -1.
     999900   -1    0    0    0    0 -0.00000000000E+00 -0.00000000000E+00 -0.74505805969E-08  0.93827000000E+00  0.93827000000E+00 0.  1.
     999902    2    1    2    0    0  0.19673471512E-02  0.13621806436E-01 -0.22480487096E-02  0.10299844707E+01  0.10298900582E+01 0.  0.
     999903    2    3    3    0    0  0.33707142344E-02  0.12068346233E+00  0.58759822792E-01  0.14139788063E+00  0.44325884976E-01 0.  0.
         14    1    1    2    0    0 -0.19673471512E-02 -0.13621806436E-01  0.22480487096E-02  0.13945529333E-01  0.00000000000E+00 0. -1.
     999901    1    3    3    0    0 -0.14033670832E-02 -0.10706165589E+00 -0.61007871501E-01  0.88858659003E+00  0.88000000000E+00 0. -1.
        -11    1    4    4    0    0 -0.42731371129E-02  0.26440598788E-01  0.34688419993E-01  0.43828216569E-01  0.51100000000E-03 0. -1.
         11    1    4    4    0    0  0.76438513473E-02  0.94242863542E-01  0.24071402799E-01  0.97569664065E-01  0.51100000000E-03 0.  1.
</event>
<event>
 8    1  0.2025822E+004  0.1043930E+01  0.7957747E-01            NaN
         13   -1    0    0    0    0  0.00000000000E+00  0.00000000000E+00  0.74505805969E-08  0.10566000000E+00  0.10566000000E+00 0.  1.
     999900   -1    0    0    0    0 -0.00000000000E+00 -0.00000000000E+00 -0.74505805969E-08  0.93827000000E+00  0.93827000000E+00 0.  1.
     999902    2    1    2    0    0  0.58142376581E-03 -0.13725680954E-01 -0.87242220536E-02  0.10276559587E+01  0.10275270921E+01 0.  0.
     999903    2    3    3    0    0 -0.73565366492E-01  0.39277600251E-02  0.10548315768E+00  0.13700860079E+00  0.47088955091E-01 0.  0.
         14    1    1    2    0    0 -0.58142376581E-03  0.13725680954E-01  0.87242220536E-02  0.16274041345E-01  0.00000000000E+00 0. -1.
     999901    1    3    3    0    0  0.74146790258E-01 -0.17653440980E-01 -0.11420737973E+00  0.89064735786E+00  0.88000000000E+00 0.  1.
        -11    1    4    4    0    0 -0.16845711778E-01 -0.10255701120E-01  0.59315133045E-01  0.62510027515E-01  0.51100000000E-03 0. -1.
         11    1    4    4    0    0 -0.56719654714E-01  0.14183461145E-01  0.46168024632E-01  0.74498573277E-01  0.51100000000E-03 0.  1.
</event>
<event>
 8    1  0.2025822E+004  0.1043930E+01  0.7957747E-01            NaN
         13   -1    0    0    0    0  0.00000000000E+00  0.00000000000E+00  0.74505805969E-08  0.10566000000E+00  0.10566000000E+00 0.  1.
     999900   -1    0    0    0    0 -0.00000000000E+00 -0.00000000000E+00 -0.74505805969E-08  0.93827000000E+00  0.93827000000E+00 0.  1.
     999902    2    1    2    0    0 -0.13614965041E-01  0.37818150677E-03  0.10814543336E-02  0.10302669170E+01  0.10301763152E+01 0.  0.
     999903    2    3    3    0    0 -0.23637414650E-02 -0.46177550556E-01  0.12468017989E+00  0.14033957658E+00  0.44856393622E-01 0.  0.
         14    1    1    2    0    0  0.13614965041E-01 -0.37818150677E-03 -0.10814543336E-02  0.13663083026E-01  0.00000000000E+00 0. -1.
     999901    1    3    3    0    0 -0.11251223576E-01  0.46555732062E-01 -0.12359872556E+00  0.88992734039E+00  0.88000000000E+00 0.  1.
        -11    1    4    4    0    0 -0.51947976924E-02 -0.28549295107E-01  0.11759620349E+00  0.12112463156E+00  0.51100000000E-03 0. -1.
         11    1    4    4    0    0  0.28310562274E-02 -0.17628255448E-01  0.70839763972E-02  0.19214945020E-01  0.51100000000E-03 0.  1.
</event>
<event>
 8    1  0.2025822E+004  0.1043930E+01  0.7957747E-01            NaN
         13   -1    0    0    0    0  0.00000000000E+00  0.00000000000E+00  0.74505805969E-08  0.10566000000E+00  0.10566000000E+00 0.  1.
     999900   -1    0    0    0    0 -0.00000000000E+00 -0.00000000000E+00 -0.74505805969E-08  0.93827000000E+00  0.93827000000E+00 0.  1.
     999902    2    1    2    0    0  0.60007620157E-02  0.92906283840E-02 -0.77556710414E-02  0.10304216561E+01  0.10303331083E+01 0.  0.
     999903    2    3    3    0    0  0.68950716394E-01 -0.12604986896E-01 -0.11443057233E+00  0.14147753569E+00  0.44815736468E-01 0.  0.
         14    1    1    2    0    0 -0.60007620157E-02 -0.92906283840E-02  0.77556710414E-02  0.13508343860E-01  0.00000000000E+00 0.  1.
     999901    1    3    3    0    0 -0.62949954379E-01  0.21895615280E-01  0.10667490128E+00  0.88894412045E+00  0.88000000000E+00 0.  1.
        -11    1    4    4    0    0  0.24502130828E-01  0.58268157646E-02 -0.11172728596E-01  0.27557162088E-01  0.51100000000E-03 0.  1.
         11    1    4    4    0    0  0.44448585567E-01 -0.18431802661E-01 -0.10325784373E+00  0.11392037360E+00  0.51100000000E-03 0. -1.
</event>
<event>
 8    1  0.2025822E+004  0.1043930E+01  0.7957747E-01            NaN
         13   -1    0    0    0    0  0.00000000000E+00  0.00000000000E+00  0.74505805969E-08  0.10566000000E+00  0.10566000000E+00 0.  1.
     999900   -1    0    0    0    0 -0.00000000000E+00 -0.00000000000E+00 -0.74505805969E-08  0.93827000000E+00  0.93827000000E+00 0. -1.
     999902    2    1    2    0    0  0.76188222948E-02  0.11410187955E-01  0.14619895059E-02  0.10301323098E+01  0.10300399018E+01 0.  0.
     999903    2    3    3    0    0 -0.28625251028E-01 -0.26945371018E-01 -0.12593389799E+00  0.13939413617E+00  0.45010226847E-01 0.  0.
         14    1    1    2    0    0 -0.76188222948E-02 -0.11410187955E-01 -0.14619895059E-02  0.13797690229E-01  0.00000000000E+00 0.  1.
     999901    1    3    3    0    0  0.36244073323E-01  0.38355558973E-01  0.12739588750E+00  0.89073817360E+00  0.88000000000E+00 0.  1.
        -11    1    4    4    0    0 -0.55734397114E-02 -0.29067367113E-01 -0.10151389117E+00  0.10574169605E+00  0.51100000000E-03 0. -1.
         11    1    4    4    0    0 -0.23051811316E-01  0.21219960953E-02 -0.24420006815E-01  0.33652440123E-01  0.51100000000E-03 0.  1.
</event>
<event>
 8    1  0.2025822E+004  0.1043930E+01  0.7957747E-01            NaN
         13   -1    0    0    0    0  0.00000000000E+00  0.00000000000E+00  0.74505805969E-08  0.10566000000E+00  0.10566000000E+00 0. -1.
     999900   -1    0    0    0    0 -0.00000000000E+00 -0.00000000000E+00 -0.74505805969E-08  0.93827000000E+00  0.93827000000E+00 0. -1.
     999902    2    1    2    0    0 -0.75286378443E-02  0.10081745435E-01  0.56787065538E-02  0.10301253020E+01  0.10300327995E+01 0.  0.
     999903    2    3    3    0    0  0.35410302099E-01  0.87152661488E-02 -0.12999840292E+00  0.13869168256E+00  0.31716757277E-01 0.  0.
         14    1    1    2    0    0  0.75286378443E-02 -0.10081745435E-01 -0.56787065538E-02  0.13804698002E-01  0.00000000000E+00 0. -1.
     999901    1    3    3    0    0 -0.42938939943E-01  0.13664792863E-02  0.13567710947E+00  0.89143361944E+00  0.88000000000E+00 0.  1.
        -11    1    4    4    0    0  0.18881273308E-01 -0.55811301690E-02 -0.27124625220E-01  0.33521006995E-01  0.51100000000E-03 0. -1.
         11    1    4    4    0    0  0.16529028791E-01  0.14296396318E-01 -0.10287377770E+00  0.10517067557E+00  0.51100000000E-03 0.  1.
</event>
<event>
 8    1  0.2025822E+004  0.1043930E+01  0.7957747E-01            NaN
         13   -1    0    0    0    0  0.00000000000E+00  0.00000000000E+00  0.74505805969E-08  0.10566000000E+00  0.10566000000E+00 0. -1.
     999900   -1    0    0    0    0 -0.00000000000E+00 -0.00000000000E+00 -0.74505805969E-08  0.93827000000E+00  0.93827000000E+00 0.  1.
     999902    2    1    2    0    0 -0.12923493685E-01 -0.31816344367E-02  0.41078902902E-02  0.10300011002E+01  0.10299069143E+01 0.  0.
     999903    2    3    3    0    0 -0.87458665388E-01 -0.10100937585E+00  0.12981409480E-01  0.14140417350E+00  0.44437721946E-01 0.  0.
         14    1    1    2    0    0  0.12923493685E-01  0.31816344367E-02 -0.41078902902E-02  0.13928899790E-01  0.00000000000E+00 0.  1.
     999901    1    3    3    0    0  0.74535171703E-01  0.97827741410E-01 -0.88735191901E-02  0.88859692671E+00  0.88000000000E+00 0. -1.
        -11    1    4    4    0    0 -0.53450268954E-01 -0.78070832338E-01 -0.86772402904E-02  0.95013376602E-01  0.51100000000E-03 0. -1.
         11    1    4    4    0    0 -0.34008396433E-01 -0.22938543509E-01  0.21658649771E-01  0.46390796902E-01  0.51100000000E-03 0.  1.
</event>
<event>
 8    1  0.2025822E+004  0.1043930E+01  0.7957747E-01            NaN
         13   -1    0    0    0    0  0.00000000000E+00  0.00000000000E+00  0.74505805969E-08  0.10566000000E+00  0.10566000000E+00 0.  1.
     999900   -1    0    0    0    0 -0.00000000000E+00 -0.00000000000E+00 -0.74505805969E-08  0.93827000000E+00  0.93827000000E+00 0.  1.
     999902    2    1    2    0    0  0.24816311949E-02  0.78706514529E-02  0.62281666991E-02  0.10335909619E+01  0.10335392498E+01 0.  0.
     999903    2    3    3    0    0  0.91811434443E-01 -0.98881477671E-01  0.11977230722E-01  0.14263143280E+00  0.44647345337E-01 0.  0.
         14    1    1    2    0    0 -0.24816311949E-02 -0.78706514529E-02 -0.62281666991E-02  0.10339038065E-01  0.00000000000E+00 0.  1.
     999901    1    3    3    0    0 -0.89329803248E-01  0.10675212912E+00 -0.57490640231E-02  0.89095952914E+00  0.88000000000E+00 0.  1.
        -11    1    4    4    0    0  0.85280248939E-01 -0.78912484112E-01  0.23677020803E-01  0.11857809006E+00  0.51100000000E-03 0. -1.
         11    1    4    4    0    0  0.65311855037E-02 -0.19968993559E-01 -0.11699790081E-01  0.24053342736E-01  0.51100000000E-03 0.  1.
</event>
<event>
 8    1  0.2025822E+004  0.1043930E+01  0.7957747E-01            NaN
         13   -1    0    0    0    0  0.00000000000E+00  0.00000000000E+00  0.74505805969E-08  0.10566000000E+00  0.10566000000E+00 0. -1.
     999900   -1    0    0    0    0 -0.00000000000E+00 -0.00000000000E+00 -0.74505805969E-08  0.93827000000E+00  0.93827000000E+00 0.  1.
     999902    2    1    2    0    0  0.88836559940E-02 -0.22947353118E-01 -0.11643083737E-01  0.10167075505E+01  0.10163430432E+01 0.  0.
     999903    2    3    3    0    0  0.87082300993E-01  0.64178052105E-01 -0.51694777316E-01  0.12805126008E+00  0.44973611011E-01 0.  0.
         14    1    1    2    0    0 -0.88836559940E-02  0.22947353118E-01  0.11643083737E-01  0.27222449519E-01  0.00000000000E+00 0. -1.
     999901    1    3    3    0    0 -0.78198644999E-01 -0.87125405223E-01  0.40051693579E-01  0.88865629040E+00  0.88000000000E+00 0.  1.
        -11    1    4    4    0    0  0.54312735566E-01  0.13485985354E-01 -0.32461496429E-01  0.64697410435E-01  0.51100000000E-03 0.  1.
         11    1    4    4    0    0  0.32769565428E-01  0.50692066751E-01 -0.19233280887E-01  0.63353849642E-01  0.51100000000E-03 0. -1.
</event>
<event>
 8    1  0.2025822E+004  0.1043930E+01  0.7957747E-01            NaN
         13   -1    0    0    0    0  0.00000000000E+00  0.00000000000E+00  0.74505805969E-08  0.10566000000E+00  0.10566000000E+00 0.  1.
     999900   -1    0    0    0    0 -0.00000000000E+00 -0.00000000000E+00 -0.74505805969E-08  0.93827000000E+00  0.93827000000E+00 0. -1.
     999902    2    1    2    0    0 -0.13232215760E-01  0.17067366754E-01  0.27342766286E-03  0.10223322847E+01  0.10221041234E+01 0.  0.
     999903    2    3    3    0    0 -0.14139990640E-01 -0.11412313961E+00  0.45056326266E-01  0.13148028748E+00  0.45088392410E-01 0.  0.
         14    1    1    2    0    0  0.13232215760E-01 -0.17067366754E-01 -0.27342766286E-03  0.21597715261E-01  0.00000000000E+00 0. -1.
     999901    1    3    3    0    0  0.90777488013E-03  0.13119050636E+00 -0.44782898603E-01  0.89085199726E+00  0.88000000000E+00 0. -1.
        -11    1    4    4    0    0 -0.67776805135E-02 -0.37329881716E-01 -0.67680233155E-02  0.38542499694E-01  0.51100000000E-03 0.  1.
         11    1    4    4    0    0 -0.73623101265E-02 -0.76793257890E-01  0.51824349582E-01  0.92937787785E-01  0.51100000000E-03 0. -1.
</event>
<event>
 8    1  0.2025822E+004  0.1043930E+01  0.7957747E-01            NaN
         13   -1    0    0    0    0  0.00000000000E+00  0.00000000000E+00  0.74505805969E-08  0.10566000000E+00  0.10566000000E+00 0. -1.
     999900   -1    0    0    0    0 -0.00000000000E+00 -0.00000000000E+00 -0.74505805969E-08  0.93827000000E+00  0.93827000000E+00 0. -1.
     999902    2    1    2    0    0 -0.21993340059E-02 -0.11079851572E-01  0.59375453954E-02  0.10311685492E+01  0.10310895801E+01 0.  0.
     999903    2    3    3    0    0  0.12942896225E+00  0.27956290628E-01 -0.13084999245E-01  0.14031969223E+00  0.44553208279E-01 0.  0.
         14    1    1    2    0    0  0.21993340059E-02  0.11079851572E-01 -0.59375453954E-02  0.12761450789E-01  0.00000000000E+00 0.  1.
     999901    1    3    3    0    0 -0.13162829626E+00 -0.39036142199E-01  0.19022544640E-01  0.89084885698E+00  0.88000000000E+00 0. -1.
        -11    1    4    4    0    0  0.11063182438E+00  0.14738450626E-01  0.39975618488E-02  0.11168197757E+00  0.51100000000E-03 0.  1.
         11    1    4    4    0    0  0.18797137869E-01  0.13217840002E-01 -0.17082561093E-01  0.28637714659E-01  0.51100000000E-03 0. -1.
</event>
<event>
 8    1  0.2025822E+004  0.1043930E+01  0.7957747E-01            NaN
         13   -1    0    0    0    0  0.00000000000E+00  0.00000000000E+00  0.74505805969E-08  0.10566000000E+00  0.10566000000E+00 0. -1.
     999900   -1    0    0    0    0 -0.00000000000E+00 -0.00000000000E+00 -0.74505805969E-08  0.93827000000E+00  0.93827000000E+00 0.  1.
     999902    2    1    2    0    0  0.55387472492E-02  0.91377155930E-02  0.56996722920E-02  0.10318195982E+01  0.10317485262E+01 0.  0.
     999903    2    3    3    0    0  0.14742299922E-01 -0.38791873543E-01 -0.12664765226E+00  0.14058575392E+00  0.44750212538E-01 0.  0.
         14    1    1    2    0    0 -0.55387472492E-02 -0.91377155930E-02 -0.56996722920E-02  0.12110401793E-01  0.00000000000E+00 0.  1.
     999901    1    3    3    0    0 -0.92035526725E-02  0.47929589136E-01  0.13234732455E+00  0.89123384429E+00  0.88000000000E+00 0. -1.
        -11    1    4    4    0    0 -0.66962854325E-03 -0.62139883506E-02 -0.86125004577E-01  0.86352994088E-01  0.51100000000E-03 0. -1.
         11    1    4    4    0    0  0.15411928465E-01 -0.32577885192E-01 -0.40522647679E-01  0.54232759827E-01  0.51100000000E-03 0.  1.
</event>
<event>
 8    1  0.2025822E+004  0.1043930E+01  0.7957747E-01            NaN
         13   -1    0    0    0    0  0.00000000000E+00  0.00000000000E+00  0.74505805969E-08  0.10566000000E+00  0.10566000000E+00 0.  1.
     999900   -1    0    0    0    0 -0.00000000000E+00 -0.00000000000E+00 -0.74505805969E-08  0.93827000000E+00  0.93827000000E+00 0.  1.
     999902    2    1    2    0    0 -0.12387034648E-01 -0.49511673046E-02  0.29303719217E-02  0.10302720439E+01  0.10301815106E+01 0.  0.
     999903    2    3    3    0    0  0.64193600210E-01 -0.36993801997E-01 -0.10926649119E+00  0.13927290801E+00  0.44366847013E-01 0.  0.
         14    1    1    2    0    0  0.12387034648E-01  0.49511673046E-02 -0.29303719217E-02  0.13657956093E-01  0.00000000000E+00 0. -1.
     999901    1    3    3    0    0 -0.76580634858E-01  0.32042634692E-01  0.11219686312E+00  0.89099913590E+00  0.88000000000E+00 0.  1.
        -11    1    4    4    0    0 -0.54587406145E-02 -0.10209665198E-01 -0.17561349958E-01  0.21040371810E-01  0.51100000000E-03 0.  1.
         11    1    4    4    0    0  0.69652340825E-01 -0.26784136799E-01 -0.91705141236E-01  0.11823253620E+00  0.51100000000E-03 0. -1.
</event>
<event>
 8    1  0.2025822E+004  0.1043930E+01  0.7957747E-01            NaN
         13   -1    0    0    0    0  0.00000000000E+00  0.00000000000E+00  0.74505805969E-08  0.10566000000E+00  0.10566000000E+00 0. -1.
     999900   -1    0    0    0    0 -0.00000000000E+00 -0.00000000000E+00 -0.74505805969E-08  0.93827000000E+00  0.93827000000E+00 0. -1.
     999902    2    1    2    0    0  0.10621396139E-01 -0.28740384772E-02 -0.38741614518E-02  0.10322645262E+01  0.10321986091E+01 0.  0.
     999903    2    3    3    0    0 -0.66762556512E-01  0.11545684880E+00  0.58682637179E-02  0.14092542690E+00  0.45144396555E-01 0.  0.
         14    1    1    2    0    0 -0.10621396139E-01  0.28740384772E-02  0.38741614518E-02  0.11665473847E-01  0.00000000000E+00 0. -1.
     999901    1    3    3    0    0  0.77383952651E-01 -0.11833088728E+00 -0.97424251697E-02  0.89133909925E+00  0.88000000000E+00 0. -1.
        -11    1    4    4    0    0 -0.34187196595E-01  0.44883398891E-01  0.23663149396E-01  0.61184063835E-01  0.51100000000E-03 0. -1.
         11    1    4    4    0    0 -0.32575359917E-01  0.70573449910E-01 -0.17794885678E-01  0.79741363063E-01  0.51100000000E-03 0.  1.
</event>
<event>
 8    1  0.2025822E+004  0.1043930E+01  0.7957747E-01            NaN
         13   -1    0    0    0    0  0.00000000000E+00  0.00000000000E+00  0.74505805969E-08  0.10566000000E+00  0.10566000000E+00 0. -1.
     999900   -1    0    0    0    0 -0.00000000000E+00 -0.00000000000E+00 -0.74505805969E-08  0.93827000000E+00  0.93827000000E+00 0.  1.
     999902    2    1    2    0    0 -0.68038875059E-02  0.98388992162E-02  0.60289204493E-02  0.10305343028E+01  0.10304472352E+01 0.  0.
     999903    2    3    3    0    0  0.33751439228E-01 -0.10795785256E+00  0.68111223034E-01  0.13959377637E+00  0.45312538195E-01 0.  0.
         14    1    1    2    0    0  0.68038875059E-02 -0.98388992162E-02 -0.60289204493E-02  0.13395697248E-01  0.00000000000E+00 0.  1.
     999901    1    3    3    0    0 -0.40555326734E-01  0.11779675178E+00 -0.62082302585E-01  0.89094052638E+00  0.88000000000E+00 0.  1.
        -11    1    4    4    0    0  0.14028896982E-01 -0.42491341346E-01  0.53368784146E-01  0.69647772987E-01  0.51100000000E-03 0.  1.
         11    1    4    4    0    0  0.19722542246E-01 -0.65466511218E-01  0.14742438888E-01  0.69946003382E-01  0.51100000000E-03 0. -1.
</event>
<event>
 8    1  0.2025822E+004  0.1043930E+01  0.7957747E-01            NaN
         13   -1    0    0    0    0  0.00000000000E+00  0.00000000000E+00  0.74505805969E-08  0.10566000000E+00  0.10566000000E+00 0.  1.
     999900   -1    0    0    0    0 -0.00000000000E+00 -0.00000000000E+00 -0.74505805969E-08  0.93827000000E+00  0.93827000000E+00 0.  1.
     999902    2    1    2    0    0 -0.88306848900E-03 -0.35314294050E-03 -0.14311290247E-01  0.10295871429E+01  0.10294872352E+01 0.  0.
     999903    2    3    3    0    0  0.47749203178E-01  0.11640774401E+00  0.38091951039E-01  0.13900064953E+00  0.45160099248E-01 0.  0.
         14    1    1    2    0    0  0.88306848900E-03  0.35314294050E-03  0.14311290247E-01  0.14342857052E-01  0.00000000000E+00 0.  1.
     999901    1    3    3    0    0 -0.48632271667E-01 -0.11676088695E+00 -0.52403241286E-01  0.89058649342E+00  0.88000000000E+00 0.  1.
        -11    1    4    4    0    0  0.26853853257E-01  0.16466268137E-01  0.10919157040E-01  0.33343013250E-01  0.51100000000E-03 0.  1.
         11    1    4    4    0    0  0.20895349921E-01  0.99941475876E-01  0.27172793999E-01  0.10565763628E+00  0.51100000000E-03 0. -1.
</event>
<event>
 8    1  0.2025822E+004  0.1043930E+01  0.7957747E-01            NaN
         13   -1    0    0    0    0  0.00000000000E+00  0.00000000000E+00  0.74505805969E-08  0.10566000000E+00  0.10566000000E+00 0. -1.
     999900   -1    0    0    0    0 -0.00000000000E+00 -0.00000000000E+00 -0.74505805969E-08  0.93827000000E+00  0.93827000000E+00 0. -1.
     999902    2    1    2    0    0  0.13215577657E-01  0.14833899938E-02 -0.28507646661E-02  0.10303293089E+01  0.10302395382E+01 0.  0.
     999903    2    3    3    0    0 -0.28359182555E-01 -0.12131772086E+00  0.43756701970E-01  0.13961003246E+00  0.45321954580E-01 0.  0.
         14    1    1    2    0    0 -0.13215577657E-01 -0.14833899938E-02  0.28507646661E-02  0.13600691080E-01  0.00000000000E+00 0. -1.
     999901    1    3    3    0    0  0.41574760211E-01  0.12280111085E+00 -0.46607466636E-01  0.89071927646E+00  0.88000000000E+00 0.  1.
        -11    1    4    4    0    0 -0.34424713581E-01 -0.73521832418E-01  0.41980104940E-01  0.91395355894E-01  0.51100000000E-03 0. -1.
         11    1    4    4    0    0  0.60655310268E-02 -0.47795888439E-01  0.17765970308E-02  0.48214676565E-01  0.51100000000E-03 0.  1.
</event>
<event>
 8    1  0.2025822E+004  0.1043930E+01  0.7957747E-01            NaN
         13   -1    0    0    0    0  0.00000000000E+00  0.00000000000E+00  0.74505805969E-08  0.10566000000E+00  0.10566000000E+00 0. -1.
     999900   -1    0    0    0    0 -0.00000000000E+00 -0.00000000000E+00 -0.74505805969E-08  0.93827000000E+00  0.93827000000E+00 0.  1.
     999902    2    1    2    0    0 -0.66924968620E-03  0.77685348681E-02  0.10736280347E-01  0.10306610232E+01  0.10305756057E+01 0.  0.
     999903    2    3    3    0    0  0.41002575136E-01 -0.64053444940E-01 -0.10766116497E+00  0.13885785389E+00  0.43663739745E-01 0.  0.
         14    1    1    2    0    0  0.66924968620E-03 -0.77685348681E-02 -0.10736280347E-01  0.13268976781E-01  0.00000000000E+00 0.  1.
     999901    1    3    3    0    0 -0.41671824822E-01  0.71821979808E-01  0.11839744531E+00  0.89180316933E+00  0.88000000000E+00 0. -1.
        -11    1    4    4    0    0  0.42467021731E-02 -0.40882067055E-01 -0.70839926117E-01  0.81901978848E-01  0.51100000000E-03 0.  1.
         11    1    4    4    0    0  0.36755872963E-01 -0.23171377886E-01 -0.36821238850E-01  0.56955875042E-01  0.51100000000E-03 0. -1.
</event>
<event>
 8    1  0.2025822E+004  0.1043930E+01  0.7957747E-01            NaN
         13   -1    0    0    0    0  0.00000000000E+00  0.00000000000E+00  0.74505805969E-08  0.10566000000E+00  0.10566000000E+00 0.  1.
     999900   -1    0    0    0    0 -0.00000000000E+00 -0.00000000000E+00 -0.74505805969E-08  0.93827000000E+00  0.93827000000E+00 0. -1.
     999902    2    1    2    0    0  0.74711676747E-03  0.49978550071E-02 -0.13240965267E-01  0.10297574950E+01  0.10296599626E+01 0.  0.
     999903    2    3    3    0    0  0.12961754876E+00 -0.12757632548E-01 -0.22475282498E-01  0.14014627751E+00  0.46608739961E-01 0.  0.
         14    1    1    2    0    0 -0.74711676747E-03 -0.49978550071E-02  0.13240965267E-01  0.14172505049E-01  0.00000000000E+00 0.  1.
     999901    1    3    3    0    0 -0.12887043200E+00  0.17755487555E-01  0.92343172305E-02  0.88961121744E+00  0.88000000000E+00 0. -1.
        -11    1    4    4    0    0  0.75613001268E-01  0.62276779296E-02  0.61915871318E-02  0.76122971601E-01  0.51100000000E-03 0.  1.
         11    1    4    4    0    0  0.54004547497E-01 -0.18985310477E-01 -0.28666869630E-01  0.64023305910E-01  0.51100000000E-03 0. -1.
</event>
<event>
 8    1  0.2025822E+004  0.1043930E+01  0.7957747E-01            NaN
         13   -1    0    0    0    0  0.00000000000E+00  0.00000000000E+00  0.74505805969E-08  0.10566000000E+00  0.10566000000E+00 0.  1.
     999900   -1    0    0    0    0 -0.00000000000E+00 -0.00000000000E+00 -0.74505805969E-08  0.93827000000E+00  0.93827000000E+00 0. -1.
     999902    2    1    2    0    0  0.45589498027E-02 -0.30967180977E-02  0.14231087521E-01  0.10286690191E+01  0.10285558095E+01 0.  0.
     999903    2    3    3    0    0 -0.61445470246E-01  0.19388996428E-01 -0.11221221565E+00  0.13690105614E+00  0.44708375457E-01 0.  0.
         14    1    1    2    0    0 -0.45589498027E-02  0.30967180977E-02 -0.14231087521E-01  0.15260980909E-01  0.00000000000E+00 0. -1.
     999901    1    3    3    0    0  0.66004420049E-01 -0.22485714526E-01  0.12644330317E+00  0.89176796295E+00  0.88000000000E+00 0.  1.
        -11    1    4    4    0    0 -0.45071500416E-01  0.16605162256E-01 -0.39138144601E-01  0.61961496489E-01  0.51100000000E-03 0. -1.
         11    1    4    4    0    0 -0.16373969830E-01  0.27838341717E-02 -0.73074071047E-01  0.74939559654E-01  0.51100000000E-03 0.  1.
</event>
<event>
 8    1  0.2025822E+004  0.1043930E+01  0.7957747E-01            NaN
         13   -1    0    0    0    0  0.00000000000E+00  0.00000000000E+00  0.74505805969E-08  0.10566000000E+00  0.10566000000E+00 0.  1.
     999900   -1    0    0    0    0 -0.00000000000E+00 -0.00000000000E+00 -0.74505805969E-08  0.93827000000E+00  0.93827000000E+00 0. -1.
     999902    2    1    2    0    0 -0.11768081400E-01 -0.54728044874E-02  0.54852294744E-02  0.10298400365E+01  0.10297436447E+01 0.  0.
     999903    2    3    3    0    0 -0.20970399048E-01 -0.12364016695E+00  0.46871433809E-01  0.14093001513E+00  0.44019192844E-01 0.  0.
         14    1    1    2    0    0  0.11768081400E-01  0.54728044874E-02 -0.54852294744E-02  0.14089963491E-01  0.00000000000E+00 0. -1.
     999901    1    3    3    0    0  0.92023176481E-02  0.11816736246E+00 -0.41386204335E-01  0.88891002138E+00  0.88000000000E+00 0. -1.
        -11    1    4    4    0    0 -0.33905717194E-01 -0.74115979963E-01  0.24878837511E-01  0.85217332868E-01  0.51100000000E-03 0.  1.
         11    1    4    4    0    0  0.12935318146E-01 -0.49524186983E-01  0.21992596298E-01  0.55712682261E-01  0.51100000000E-03 0. -1.
</event>
<event>
 8    1  0.2025822E+004  0.1043930E+01  0.7957747E-01            NaN
         13   -1    0    0    0    0  0.00000000000E+00  0.00000000000E+00  0.74505805969E-08  0.10566000000E+00  0.10566000000E+00 0. -1.
     999900   -1    0    0    0    0 -0.00000000000E+00 -0.00000000000E+00 -0.74505805969E-08  0.93827000000E+00  0.93827000000E+00 0. -1.
     999902    2    1    2    0    0 -0.51701310936E-02 -0.12678406956E-01  0.36859760537E-02  0.10297504839E+01  0.10296528543E+01 0.  0.
     999903    2    3    3    0    0 -0.74105468129E-01  0.95663653252E-01 -0.50955574248E-01  0.13875341219E+00  0.44865174556E-01 0.  0.
         14    1    1    2    0    0  0.51701310936E-02  0.12678406956E-01 -0.36859760537E-02  0.14179516139E-01  0.00000000000E+00 0.  1.
     999901    1    3    3    0    0  0.68935337035E-01 -0.10834206021E+00  0.54641550302E-01  0.89099707167E+00  0.88000000000E+00 0. -1.
        -11    1    4    4    0    0 -0.11969326722E-01 -0.80148667724E-03 -0.13458155999E-01  0.18035804583E-01  0.51100000000E-03 0. -1.
         11    1    4    4    0    0 -0.62136141407E-01  0.96465139929E-01 -0.37497418249E-01  0.12071760761E+00  0.51100000000E-03 0.  1.
</event>
<event>
 8    1  0.2025822E+004  0.1043930E+01  0.7957747E-01            NaN
         13   -1    0    0    0    0  0.00000000000E+00  0.00000000000E+00  0.74505805969E-08  0.10566000000E+00  0.10566000000E+00 0.  1.
     999900   -1    0    0    0    0 -0.00000000000E+00 -0.00000000000E+00 -0.74505805969E-08  0.93827000000E+00  0.93827000000E+00 0. -1.
     999902    2    1    2    0    0 -0.28701228323E-02  0.13272073541E-01  0.10444779903E-02  0.10303110252E+01  0.10302210113E+01 0.  0.
     999903    2    3    3    0    0  0.21598745195E-01  0.98543410207E-01  0.88499613266E-01  0.14153752925E+00  0.44982009173E-01 0.  0.
         14    1    1    2    0    0  0.28701228323E-02 -0.13272073541E-01 -0.10444779903E-02  0.13618974830E-01  0.00000000000E+00 0. -1.
     999901    1    3    3    0    0 -0.24468868028E-01 -0.85271336666E-01 -0.87455135276E-01  0.88877349592E+00  0.88000000000E+00 0. -1.
        -11    1    4    4    0    0 -0.43370626899E-02  0.71266331144E-01  0.68347853148E-01  0.98840225710E-01  0.51100000000E-03 0.  1.
         11    1    4    4    0    0  0.25935807885E-01  0.27277079063E-01  0.20151760118E-01  0.42697303542E-01  0.51100000000E-03 0. -1.
</event>
<event>
 8    1  0.2025822E+004  0.1043930E+01  0.7957747E-01            NaN
         13   -1    0    0    0    0  0.00000000000E+00  0.00000000000E+00  0.74505805969E-08  0.10566000000E+00  0.10566000000E+00 0. -1.
     999900   -1    0    0    0    0 -0.00000000000E+00 -0.00000000000E+00 -0.74505805969E-08  0.93827000000E+00  0.93827000000E+00 0.  1.
     999902    2    1    2    0    0 -0.18045356191E-02 -0.18830699931E-02 -0.13450423718E-01  0.10302290438E+01  0.10301379357E+01 0.  0.
     999903    2    3    3    0    0 -0.68236849622E-01  0.70316406281E-01  0.87505948526E-01  0.13903983508E+00  0.45542508425E-01 0.  0.
         14    1    1    2    0    0  0.18045356191E-02  0.18830699931E-02  0.13450423718E-01  0.13700956156E-01  0.00000000000E+00 0. -1.
     999901    1    3    3    0    0  0.66432314003E-01 -0.72199476274E-01 -0.10095637224E+00  0.89118920876E+00  0.88000000000E+00 0.  1.
        -11    1    4    4    0    0 -0.57211930647E-01  0.37261654403E-01  0.36944884236E-01  0.77632605840E-01  0.51100000000E-03 0.  1.
         11    1    4    4    0    0 -0.11024918975E-01  0.33054751878E-01  0.50561064289E-01  0.61407229242E-01  0.51100000000E-03 0. -1.
</event>
<event>
 8    1  0.2025822E+004  0.1043930E+01  0.7957747E-01            NaN
         13   -1    0    0    0    0  0.00000000000E+00  0.00000000000E+00  0.74505805969E-08  0.10566000000E+00  0.10566000000E+00 0. -1.
     999900   -1    0    0    0    0 -0.00000000000E+00 -0.00000000000E+00 -0.74505805969E-08  0.93827000000E+00  0.93827000000E+00 0. -1.
     999902    2    1    2    0    0  0.11081200884E-01 -0.20142443627E-03  0.90755771353E-02  0.10296052073E+01  0.10295055528E+01 0.  0.
     999903    2    3    3    0    0  0.88899586173E-01 -0.53861869138E-01  0.84629461764E-01  0.14132398277E+00  0.44789339566E-01 0.  0.
         14    1    1    2    0    0 -0.11081200884E-01  0.20142443627E-03 -0.90755771353E-02  0.14324792674E-01  0.00000000000E+00 0.  1.
     999901    1    3    3    0    0 -0.77818385290E-01  0.53660444701E-01 -0.75553884629E-01  0.88828122456E+00  0.88000000000E+00 0. -1.
        -11    1    4    4    0    0  0.15994238628E-01  0.21673768960E-02  0.30799990369E-01  0.34776626053E-01  0.51100000000E-03 0.  1.
         11    1    4    4    0    0  0.72905347545E-01 -0.56029246034E-01  0.53829471396E-01  0.10654735672E+00  0.51100000000E-03 0. -1.
</event>
<event>
 8    1  0.2025822E+004  0.1043930E+01  0.7957747E-01            NaN
         13   -1    0    0    0    0  0.00000000000E+00  0.00000000000E+00  0.74505805969E-08  0.10566000000E+00  0.10566000000E+00 0. -1.
     999900   -1    0    0    0    0 -0.00000000000E+00 -0.00000000000E+00 -0.74505805969E-08  0.93827000000E+00  0.93827000000E+00 0.  1.
     999902    2    1    2    0    0 -0.94577278179E-02  0.15287371395E-01  0.36846000888E-02  0.10255798333E+01  0.10254156552E+01 0.  0.
     999903    2    3    3    0    0 -0.11736713464E-01 -0.10199485660E+00  0.74996457960E-01  0.13493641653E+00  0.45195869103E-01 0.  0.
         14    1    1    2    0    0  0.94577278179E-02 -0.15287371395E-01 -0.36846000888E-02  0.18350166688E-01  0.00000000000E+00 0. -1.
     999901    1    3    3    0    0  0.22789856464E-02  0.11728222800E+00 -0.71311857871E-01  0.89064341678E+00  0.88000000000E+00 0.  1.
        -11    1    4    4    0    0 -0.26747764473E-01 -0.58407769160E-01  0.31485510226E-01  0.71543754988E-01  0.51100000000E-03 0. -1.
         11    1    4    4    0    0  0.15011051009E-01 -0.43587087442E-01  0.43510947734E-01  0.63392661545E-01  0.51100000000E-03 0.  1.
</event>
<event>
 8    1  0.2025822E+004  0.1043930E+01  0.7957747E-01            NaN
         13   -1    0    0    0    0  0.00000000000E+00  0.00000000000E+00  0.74505805969E-08  0.10566000000E+00  0.10566000000E+00 0. -1.
     999900   -1    0    0    0    0 -0.00000000000E+00 -0.00000000000E+00 -0.74505805969E-08  0.93827000000E+00  0.93827000000E+00 0. -1.
     999902    2    1    2    0    0 -0.38578547794E-02  0.14268056383E-01 -0.21269129321E-02  0.10289973433E+01  0.10288889874E+01 0.  0.
     999903    2    3    3    0    0 -0.65862098628E-01  0.10903780774E+00  0.39037736838E-01  0.14078545397E+00  0.45492192733E-01 0.  0.
         14    1    1    2    0    0  0.38578547794E-02 -0.14268056383E-01  0.21269129321E-02  0.14932656664E-01  0.00000000000E+00 0. -1.
     999901    1    3    3    0    0  0.62004243848E-01 -0.94769751353E-01 -0.41164649770E-01  0.88821188937E+00  0.88000000000E+00 0. -1.
        -11    1    4    4    0    0 -0.51088363824E-01  0.95617266416E-01  0.14852493196E-01  0.10942367308E+00  0.51100000000E-03 0. -1.
         11    1    4    4    0    0 -0.14773734804E-01  0.13420541320E-01  0.24185243642E-01  0.31361780887E-01  0.51100000000E-03 0.  1.
</event>
<event>
 8    1  0.2025822E+004  0.1043930E+01  0.7957747E-01            NaN
         13   -1    0    0    0    0  0.00000000000E+00  0.00000000000E+00  0.74505805969E-08  0.10566000000E+00  0.10566000000E+00 0.  1.
     999900   -1    0    0    0    0 -0.00000000000E+00 -0.00000000000E+00 -0.74505805969E-08  0.93827000000E+00  0.93827000000E+00 0.  1.
     999902    2    1    2    0    0  0.57592325089E-02  0.12579365401E-01 -0.16037889017E-02  0.10300022819E+01  0.10299081121E+01 0.  0.
     999903    2    3    3    0    0  0.20225974316E-01 -0.66308918158E-01  0.11052964021E+00  0.13926856532E+00  0.48713132288E-01 0.  0.
         14    1    1    2    0    0 -0.57592325089E-02 -0.12579365401E-01  0.16037889017E-02  0.13927718113E-01  0.00000000000E+00 0.  1.
     999901    1    3    3    0    0 -0.14466741807E-01  0.78888283559E-01 -0.11213342911E+00  0.89073371657E+00  0.88000000000E+00 0.  1.
        -11    1    4    4    0    0  0.12955382036E-01 -0.63839793485E-01  0.61329604286E-01  0.89470345025E-01  0.51100000000E-03 0. -1.
         11    1    4    4    0    0  0.72705922799E-02 -0.24691246729E-02  0.49200035925E-01  0.49798220297E-01  0.51100000000E-03 0.  1.
</event>
<event>
 8    1  0.2025822E+004  0.1043930E+01  0.7957747E-01            NaN
         13   -1    0    0    0    0  0.00000000000E+00  0.00000000000E+00  0.74505805969E-08  0.10566000000E+00  0.10566000000E+00 0.  1.
     999900   -1    0    0    0    0 -0.00000000000E+00 -0.00000000000E+00 -0.74505805969E-08  0.93827000000E+00  0.93827000000E+00 0.  1.
     999902    2    1    2    0    0 -0.44739397926E-02  0.20426341029E-02 -0.12757432545E-01  0.10302573786E+01  0.10301666494E+01 0.  0.
     999903    2    3    3    0    0 -0.10365948157E+00  0.83315213905E-01  0.23211701362E-01  0.14023671448E+00  0.37958398576E-01 0.  0.
         14    1    1    2    0    0  0.44739397926E-02 -0.20426341029E-02  0.12757432545E-01  0.13672621420E-01  0.00000000000E+00 0.  1.
     999901    1    3    3    0    0  0.99185541774E-01 -0.81272579802E-01 -0.35969133907E-01  0.89002066410E+00  0.88000000000E+00 0.  1.
        -11    1    4    4    0    0 -0.70269965777E-01  0.51401825687E-01 -0.30200189485E-02  0.87117147621E-01  0.51100000000E-03 0. -1.
         11    1    4    4    0    0 -0.33389515789E-01  0.31913388218E-01  0.26231720311E-01  0.53119566862E-01  0.51100000000E-03 0.  1.
</event>
<event>
 8    1  0.2025822E+004  0.1043930E+01  0.7957747E-01            NaN
         13   -1    0    0    0    0  0.00000000000E+00  0.00000000000E+00  0.74505805969E-08  0.10566000000E+00  0.10566000000E+00 0.  1.
     999900   -1    0    0    0    0 -0.00000000000E+00 -0.00000000000E+00 -0.74505805969E-08  0.93827000000E+00  0.93827000000E+00 0.  1.
     999902    2    1    2    0    0 -0.20926722170E-02 -0.59452598818E-02 -0.12482614856E-01  0.10299464001E+01  0.10298514680E+01 0.  0.
     999903    2    3    3    0    0 -0.11698862717E+00 -0.84144939233E-02  0.60578783108E-01  0.13947172588E+00  0.45004785978E-01 0.  0.
         14    1    1    2    0    0  0.20926722170E-02  0.59452598818E-02  0.12482614856E-01  0.13983599884E-01  0.00000000000E+00 0.  1.
     999901    1    3    3    0    0  0.11489595496E+00  0.24692340415E-02 -0.73061397965E-01  0.89047467424E+00  0.88000000000E+00 0.  1.
        -11    1    4    4    0    0 -0.81899812077E-01  0.15036763281E-01  0.36945358169E-01  0.91098320947E-01  0.51100000000E-03 0.  1.
         11    1    4    4    0    0 -0.35088815098E-01 -0.23451257204E-01  0.23633424940E-01  0.48373404933E-01  0.51100000000E-03 0. -1.
</event>
<event>
 8    1  0.2025822E+004  0.1043930E+01  0.7957747E-01            NaN
         13   -1    0    0    0    0  0.00000000000E+00  0.00000000000E+00  0.74505805969E-08  0.10566000000E+00  0.10566000000E+00 0. -1.
     999900   -1    0    0    0    0 -0.00000000000E+00 -0.00000000000E+00 -0.74505805969E-08  0.93827000000E+00  0.93827000000E+00 0.  1.
     999902    2    1    2    0    0 -0.46186977469E-02 -0.13023305311E-01  0.10339725660E-02  0.10300733067E+01  0.10299801014E+01 0.  0.
     999903    2    3    3    0    0  0.12642908860E+00 -0.17675312942E-02 -0.37922705703E-01  0.13944552948E+00  0.44938685710E-01 0.  0.
         14    1    1    2    0    0  0.46186977469E-02  0.13023305311E-01 -0.10339725660E-02  0.13856693306E-01  0.00000000000E+00 0.  1.
     999901    1    3    3    0    0 -0.13104778635E+00 -0.11255774017E-01  0.38956678269E-01  0.89062777721E+00  0.88000000000E+00 0. -1.
        -11    1    4    4    0    0  0.36810957398E-01 -0.19857425526E-01 -0.43702721880E-02  0.42056204454E-01  0.51100000000E-03 0.  1.
         11    1    4    4    0    0  0.89618131206E-01  0.18089894232E-01 -0.33552433515E-01  0.97389325031E-01  0.51100000000E-03 0. -1.
</event>
<event>
 8    1  0.2025822E+004  0.1043930E+01  0.7957747E-01            NaN
         13   -1    0    0    0    0  0.00000000000E+00  0.00000000000E+00  0.74505805969E-08  0.10566000000E+00  0.10566000000E+00 0.  1.
     999900   -1    0    0    0    0 -0.00000000000E+00 -0.00000000000E+00 -0.74505805969E-08  0.93827000000E+00  0.93827000000E+00 0.  1.
     999902    2    1    2    0    0 -0.80549101494E-02 -0.11733644466E-01 -0.40108174538E-02  0.10291432949E+01  0.10290370620E+01 0.  0.
     999903    2    3    3    0    0 -0.19403860359E-01 -0.28494276217E-01 -0.12821004550E+00  0.14019157201E+00  0.45026964386E-01 0.  0.
         14    1    1    2    0    0  0.80549101494E-02  0.11733644466E-01  0.40108174538E-02  0.14786705063E-01  0.00000000000E+00 0.  1.
     999901    1    3    3    0    0  0.11348950210E-01  0.16760631752E-01  0.12419922805E+00  0.88895172293E+00  0.88000000000E+00 0. -1.
        -11    1    4    4    0    0 -0.23106503682E-01 -0.38521950558E-01 -0.11292510625E+00  0.12153267845E+00  0.51100000000E-03 0.  1.
         11    1    4    4    0    0  0.37026433227E-02  0.10027674340E-01 -0.15284939245E-01  0.18658893562E-01  0.51100000000E-03 0. -1.
</event>
<event>
 7    1  0.2025822E+004  0.1043930E+01  0.7957747E-01            NaN
         13   -1    0    0    0    0  0.00000000000E+00  0.00000000000E+00  0.74505805969E-08  0.10566000000E+00  0.10566000000E+00 0. -1.
     999900   -1    0    0    0    0 -0.00000000000E+00 -0.00000000000E+00 -0.74505805969E-08  0.93827000000E+00  0.93827000000E+00 0.  1.
     999902    2    1    2    0    0 -0.95456822445E-02  0.10295094884E-01 -0.12714317700E-02  0.10298329944E+01  0.10297365055E+01 0.  0.
         14    1    1    2    0    0  0.95456822445E-02 -0.10295094884E-01  0.12714317700E-02  0.14097005602E-01  0.00000000000E+00 0.  1.
     999901    1    3    3    0    0 -0.13204873546E-01 -0.62899490381E-02 -0.10481812097E+00  0.88634122697E+00  0.88000000000E+00 0.  1.
        -11    1    3    3    0    0  0.27151802581E-01  0.13676456093E-01  0.11372476015E+00  0.11771936131E+00  0.51100000000E-03 0. -1.
         11    1    3    3    0    0 -0.23492611279E-01  0.29085878296E-02 -0.10178070951E-01  0.25772406119E-01  0.51100000000E-03 0.  1.
</event>
<event>
 8    1  0.2025822E+004  0.1043930E+01  0.7957747E-01            NaN
         13   -1    0    0    0    0  0.00000000000E+00  0.00000000000E+00  0.74505805969E-08  0.10566000000E+00  0.10566000000E+00 0.  1.
     999900   -1    0    0    0    0 -0.00000000000E+00 -0.00000000000E+00 -0.74505805969E-08  0.93827000000E+00  0.93827000000E+00 0.  1.
     999902    2    1    2    0    0 -0.12193370636E-01  0.21822050536E-02  0.48708987845E-02  0.10306196296E+01  0.10305336748E+01 0.  0.
     999903    2    3    3    0    0 -0.23709478516E-01 -0.34893882408E-01  0.12639747499E+00  0.14142000870E+00  0.47366388681E-01 0.  0.
         14    1    1    2    0    0  0.12193370636E-01 -0.21822050536E-02 -0.48708987845E-02  0.13310370444E-01  0.00000000000E+00 0. -1.
     999901    1    3    3    0    0  0.11516107879E-01  0.37076087461E-01 -0.12152657621E+00  0.88919962085E+00  0.88000000000E+00 0.  1.
        -11    1    4    4    0    0  0.27938086704E-02 -0.36573895609E-02  0.77457681257E-01  0.77595975231E-01  0.51100000000E-03 0. -1.
         11    1    4    4    0    0 -0.26503287186E-01 -0.31236492847E-01  0.48939793733E-01  0.63824033472E-01  0.51100000000E-03 0.  1.
</event>
<event>
 8    1  0.2025822E+004  0.1043930E+01  0.7957747E-01            NaN
         13   -1    0    0    0    0  0.00000000000E+00  0.00000000000E+00  0.74505805969E-08  0.10566000000E+00  0.10566000000E+00 0. -1.
     999900   -1    0    0    0    0 -0.00000000000E+00 -0.00000000000E+00 -0.74505805969E-08  0.93827000000E+00  0.93827000000E+00 0. -1.
     999902    2    1    2    0    0 -0.78672381886E-02 -0.13393857478E-01  0.35629212254E-02  0.10279931477E+01  0.10278696067E+01 0.  0.
     999903    2    3    3    0    0 -0.95586291515E-01  0.63518198786E-01  0.62302829979E-01  0.13835250471E+00  0.45699805605E-01 0.  0.
         14    1    1    2    0    0  0.78672381886E-02  0.13393857478E-01 -0.35629212254E-02  0.15936852340E-01  0.00000000000E+00 0.  1.
     999901    1    3    3    0    0  0.87719053326E-01 -0.76912056264E-01 -0.58739908753E-01  0.88964064295E+00  0.88000000000E+00 0. -1.
        -11    1    4    4    0    0 -0.78070057358E-01  0.26627126537E-01  0.37919468595E-01  0.90785929212E-01  0.51100000000E-03 0. -1.
         11    1    4    4    0    0 -0.17516234157E-01  0.36891072250E-01  0.24383361384E-01  0.47566575493E-01  0.51100000000E-03 0.  1.
</event>
<event>
 8    1  0.2025822E+004  0.1043930E+01  0.7957747E-01            NaN
         13   -1    0    0    0    0  0.00000000000E+00  0.00000000000E+00  0.74505805969E-08  0.10566000000E+00  0.10566000000E+00 0. -1.
     999900   -1    0    0    0    0 -0.00000000000E+00 -0.00000000000E+00 -0.74505805969E-08  0.93827000000E+00  0.93827000000E+00 0. -1.
     999902    2    1    2    0    0  0.59688233416E-02  0.27295664406E-03 -0.12563003060E-01  0.10300184795E+01  0.10299245301E+01 0.  0.
     999903    2    3    3    0    0 -0.88041634231E-01 -0.45531646106E-01  0.85234742603E-01  0.13844659408E+00  0.45585501109E-01 0.  0.
         14    1    1    2    0    0 -0.59688233416E-02 -0.27295664406E-03  0.12563003060E-01  0.13911520524E-01  0.00000000000E+00 0. -1.
     999901    1    3    3    0    0  0.94010457573E-01  0.45804602750E-01 -0.97797745663E-01  0.89157188539E+00  0.88000000000E+00 0. -1.
        -11    1    4    4    0    0 -0.16903293554E-03 -0.11351069403E-01  0.29967510379E-04  0.11363862361E-01  0.51100000000E-03 0. -1.
         11    1    4    4    0    0 -0.87872601296E-01 -0.34180576703E-01  0.85204775092E-01  0.12708273172E+00  0.51100000000E-03 0.  1.
</event>
<event>
 8    1  0.2025822E+004  0.1043930E+01  0.7957747E-01            NaN
         13   -1    0    0    0    0  0.00000000000E+00  0.00000000000E+00  0.74505805969E-08  0.10566000000E+00  0.10566000000E+00 0.  1.
     999900   -1    0    0    0    0 -0.00000000000E+00 -0.00000000000E+00 -0.74505805969E-08  0.93827000000E+00  0.93827000000E+00 0.  1.
     999902    2    1    2    0    0 -0.78178512296E-04  0.13902940634E-01  0.18098901507E-03  0.10300256616E+01  0.10299318098E+01 0.  0.
     999903    2    3    3    0    0 -0.47151437375E-01  0.11119970141E+00 -0.57822165200E-01  0.14151740767E+00  0.45772723795E-01 0.  0.
         14    1    1    2    0    0  0.78178512296E-04 -0.13902940634E-01 -0.18098901507E-03  0.13904338430E-01  0.00000000000E+00 0.  1.
     999901    1    3    3    0    0  0.47073258862E-01 -0.97296760776E-01  0.58003154215E-01  0.88850825390E+00  0.88000000000E+00 0. -1.
        -11    1    4    4    0    0 -0.55187457092E-01  0.99678152731E-01 -0.57095054256E-01  0.12744212763E+00  0.51100000000E-03 0.  1.
         11    1    4    4    0    0  0.80360197177E-02  0.11521548679E-01 -0.72711094360E-03  0.14075280040E-01  0.51100000000E-03 0. -1.
</event>
<event>
 8    1  0.2025822E+004  0.1043930E+01  0.7957747E-01            NaN
         13   -1    0    0    0    0  0.00000000000E+00  0.00000000000E+00  0.74505805969E-08  0.10566000000E+00  0.10566000000E+00 0. -1.
     999900   -1    0    0    0    0 -0.00000000000E+00 -0.00000000000E+00 -0.74505805969E-08  0.93827000000E+00  0.93827000000E+00 0.  1.
     999902    2    1    2    0    0 -0.14125806583E-01 -0.23231614003E-02 -0.10751986954E-02  0.10295741112E+01  0.10294740205E+01 0.  0.
     999903    2    3    3    0    0 -0.40320256014E-01 -0.56074005735E-01  0.11338966185E+00  0.14014873113E+00  0.44882449322E-01 0.  0.
         14    1    1    2    0    0  0.14125806583E-01  0.23231614003E-02  0.10751986954E-02  0.14355888783E-01  0.00000000000E+00 0.  1.
     999901    1    3    3    0    0  0.26194449430E-01  0.53750844335E-01 -0.11446486055E+00  0.88942538009E+00  0.88000000000E+00 0.  1.
        -11    1    4    4    0    0 -0.18322332384E-01 -0.42889939260E-02  0.58851518134E-01  0.61788879587E-01  0.51100000000E-03 0.  1.
         11    1    4    4    0    0 -0.21997923630E-01 -0.51785011809E-01  0.54538143719E-01  0.78359851540E-01  0.51100000000E-03 0. -1.
</event>
<event>
 8    1  0.2025822E+004  0.1043930E+01  0.7957747E-01            NaN
         13   -1    0    0    0    0  0.00000000000E+00  0.00000000000E+00  0.74505805969E-08  0.10566000000E+00  0.10566000000E+00 0. -1.
     999900   -1    0    0    0    0 -0.00000000000E+00 -0.00000000000E+00 -0.74505805969E-08  0.93827000000E+00  0.93827000000E+00 0.  1.
     999902    2    1    2    0    0 -0.41836941574E-02 -0.11001525244E-01  0.71757926516E-02  0.10301449046E+01  0.10300526664E+01 0.  0.
     999903    2    3    3    0    0 -0.58216343773E-01 -0.12037209183E+00 -0.12008294724E-01  0.14152266921E+00  0.44787091711E-01 0.  0.
         14    1    1    2    0    0  0.41836941574E-02  0.11001525244E-01 -0.71757926516E-02  0.13785095382E-01  0.00000000000E+00 0.  1.
     999901    1    3    3    0    0  0.54032649616E-01  0.10937056658E+00  0.19184087375E-01  0.88862223541E+00  0.88000000000E+00 0.  1.
        -11    1    4    4    0    0 -0.32639846680E-01 -0.22017927823E-01 -0.41277483924E-02  0.39591011160E-01  0.51100000000E-03 0.  1.
         11    1    4    4    0    0 -0.25576497093E-01 -0.98354164005E-01 -0.78805463312E-02  0.10193165805E+00  0.51100000000E-03 0. -1.
</event>
<event>
 8    1  0.2025822E+004  0.1043930E+01  0.7957747E-01            NaN
         13   -1    0    0    0    0  0.00000000000E+00  0.00000000000E+00  0.74505805969E-08  0.10566000000E+00  0.10566000000E+00 0.  1.
     999900   -1    0    0    0    0 -0.00000000000E+00 -0.00000000000E+00 -0.74505805969E-08  0.93827000000E+00  0.93827000000E+00 0.  1.
     999902    2    1    2    0    0  0.35042296352E-02  0.87007985101E-02 -0.88639328713E-02  0.10310244653E+01  0.10309436916E+01 0.  0.
     999903    2    3    3    0    0 -0.89738132859E-01 -0.96920290998E-01 -0.69301974484E-03  0.13977998900E+00  0.45732808261E-01 0.  0.
         14    1    1    2    0    0 -0.35042296352E-02 -0.87007985101E-02  0.88639328713E-02  0.12905534704E-01  0.00000000000E+00 0.  1.
     999901    1    3    3    0    0  0.93242362494E-01  0.10562108951E+00 -0.81709131264E-02  0.89124447630E+00  0.88000000000E+00 0.  1.
        -11    1    4    4    0    0 -0.26990696907E-01 -0.43743012108E-02  0.50888821348E-02  0.27817082396E-01  0.51100000000E-03 0. -1.
         11    1    4    4    0    0 -0.62747435952E-01 -0.92545989787E-01 -0.57819018796E-02  0.11196290660E+00  0.51100000000E-03 0.  1.
</event>
<event>
 8    1  0.2025822E+004  0.1043930E+01  0.7957747E-01            NaN
         13   -1    0    0    0    0  0.00000000000E+00  0.00000000000E+00  0.74505805969E-08  0.10566000000E+00  0.10566000000E+00 0. -1.
     999900   -1    0    0    0    0 -0.00000000000E+00 -0.00000000000E+00 -0.74505805969E-08  0.93827000000E+00  0.93827000000E+00 0.  1.
     999902    2    1    2    0    0 -0.12433035742E-01 -0.61948867588E-02 -0.19037009605E-02  0.10299092626E+01  0.10298138221E+01 0.  0.
     999903    2    3    3    0    0 -0.11864905108E+00  0.61164901238E-01 -0.18825298525E-01  0.14080548721E+00  0.40657728639E-01 0.  0.
         14    1    1    2    0    0  0.12433035742E-01  0.61948867588E-02  0.19037009605E-02  0.14020737394E-01  0.00000000000E+00 0. -1.
     999901    1    3    3    0    0  0.10621601534E+00 -0.67359787997E-01  0.16921597565E-01  0.88910377539E+00  0.88000000000E+00 0.  1.
        -11    1    4    4    0    0 -0.89947204461E-01  0.26576119782E-01 -0.56391433900E-02  0.93961964604E-01  0.51100000000E-03 0.  1.
         11    1    4    4    0    0 -0.28701846623E-01  0.34588781456E-01 -0.13186155135E-01  0.46843522609E-01  0.51100000000E-03 0. -1.
</event>
<event>
 8    1  0.2025822E+004  0.1043930E+01  0.7957747E-01            NaN
         13   -1    0    0    0    0  0.00000000000E+00  0.00000000000E+00  0.74505805969E-08  0.10566000000E+00  0.10566000000E+00 0. -1.
     999900   -1    0    0    0    0 -0.00000000000E+00 -0.00000000000E+00 -0.74505805969E-08  0.93827000000E+00  0.93827000000E+00 0.  1.
     999902    2    1    2    0    0 -0.94593523252E-02  0.29512920626E-02 -0.97360137418E-02  0.10300382962E+01  0.10299446161E+01 0.  0.
     999903    2    3    3    0    0  0.68973346619E-03 -0.13180124610E+00 -0.11401947737E-01  0.13972148414E+00  0.44944905273E-01 0.  0.
         14    1    1    2    0    0  0.94593523252E-02 -0.29512920626E-02  0.97360137418E-02  0.13891703813E-01  0.00000000000E+00 0. -1.
     999901    1    3    3    0    0 -0.10149085791E-01  0.13475253817E+00  0.16659339949E-02  0.89031681205E+00  0.88000000000E+00 0. -1.
        -11    1    4    4    0    0  0.13452731273E-01 -0.10058790589E-01 -0.24637421174E-02  0.16984887195E-01  0.51100000000E-03 0.  1.
         11    1    4    4    0    0 -0.12762997806E-01 -0.12174245552E+00 -0.89382056193E-02  0.12273659694E+00  0.51100000000E-03 0. -1.
</event>
<event>
 8    1  0.2025822E+004  0.1043930E+01  0.7957747E-01            NaN
         13   -1    0    0    0    0  0.00000000000E+00  0.00000000000E+00  0.74505805969E-08  0.10566000000E+00  0.10566000000E+00 0. -1.
     999900   -1    0    0    0    0 -0.00000000000E+00 -0.00000000000E+00 -0.74505805969E-08  0.93827000000E+00  0.93827000000E+00 0. -1.
     999902    2    1    2    0    0  0.13984326039E-01 -0.38501247681E-02 -0.22524147964E-02  0.10292515053E+01  0.10291468325E+01 0.  0.
     999903    2    3    3    0    0  0.82004634529E-03  0.69087850227E-01 -0.11241688883E+00  0.13929113659E+00  0.44616816502E-01 0.  0.
         14    1    1    2    0    0 -0.13984326039E-01  0.38501247681E-02  0.22524147964E-02  0.14678494742E-01  0.00000000000E+00 0.  1.
     999901    1    3    3    0    0  0.13164279694E-01 -0.72937974995E-01  0.11016447403E+00  0.88996036867E+00  0.88000000000E+00 0.  1.
        -11    1    4    4    0    0  0.29829533125E-02  0.39550350701E-01 -0.99235950717E-01  0.10686984274E+00  0.51100000000E-03 0.  1.
         11    1    4    4    0    0 -0.21629069672E-02  0.29537499526E-01 -0.13180938110E-01  0.32421293855E-01  0.51100000000E-03 0. -1.
</event>
<event>
 8    1  0.2025822E+004  0.1043930E+01  0.7957747E-01            NaN
         13   -1    0    0    0    0  0.00000000000E+00  0.00000000000E+00  0.74505805969E-08  0.10566000000E+00  0.10566000000E+00 0. -1.
     999900   -1    0    0    0    0 -0.00000000000E+00 -0.00000000000E+00 -0.74505805969E-08  0.93827000000E+00  0.93827000000E+00 0.  1.
     999902    2    1    2    0    0  0.54126186565E-02  0.50723683238E-02 -0.11204692305E-01  0.10304923480E+01  0.10304047306E+01 0.  0.
     999903    2    3    3    0    0  0.78339383875E-01 -0.63499470710E-01 -0.88521677352E-01  0.14144885844E+00  0.44748746855E-01 0.  0.
         14    1    1    2    0    0 -0.54126186565E-02 -0.50723683238E-02  0.11204692305E-01  0.13437651981E-01  0.00000000000E+00 0. -1.
     999901    1    3    3    0    0 -0.72926765219E-01  0.68571839034E-01  0.77316985047E-01  0.88904348958E+00  0.88000000000E+00 0. -1.
        -11    1    4    4    0    0  0.31086973471E-01 -0.53631461584E-01 -0.52055489501E-01  0.80949173556E-01  0.51100000000E-03 0.  1.
         11    1    4    4    0    0  0.47252410404E-01 -0.98680091258E-02 -0.36466187851E-01  0.60499684879E-01  0.51100000000E-03 0. -1.
</event>
<event>
 8    1  0.2025822E+004  0.1043930E+01  0.7957747E-01            NaN
         13   -1    0    0    0    0  0.00000000000E+00  0.00000000000E+00  0.74505805969E-08  0.10566000000E+00  0.10566000000E+00 0.  1.
     999900   -1    0    0    0    0 -0.00000000000E+00 -0.00000000000E+00 -0.74505805969E-08  0.93827000000E+00  0.93827000000E+00 0.  1.
     999902    2    1    2    0    0 -0.73808061075E-02  0.38303266137E-02  0.11347288740E-01  0.10298619986E+01  0.10297659091E+01 0.  0.
     999903    2    3    3    0    0  0.68880234227E-02 -0.81140673237E-02  0.13326486645E+00  0.14126188396E+00  0.45630168480E-01 0.  0.
         14    1    1    2    0    0  0.73808061075E-02 -0.38303266137E-02 -0.11347288740E-01  0.14068001369E-01  0.00000000000E+00 0. -1.
     999901    1    3    3    0    0 -0.14268829530E-01  0.11944393937E-01 -0.12191757771E+00  0.88860011467E+00  0.88000000000E+00 0.  1.
        -11    1    4    4    0    0 -0.11389334652E-01  0.13570330730E-01  0.39353709392E-01  0.43160704163E-01  0.51100000000E-03 0. -1.
         11    1    4    4    0    0  0.18277358075E-01 -0.21684398053E-01  0.93911157054E-01  0.98101179796E-01  0.51100000000E-03 0.  1.
</event>
<event>
 8    1  0.2025822E+004  0.1043930E+01  0.7957747E-01            NaN
         13   -1    0    0    0    0  0.00000000000E+00  0.00000000000E+00  0.74505805969E-08  0.10566000000E+00  0.10566000000E+00 0. -1.
     999900   -1    0    0    0    0 -0.00000000000E+00 -0.00000000000E+00 -0.74505805969E-08  0.93827000000E+00  0.93827000000E+00 0. -1.
     999902    2    1    2    0    0 -0.11122329520E-01  0.53587850566E-02 -0.42394037838E-02  0.10308764436E+01  0.10307937944E+01 0.  0.
     999903    2    3    3    0    0  0.32882702557E-01  0.12758255920E+00  0.22059310240E-01  0.14095132527E+00  0.44967559279E-01 0.  0.
         14    1    1    2    0    0  0.11122329520E-01 -0.53587850566E-02  0.42394037838E-02  0.13053556438E-01  0.00000000000E+00 0. -1.
     999901    1    3    3    0    0 -0.44005032077E-01 -0.12222377414E+00 -0.26298714024E-01  0.88992511830E+00  0.88000000000E+00 0. -1.
        -11    1    4    4    0    0  0.31696738983E-01  0.44405993196E-01 -0.12021670004E-02  0.54573636679E-01  0.51100000000E-03 0. -1.
         11    1    4    4    0    0  0.11859635734E-02  0.83176566001E-01  0.23261477240E-01  0.86377688588E-01  0.51100000000E-03 0.  1.
</event>
<event>
 8    1  0.2025822E+004  0.1043930E+01  0.7957747E-01            NaN
         13   -1    0    0    0    0  0.00000000000E+00  0.00000000000E+00  0.74505805969E-08  0.10566000000E+00  0.10566000000E+00 0. -1.
     999900   -1    0    0    0    0 -0.00000000000E+00 -0.00000000000E+00 -0.74505805969E-08  0.93827000000E+00  0.93827000000E+00 0. -1.
     999902    2    1    2    0    0  0.10841297535E-01  0.88763498783E-02 -0.19426795453E-02  0.10297844239E+01  0.10296872644E+01 0.  0.
     999903    2    3    3    0    0  0.23826208762E-01 -0.12956511690E+00  0.24425554358E-03  0.13886387170E+00  0.43912497771E-01 0.  0.
         14    1    1    2    0    0 -0.10841297535E-01 -0.88763498783E-02  0.19426795453E-02  0.14145576101E-01  0.00000000000E+00 0. -1.
     999901    1    3    3    0    0 -0.12984911227E-01  0.13844146678E+00 -0.21869350889E-02  0.89092055220E+00  0.88000000000E+00 0.  1.
        -11    1    4    4    0    0  0.33303168097E-01 -0.78946777021E-01  0.10582004495E-01  0.86336171721E-01  0.51100000000E-03 0. -1.
         11    1    4    4    0    0 -0.94769593346E-02 -0.50618339883E-01 -0.10337748951E-01  0.52527699979E-01  0.51100000000E-03 0.  1.
</event>
<event>
 8    1  0.2025822E+004  0.1043930E+01  0.7957747E-01            NaN
         13   -1    0    0    0    0  0.00000000000E+00  0.00000000000E+00  0.74505805969E-08  0.10566000000E+00  0.10566000000E+00 0.  1.
     999900   -1    0    0    0    0 -0.00000000000E+00 -0.00000000000E+00 -0.74505805969E-08  0.93827000000E+00  0.93827000000E+00 0. -1.
     999902    2    1    2    0    0  0.12467187464E-01 -0.55771056995E-02  0.36973910999E-02  0.10297805982E+01  0.10296833857E+01 0.  0.
     999903    2    3    3    0    0 -0.24788526004E-01  0.12597956965E+00 -0.26282909620E-01  0.13871720792E+00  0.45457116527E-01 0.  0.
         14    1    1    2    0    0 -0.12467187464E-01  0.55771056995E-02 -0.36973910999E-02  0.14149401832E-01  0.00000000000E+00 0. -1.
     999901    1    3    3    0    0  0.37255713468E-01 -0.13155667535E+00  0.29980300720E-01  0.89106339025E+00  0.88000000000E+00 0. -1.
        -11    1    4    4    0    0 -0.30377909650E-01  0.49690656082E-01 -0.21458305053E-01  0.62070110950E-01  0.51100000000E-03 0. -1.
         11    1    4    4    0    0  0.55893836458E-02  0.76288913570E-01 -0.48246045672E-02  0.76647096967E-01  0.51100000000E-03 0.  1.
</event>
<event>
 8    1  0.2025822E+004  0.1043930E+01  0.7957747E-01            NaN
         13   -1    0    0    0    0  0.00000000000E+00  0.00000000000E+00  0.74505805969E-08  0.10566000000E+00  0.10566000000E+00 0.  1.
     999900   -1    0    0    0    0 -0.00000000000E+00 -0.00000000000E+00 -0.74505805969E-08  0.93827000000E+00  0.93827000000E+00 0.  1.
     999902    2    1    2    0    0 -0.12721181815E-01 -0.48543470507E-02 -0.11899510023E-03  0.10303135646E+01  0.10302235846E+01 0.  0.
     999903    2    3    3    0    0 -0.12718527444E+00 -0.26417471776E-01  0.33901150313E-01  0.14198684145E+00  0.46227678944E-01 0.  0.
         14    1    1    2    0    0  0.12721181815E-01  0.48543470507E-02  0.11899510023E-03  0.13616435359E-01  0.00000000000E+00 0. -1.
     999901    1    3    3    0    0  0.11446409263E+00  0.21563124726E-01 -0.34020145414E-01  0.88832672320E+00  0.88000000000E+00 0.  1.
        -11    1    4    4    0    0 -0.91387577959E-01 -0.24194314507E-01  0.29087377275E-02  0.94582113192E-01  0.51100000000E-03 0.  1.
         11    1    4    4    0    0 -0.35797696485E-01 -0.22231572690E-02  0.30992412586E-01  0.47404728253E-01  0.51100000000E-03 0. -1.
</event>
<event>
 8    1  0.2025822E+004  0.1043930E+01  0.7957747E-01            NaN
         13   -1    0    0    0    0  0.00000000000E+00  0.00000000000E+00  0.74505805969E-08  0.10566000000E+00  0.10566000000E+00 0.  1.
     999900   -1    0    0    0    0 -0.00000000000E+00 -0.00000000000E+00 -0.74505805969E-08  0.93827000000E+00  0.93827000000E+00 0. -1.
     999902    2    1    2    0    0  0.24816123247E-02 -0.80536903827E-02 -0.73593188036E-02  0.10327416176E+01  0.10326810102E+01 0.  0.
     999903    2    3    3    0    0  0.12011324037E-02 -0.86945775947E-01 -0.10526766273E+00  0.14380312440E+00  0.45133658136E-01 0.  0.
         14    1    1    2    0    0 -0.24816123247E-02  0.80536903827E-02  0.73593188036E-02  0.11188382446E-01  0.00000000000E+00 0.  1.
     999901    1    3    3    0    0  0.12804799210E-02  0.78892085565E-01  0.97908343929E-01  0.88893849315E+00  0.88000000000E+00 0. -1.
        -11    1    4    4    0    0 -0.15400479281E-01 -0.77164787258E-01 -0.85183696530E-01  0.11596595375E+00  0.51100000000E-03 0.  1.
         11    1    4    4    0    0  0.16601611685E-01 -0.97809886894E-02 -0.20083966203E-01  0.27837170649E-01  0.51100000000E-03 0. -1.
</event>
<event>
 8    1  0.2025822E+004  0.1043930E+01  0.7957747E-01            NaN
         13   -1    0    0    0    0  0.00000000000E+00  0.00000000000E+00  0.74505805969E-08  0.10566000000E+00  0.10566000000E+00 0.  1.
     999900   -1    0    0    0    0 -0.00000000000E+00 -0.00000000000E+00 -0.74505805969E-08  0.93827000000E+00  0.93827000000E+00 0. -1.
     999902    2    1    2    0    0 -0.62105925242E-03 -0.69842012993E-02 -0.11842237518E-01  0.10301676102E+01  0.10300756777E+01 0.  0.
     999903    2    3    3    0    0  0.99366747853E-01  0.14134294779E-01 -0.89208826203E-01  0.14088186230E+00  0.42614030382E-01 0.  0.
         14    1    1    2    0    0  0.62105925242E-03  0.69842012993E-02  0.11842237518E-01  0.13762389757E-01  0.00000000000E+00 0.  1.
     999901    1    3    3    0    0 -0.99987807105E-01 -0.21118496078E-01  0.77366588685E-01  0.88928574794E+00  0.88000000000E+00 0.  1.
        -11    1    4    4    0    0  0.30071006982E-01  0.16347208493E-01 -0.51833444491E-01  0.62116533831E-01  0.51100000000E-03 0. -1.
         11    1    4    4    0    0  0.69295740871E-01 -0.22129137143E-02 -0.37375381712E-01  0.78765328471E-01  0.51100000000E-03 0.  1.
</event>
<event>
 8    1  0.2025822E+004  0.1043930E+01  0.7957747E-01            NaN
         13   -1    0    0    0    0  0.00000000000E+00  0.00000000000E+00  0.74505805969E-08  0.10566000000E+00  0.10566000000E+00 0.  1.
     999900   -1    0    0    0    0 -0.00000000000E+00 -0.00000000000E+00 -0.74505805969E-08  0.93827000000E+00  0.93827000000E+00 0. -1.
     999902    2    1    2    0    0 -0.20974358920E-02 -0.52449331398E-02 -0.34238768351E-02  0.10373245860E+01  0.10373035550E+01 0.  0.
     999903    2    3    3    0    0  0.12293527617E+00  0.49846582389E-01  0.40776654246E-01  0.14568455715E+00  0.44311293797E-01 0.  0.
         14    1    1    2    0    0  0.20974358920E-02  0.52449331398E-02  0.34238768351E-02  0.66054139570E-02  0.00000000000E+00 0.  1.
     999901    1    3    3    0    0 -0.12503271206E+00 -0.55091515529E-01 -0.44200531081E-01  0.89164002889E+00  0.88000000000E+00 0.  1.
        -11    1    4    4    0    0  0.32580939144E-01  0.35808923523E-01  0.13455718340E-01  0.50250513195E-01  0.51100000000E-03 0.  1.
         11    1    4    4    0    0  0.90354337029E-01  0.14037658866E-01  0.27320935907E-01  0.95434043959E-01  0.51100000000E-03 0. -1.
</event>
<event>
 8    1  0.2025822E+004  0.1043930E+01  0.7957747E-01            NaN
         13   -1    0    0    0    0  0.00000000000E+00  0.00000000000E+00  0.74505805969E-08  0.10566000000E+00  0.10566000000E+00 0. -1.
     999900   -1    0    0    0    0 -0.00000000000E+00 -0.00000000000E+00 -0.74505805969E-08  0.93827000000E+00  0.93827000000E+00 0. -1.
     999902    2    1    2    0    0 -0.17092752107E-01 -0.10382834920E-01  0.13008158828E-01  0.10200725561E+01  0.10197935291E+01 0.  0.
     999903    2    3    3    0    0  0.43796565831E-01  0.54593956273E-02  0.11583341252E+00  0.13185438572E+00  0.44947251300E-01 0.  0.
         14    1    1    2    0    0  0.17092752107E-01  0.10382834920E-01 -0.13008158828E-01  0.23857443947E-01  0.00000000000E+00 0.  1.
     999901    1    3    3    0    0 -0.60889317938E-01 -0.15842230548E-01 -0.10282525369E+00  0.88821817033E+00  0.88000000000E+00 0. -1.
        -11    1    4    4    0    0  0.11023543649E-01 -0.10678938637E-01  0.77079124551E-01  0.78593961648E-01  0.51100000000E-03 0. -1.
         11    1    4    4    0    0  0.32773022182E-01  0.16138334264E-01  0.38754287969E-01  0.53260424075E-01  0.51100000000E-03 0.  1.
</event>
<event>
 8    1  0.2025822E+004  0.1043930E+01  0.7957747E-01            NaN
         13   -1    0    0    0    0  0.00000000000E+00  0.00000000000E+00  0.74505805969E-08  0.10566000000E+00  0.10566000000E+00 0.  1.
     999900   -1    0    0    0    0 -0.00000000000E+00 -0.00000000000E+00 -0.74505805969E-08  0.93827000000E+00  0.93827000000E+00 0.  1.
     999902    2    1    2    0    0 -0.42128212941E-02  0.24099509915E-04  0.13140176134E-01  0.10301309901E+01  0.10300385644E+01 0.  0.
     999903    2    3    3    0    0 -0.11549802104E+00  0.56718159721E-01  0.35557813151E-01  0.14102966713E+00  0.45478197276E-01 0.  0.
         14    1    1    2    0    0  0.42128212941E-02 -0.24099509915E-04 -0.13140176134E-01  0.13799009852E-01  0.00000000000E+00 0. -1.
     999901    1    3    3    0    0  0.11128519975E+00 -0.56694060211E-01 -0.22417637017E-01  0.88910132302E+00  0.88000000000E+00 0.  1.
        -11    1    4    4    0    0 -0.36773276219E-01  0.39867797886E-01  0.25363743483E-01  0.59877339258E-01  0.51100000000E-03 0. -1.
         11    1    4    4    0    0 -0.78724744823E-01  0.16850361835E-01  0.10194069669E-01  0.81152327870E-01  0.51100000000E-03 0.  1.
</event>
<event>
 8    1  0.2025822E+004  0.1043930E+01  0.7957747E-01            NaN
         13   -1    0    0    0    0  0.00000000000E+00  0.00000000000E+00  0.74505805969E-08  0.10566000000E+00  0.10566000000E+00 0. -1.
     999900   -1    0    0    0    0 -0.00000000000E+00 -0.00000000000E+00 -0.74505805969E-08  0.93827000000E+00  0.93827000000E+00 0. -1.
     999902    2    1    2    0    0 -0.82925050378E-02  0.18029400969E-01 -0.41751544766E-02  0.10236505312E+01  0.10234496339E+01 0.  0.
     999903    2    3    3    0    0 -0.52515241325E-01  0.22996639081E-01 -0.11439990556E+00  0.13565851571E+00  0.45046625982E-01 0.  0.
         14    1    1    2    0    0  0.82925050378E-02 -0.18029400969E-01  0.41751544766E-02  0.20279468780E-01  0.00000000000E+00 0. -1.
     999901    1    3    3    0    0  0.44222736287E-01 -0.49672381123E-02  0.11022475108E+00  0.88799201551E+00  0.88000000000E+00 0.  1.
        -11    1    4    4    0    0 -0.33710075860E-01  0.14817433667E-01 -0.26431476183E-01  0.45330007823E-01  0.51100000000E-03 0. -1.
         11    1    4    4    0    0 -0.18805165464E-01  0.81792054142E-02 -0.87968429375E-01  0.90328507887E-01  0.51100000000E-03 0.  1.
</event>
<event>
 8    1  0.2025822E+004  0.1043930E+01  0.7957747E-01            NaN
         13   -1    0    0    0    0  0.00000000000E+00  0.00000000000E+00  0.74505805969E-08  0.10566000000E+00  0.10566000000E+00 0. -1.
     999900   -1    0    0    0    0 -0.00000000000E+00 -0.00000000000E+00 -0.74505805969E-08  0.93827000000E+00  0.93827000000E+00 0. -1.
     999902    2    1    2    0    0 -0.55718027846E-02  0.69651322985E-02  0.10150302696E-01  0.10304175354E+01  0.10303289332E+01 0.  0.
     999903    2    3    3    0    0  0.69760545276E-01 -0.84153024257E-01  0.75620106041E-01  0.14010086352E+00  0.44289799633E-01 0.  0.
         14    1    1    2    0    0  0.55718027846E-02 -0.69651322985E-02 -0.10150302696E-01  0.13512464580E-01  0.00000000000E+00 0.  1.
     999901    1    3    3    0    0 -0.75332348061E-01  0.91118156556E-01 -0.65469803344E-01  0.89031667190E+00  0.88000000000E+00 0. -1.
        -11    1    4    4    0    0  0.53366553788E-01 -0.36173562427E-01  0.27153757748E-01  0.69957868483E-01  0.51100000000E-03 0.  1.
         11    1    4    4    0    0  0.16393991489E-01 -0.47979461830E-01  0.48466348293E-01  0.70142995033E-01  0.51100000000E-03 0. -1.
</event>
<event>
 7    1  0.2025822E+004  0.1043930E+01  0.7957747E-01            NaN
         13   -1    0    0    0    0  0.00000000000E+00  0.00000000000E+00  0.74505805969E-08  0.10566000000E+00  0.10566000000E+00 0. -1.
     999900   -1    0    0    0    0 -0.00000000000E+00 -0.00000000000E+00 -0.74505805969E-08  0.93827000000E+00  0.93827000000E+00 0.  1.
     999903    2    1    2    0    0  0.89010569899E-01 -0.25393620080E-01  0.70305278245E-01  0.12415270852E+00  0.43627346802E-01 0.  0.
         14    1    1    2    0    0 -0.12843413302E-01 -0.24946759907E-01 -0.18356670214E-01  0.33530007999E-01  0.00000000000E+00 0. -1.
     999901    1    1    2    0    0 -0.76167156598E-01  0.50340379987E-01 -0.51948608031E-01  0.88624728348E+00  0.88000000000E+00 0.  1.
        -11    1    3    3    0    0  0.32986896210E-01  0.42055608451E-02  0.58519118998E-02  0.33768743795E-01  0.51100000000E-03 0.  1.
         11    1    3    3    0    0  0.56023673689E-01 -0.29599180925E-01  0.64453366345E-01  0.90383964724E-01  0.51100000000E-03 0. -1.
</event>
<event>
 8    1  0.2025822E+004  0.1043930E+01  0.7957747E-01            NaN
         13   -1    0    0    0    0  0.00000000000E+00  0.00000000000E+00  0.74505805969E-08  0.10566000000E+00  0.10566000000E+00 0. -1.
     999900   -1    0    0    0    0 -0.00000000000E+00 -0.00000000000E+00 -0.74505805969E-08  0.93827000000E+00  0.93827000000E+00 0.  1.
     999902    2    1    2    0    0 -0.35509072928E-02  0.71107924381E-02  0.10848339485E-01  0.10304816253E+01  0.10303938671E+01 0.  0.
     999903    2    3    3    0    0 -0.12920265624E+00  0.63826945989E-02  0.34421886464E-01  0.14124340963E+00  0.45064058029E-01 0.  0.
         14    1    1    2    0    0  0.35509072928E-02 -0.71107924381E-02 -0.10848339485E-01  0.13448374671E-01  0.00000000000E+00 0. -1.
     999901    1    3    3    0    0  0.12565174895E+00  0.72809783925E-03 -0.23573546979E-01  0.88923821570E+00  0.88000000000E+00 0.  1.
        -11    1    4    4    0    0 -0.92835416457E-01  0.24967649427E-01  0.23600005551E-01  0.98989996715E-01  0.51100000000E-03 0. -1.
         11    1    4    4    0    0 -0.36367239786E-01 -0.18584954828E-01  0.10821880913E-01  0.42253412916E-01  0.51100000000E-03 0.  1.
</event>
<event>
 8    1  0.2025822E+004  0.1043930E+01  0.7957747E-01            NaN
         13   -1    0    0    0    0  0.00000000000E+00  0.00000000000E+00  0.74505805969E-08  0.10566000000E+00  0.10566000000E+00 0.  1.
     999900   -1    0    0    0    0 -0.00000000000E+00 -0.00000000000E+00 -0.74505805969E-08  0.93827000000E+00  0.93827000000E+00 0.  1.
     999902    2    1    2    0    0 -0.44122927267E-02 -0.78159916636E-02  0.14607658882E-01  0.10267852705E+01  0.10266421236E+01 0.  0.
     999903    2    3    3    0    0 -0.67826851673E-01 -0.51393505339E-01 -0.96766850525E-01  0.13643439169E+00  0.44819032536E-01 0.  0.
         14    1    1    2    0    0  0.44122927267E-02  0.78159916636E-02 -0.14607658882E-01  0.17144729534E-01  0.00000000000E+00 0. -1.
     999901    1    3    3    0    0  0.63414558947E-01  0.43577513675E-01  0.11137450941E+00  0.89035087877E+00  0.88000000000E+00 0. -1.
        -11    1    4    4    0    0 -0.12094551899E-01 -0.26359168700E-01 -0.55751017812E-01  0.62845215158E-01  0.51100000000E-03 0.  1.
         11    1    4    4    0    0 -0.55732299775E-01 -0.25034336638E-01 -0.41015832713E-01  0.73589176536E-01  0.51100000000E-03 0. -1.
</event>
<event>
 8    1  0.2025822E+004  0.1043930E+01  0.7957747E-01            NaN
         13   -1    0    0    0    0  0.00000000000E+00  0.00000000000E+00  0.74505805969E-08  0.10566000000E+00  0.10566000000E+00 0.  1.
     999900   -1    0    0    0    0 -0.00000000000E+00 -0.00000000000E+00 -0.74505805969E-08  0.93827000000E+00  0.93827000000E+00 0. -1.
     999902    2    1    2    0    0  0.20046738572E-02  0.17894759458E-01 -0.36489795595E-02  0.10255572978E+01  0.10253927125E+01 0.  0.
     999903    2    3    3    0    0 -0.84209882036E-02  0.13033056901E+00 -0.22255588733E-02  0.13834112810E+00  0.45566921685E-01 0.  0.
         14    1    1    2    0    0 -0.20046738572E-02 -0.17894759458E-01  0.36489795595E-02  0.18372702174E-01  0.00000000000E+00 0. -1.
     999901    1    3    3    0    0  0.10425662061E-01 -0.11243580955E+00 -0.14234206862E-02  0.88721616973E+00  0.88000000000E+00 0. -1.
        -11    1    4    4    0    0  0.99296207903E-03  0.56645545450E-01 -0.23089963896E-01  0.61180972097E-01  0.51100000000E-03 0.  1.
         11    1    4    4    0    0 -0.94139502827E-02  0.73685023555E-01  0.20864405023E-01  0.77160156002E-01  0.51100000000E-03 0. -1.
</event>
<event>
 8    1  0.2025822E+004  0.1043930E+01  0.7957747E-01            NaN
         13   -1    0    0    0    0  0.00000000000E+00  0.00000000000E+00  0.74505805969E-08  0.10566000000E+00  0.10566000000E+00 0.  1.
     999900   -1    0    0    0    0 -0.00000000000E+00 -0.00000000000E+00 -0.74505805969E-08  0.93827000000E+00  0.93827000000E+00 0. -1.
     999902    2    1    2    0    0  0.57190425613E-02 -0.82869256910E-02  0.11301818996E-01  0.10287935639E+01  0.10286822082E+01 0.  0.
     999903    2    3    3    0    0 -0.52526576143E-01  0.15634966784E-01 -0.11738027405E+00  0.13720852022E+00  0.45216765685E-01 0.  0.
         14    1    1    2    0    0 -0.57190425613E-02  0.82869256910E-02 -0.11301818996E-01  0.15136436101E-01  0.00000000000E+00 0. -1.
     999901    1    3    3    0    0  0.58245618704E-01 -0.23921892475E-01  0.12868209304E+00  0.89158504368E+00  0.88000000000E+00 0.  1.
        -11    1    4    4    0    0 -0.59505093230E-01  0.13945427530E-01 -0.89250114644E-01  0.10817197028E+00  0.51100000000E-03 0.  1.
         11    1    4    4    0    0  0.69785170867E-02  0.16895392531E-02 -0.28130159401E-01  0.29036549942E-01  0.51100000000E-03 0. -1.
</event>
<event>
 8    1  0.2025822E+004  0.1043930E+01  0.7957747E-01            NaN
         13   -1    0    0    0    0  0.00000000000E+00  0.00000000000E+00  0.74505805969E-08  0.10566000000E+00  0.10566000000E+00 0. -1.
     999900   -1    0    0    0    0 -0.00000000000E+00 -0.00000000000E+00 -0.74505805969E-08  0.93827000000E+00  0.93827000000E+00 0. -1.
     999902    2    1    2    0    0  0.75411331495E-02  0.85718751659E-02 -0.69376960112E-02  0.10305704581E+01  0.10304838630E+01 0.  0.
     999903    2    3    3    0    0 -0.79623675167E-01 -0.10362865325E+00 -0.19050943287E-01  0.13909225136E+00  0.43645028671E-01 0.  0.
         14    1    1    2    0    0 -0.75411331495E-02 -0.85718751659E-02  0.69376960112E-02  0.13359541870E-01  0.00000000000E+00 0. -1.
     999901    1    3    3    0    0  0.87164808317E-01  0.11220052841E+00  0.12113247276E-01  0.89147820677E+00  0.88000000000E+00 0.  1.
        -11    1    4    4    0    0 -0.70781718182E-01 -0.60410351434E-01 -0.18991262308E-01  0.94975740872E-01  0.51100000000E-03 0.  1.
         11    1    4    4    0    0 -0.88419569852E-02 -0.43218301812E-01 -0.59680979038E-04  0.44116510488E-01  0.51100000000E-03 0. -1.
</event>
<event>
 8    1  0.2025822E+004  0.1043930E+01  0.7957747E-01            NaN
         13   -1    0    0    0    0  0.00000000000E+00  0.00000000000E+00  0.74505805969E-08  0.10566000000E+00  0.10566000000E+00 0.  1.
     999900   -1    0    0    0    0 -0.00000000000E+00 -0.00000000000E+00 -0.74505805969E-08  0.93827000000E+00  0.93827000000E+00 0.  1.
     999902    2    1    2    0    0 -0.68784751364E-02  0.65594513929E-02  0.10074269973E-01  0.10300797026E+01  0.10299865839E+01 0.  0.
     999903    2    3    3    0    0 -0.47029540777E-01  0.11064851053E+00 -0.52662865037E-01  0.14082012946E+00  0.51010400110E-01 0.  0.
         14    1    1    2    0    0  0.68784751364E-02 -0.65594513929E-02 -0.10074269973E-01  0.13850297407E-01  0.00000000000E+00 0. -1.
     999901    1    3    3    0    0  0.40151065640E-01 -0.10408905913E+00  0.62737135009E-01  0.88925957314E+00  0.88000000000E+00 0.  1.
        -11    1    4    4    0    0 -0.40224594897E-01  0.45532155476E-01 -0.73590843140E-02  0.61201408970E-01  0.51100000000E-03 0. -1.
         11    1    4    4    0    0 -0.68049458796E-02  0.65116355050E-01 -0.45303780723E-01  0.79618720488E-01  0.51100000000E-03 0.  1.
</event>
<event>
 8    1  0.2025822E+004  0.1043930E+01  0.7957747E-01            NaN
         13   -1    0    0    0    0  0.00000000000E+00  0.00000000000E+00  0.74505805969E-08  0.10566000000E+00  0.10566000000E+00 0. -1.
     999900   -1    0    0    0    0 -0.00000000000E+00 -0.00000000000E+00 -0.74505805969E-08  0.93827000000E+00  0.93827000000E+00 0. -1.
     999902    2    1    2    0    0  0.47397763394E-02 -0.26661712803E-02 -0.12847719461E-01  0.10299787332E+01  0.10298842426E+01 0.  0.
     999903    2    3    3    0    0 -0.12272328806E+00  0.11376119842E-01 -0.49971161910E-01  0.13991010178E+00  0.43443043423E-01 0.  0.
         14    1    1    2    0    0 -0.47397763394E-02  0.26661712803E-02  0.12847719461E-01  0.13951266767E-01  0.00000000000E+00 0. -1.
     999901    1    3    3    0    0  0.12746306440E+00 -0.14042291123E-01  0.37123442449E-01  0.89006863146E+00  0.88000000000E+00 0.  1.
        -11    1    4    4    0    0 -0.26135284496E-01  0.14802138358E-01 -0.27400293121E-01  0.40659483270E-01  0.51100000000E-03 0. -1.
         11    1    4    4    0    0 -0.96588003562E-01 -0.34260185152E-02 -0.22570868789E-01  0.99250618506E-01  0.51100000000E-03 0.  1.
</event>
<event>
 8    1  0.2025822E+004  0.1043930E+01  0.7957747E-01            NaN
         13   -1    0    0    0    0  0.00000000000E+00  0.00000000000E+00  0.74505805969E-08  0.10566000000E+00  0.10566000000E+00 0. -1.
     999900   -1    0    0    0    0 -0.00000000000E+00 -0.00000000000E+00 -0.74505805969E-08  0.93827000000E+00  0.93827000000E+00 0. -1.
     999902    2    1    2    0    0 -0.81860340234E-02  0.10138143768E-01  0.12573439801E-02  0.10308390097E+01  0.10307558828E+01 0.  0.
     999903    2    3    3    0    0  0.12634527957E-01 -0.11073346079E-01  0.13223998027E+00  0.14064808971E+00  0.44857802744E-01 0.  0.
         14    1    1    2    0    0  0.81860340234E-02 -0.10138143768E-01 -0.12573439801E-02  0.13090990260E-01  0.00000000000E+00 0.  1.
     999901    1    3    3    0    0 -0.20820561980E-01  0.21211489848E-01 -0.13098263629E+00  0.89019092003E+00  0.88000000000E+00 0. -1.
        -11    1    4    4    0    0  0.48866794927E-02  0.97754082910E-02  0.60303207026E-02  0.12492563088E-01  0.51100000000E-03 0. -1.
         11    1    4    4    0    0  0.77478484639E-02 -0.20848754370E-01  0.12620965956E+00  0.12815552662E+00  0.51100000000E-03 0.  1.
</event>
<event>
 8    1  0.2025822E+004  0.1043930E+01  0.7957747E-01            NaN
         13   -1    0    0    0    0  0.00000000000E+00  0.00000000000E+00  0.74505805969E-08  0.10566000000E+00  0.10566000000E+00 0. -1.
     999900   -1    0    0    0    0 -0.00000000000E+00 -0.00000000000E+00 -0.74505805969E-08  0.93827000000E+00  0.93827000000E+00 0.  1.
     999902    2    1    2    0    0 -0.69043310323E-02 -0.12035469329E-01 -0.12195693203E-02  0.10300012650E+01  0.10299070814E+01 0.  0.
     999903    2    3    3    0    0 -0.50246645084E-01  0.86460678691E-01 -0.85571330986E-01  0.13944230175E+00  0.46060053489E-01 0.  0.
         14    1    1    2    0    0  0.69043310323E-02  0.12035469329E-01  0.12195693203E-02  0.13928734986E-01  0.00000000000E+00 0. -1.
     999901    1    3    3    0    0  0.43342314051E-01 -0.98496148021E-01  0.84351761665E-01  0.89055896327E+00  0.88000000000E+00 0. -1.
        -11    1    4    4    0    0 -0.25052129265E-01  0.69173996868E-02 -0.27121178682E-01  0.37566994200E-01  0.51100000000E-03 0.  1.
         11    1    4    4    0    0 -0.25194515819E-01  0.79543279005E-01 -0.58450152304E-01  0.10187530755E+00  0.51100000000E-03 0. -1.
</event>
<event>
 8    1  0.2025822E+004  0.1043930E+01  0.7957747E-01            NaN
         13   -1    0    0    0    0  0.00000000000E+00  0.00000000000E+00  0.74505805969E-08  0.10566000000E+00  0.10566000000E+00 0.  1.
     999900   -1    0    0    0    0 -0.00000000000E+00 -0.00000000000E+00 -0.74505805969E-08  0.93827000000E+00  0.93827000000E+00 0.  1.
     999902    2    1    2    0    0  0.10668714397E-01 -0.65379466073E-02  0.46434957891E-02  0.10305835298E+01  0.10304971051E+01 0.  0.
     999903    2    3    3    0    0  0.11635943340E+00  0.40221568510E-01 -0.51654254802E-01  0.14124309049E+00  0.46088569708E-01 0.  0.
         14    1    1    2    0    0 -0.10668714397E-01  0.65379466073E-02 -0.46434957891E-02  0.13346470165E-01  0.00000000000E+00 0. -1.
     999901    1    3    3    0    0 -0.10569071900E+00 -0.46759515117E-01  0.56297750591E-01  0.88934043935E+00  0.88000000000E+00 0.  1.
        -11    1    4    4    0    0  0.81713364325E-01  0.23851566809E-01 -0.11774938527E-01  0.85935332937E-01  0.51100000000E-03 0. -1.
         11    1    4    4    0    0  0.34646069071E-01  0.16370001701E-01 -0.39879316275E-01  0.55307757551E-01  0.51100000000E-03 0.  1.
</event>
<event>
 8    1  0.2025822E+004  0.1043930E+01  0.7957747E-01            NaN
         13   -1    0    0    0    0  0.00000000000E+00  0.00000000000E+00  0.74505805969E-08  0.10566000000E+00  0.10566000000E+00 0.  1.
     999900   -1    0    0    0    0 -0.00000000000E+00 -0.00000000000E+00 -0.74505805969E-08  0.93827000000E+00  0.93827000000E+00 0.  1.
     999902    2    1    2    0    0  0.30360039588E-02  0.91330166640E-02 -0.80857780528E-02  0.10313598321E+01  0.10312832270E+01 0.  0.
     999903    2    3    3    0    0  0.84362118796E-01 -0.10129949224E+00  0.17003194771E-01  0.14038355157E+00  0.45165016361E-01 0.  0.
         14    1    1    2    0    0 -0.30360039588E-02 -0.91330166640E-02  0.80857780528E-02  0.12570167865E-01  0.00000000000E+00 0.  1.
     999901    1    3    3    0    0 -0.81326114838E-01  0.11043250890E+00 -0.25088972823E-01  0.89097628057E+00  0.88000000000E+00 0.  1.
        -11    1    4    4    0    0  0.45548187844E-01 -0.57006237062E-01 -0.13264390690E-01  0.74165717560E-01  0.51100000000E-03 0.  1.
         11    1    4    4    0    0  0.38813930952E-01 -0.44293255176E-01  0.30267585460E-01  0.66217834008E-01  0.51100000000E-03 0. -1.
</event>
<event>
 7    1  0.2025822E+004  0.1043930E+01  0.7957747E-01            NaN
         13   -1    0    0    0    0  0.00000000000E+00  0.00000000000E+00  0.74505805969E-08  0.10566000000E+00  0.10566000000E+00 0.  1.
     999900   -1    0    0    0    0 -0.00000000000E+00 -0.00000000000E+00 -0.74505805969E-08  0.93827000000E+00  0.93827000000E+00 0.  1.
     999903    2    1    2    0    0  0.41779485156E-01 -0.34949933684E-01  0.72951472503E-01  0.10300164027E+00  0.48170502526E-01 0.  0.
         14    1    1    2    0    0  0.56804118958E-03  0.26594779877E-01  0.44733839924E-01  0.52045378487E-01  0.00000000000E+00 0.  1.
     999901    1    1    2    0    0 -0.42347526345E-01  0.83551538068E-02 -0.11768531243E+00  0.88888298124E+00  0.88000000000E+00 0.  1.
        -11    1    3    3    0    0  0.13296462233E-01  0.47509186332E-02  0.43981617901E-01  0.46195356585E-01  0.51100000000E-03 0. -1.
         11    1    3    3    0    0  0.28483022923E-01 -0.39700852317E-01  0.28969854602E-01  0.56806283686E-01  0.51100000000E-03 0.  1.
</event>
<event>
 8    1  0.2025822E+004  0.1043930E+01  0.7957747E-01            NaN
         13   -1    0    0    0    0  0.00000000000E+00  0.00000000000E+00  0.74505805969E-08  0.10566000000E+00  0.10566000000E+00 0.  1.
     999900   -1    0    0    0    0 -0.00000000000E+00 -0.00000000000E+00 -0.74505805969E-08  0.93827000000E+00  0.93827000000E+00 0.  1.
     999902    2    1    2    0    0  0.69608949928E-02  0.99756810150E-02 -0.69624414633E-02  0.10299141568E+01  0.10298187833E+01 0.  0.
     999903    2    3    3    0    0  0.35877621038E-01 -0.12294143334E+00 -0.30850148253E-01  0.13914271644E+00  0.44801385780E-01 0.  0.
         14    1    1    2    0    0 -0.69608949928E-02 -0.99756810150E-02  0.69624414633E-02  0.14015843248E-01  0.00000000000E+00 0.  1.
     999901    1    3    3    0    0 -0.28916726045E-01  0.13291711436E+00  0.23887706790E-01  0.89077144031E+00  0.88000000000E+00 0. -1.
        -11    1    4    4    0    0  0.34927334288E-02 -0.66941693829E-01 -0.32352876157E-01  0.74433589703E-01  0.51100000000E-03 0. -1.
         11    1    4    4    0    0  0.32384887609E-01 -0.55999739515E-01  0.15027279042E-02  0.64709126740E-01  0.51100000000E-03 0.  1.
</event>
<event>
 8    1  0.2025822E+004  0.1043930E+01  0.7957747E-01            NaN
         13   -1    0    0    0    0  0.00000000000E+00  0.00000000000E+00  0.74505805969E-08  0.10566000000E+00  0.10566000000E+00 0.  1.
     999900   -1    0    0    0    0 -0.00000000000E+00 -0.00000000000E+00 -0.74505805969E-08  0.93827000000E+00  0.93827000000E+00 0. -1.
     999902    2    1    2    0    0  0.96813672998E-02 -0.25162974429E-03  0.91660697780E-02  0.10305954949E+01  0.10305092261E+01 0.  0.
     999903    2    3    3    0    0  0.74776642617E-01 -0.14326166963E-01  0.11150121075E+00  0.14216543660E+00  0.44516356819E-01 0.  0.
         14    1    1    2    0    0 -0.96813672998E-02  0.25162974429E-03 -0.91660697780E-02  0.13334505071E-01  0.00000000000E+00 0. -1.
     999901    1    3    3    0    0 -0.65095275317E-01  0.14074537219E-01 -0.10233514097E+00  0.88843005833E+00  0.88000000000E+00 0. -1.
        -11    1    4    4    0    0  0.29915364756E-01 -0.18867867021E-01  0.21219738763E-01  0.41248804693E-01  0.51100000000E-03 0. -1.
         11    1    4    4    0    0  0.44861277861E-01  0.45417000582E-02  0.90281471983E-01  0.10091663191E+00  0.51100000000E-03 0.  1.
</event>
<event>
 8    1  0.2025822E+004  0.1043930E+01  0.7957747E-01            NaN
         13   -1    0    0    0    0  0.00000000000E+00  0.00000000000E+00  0.74505805969E-08  0.10566000000E+00  0.10566000000E+00 0.  1.
     999900   -1    0    0    0    0 -0.00000000000E+00 -0.00000000000E+00 -0.74505805969E-08  0.93827000000E+00  0.93827000000E+00 0. -1.
     999902    2    1    2    0    0 -0.92020703626E-02  0.10876705233E-01  0.52338791479E-03  0.10296732560E+01  0.10295745526E+01 0.  0.
     999903    2    3    3    0    0  0.86476217438E-01 -0.94807437014E-01  0.24072013960E-01  0.13788964405E+00  0.44356575449E-01 0.  0.
         14    1    1    2    0    0  0.92020703626E-02 -0.10876705233E-01 -0.52338791479E-03  0.14256744039E-01  0.00000000000E+00 0.  1.
     999901    1    3    3    0    0 -0.95678287800E-01  0.10568414225E+00 -0.23548626045E-01  0.89178361191E+00  0.88000000000E+00 0.  1.
        -11    1    4    4    0    0  0.40424237927E-01 -0.15105534073E-01  0.18653815940E-02  0.43197649717E-01  0.51100000000E-03 0.  1.
         11    1    4    4    0    0  0.46051979510E-01 -0.79701902941E-01  0.22206632366E-01  0.94691994336E-01  0.51100000000E-03 0. -1.
</event>
<event>
 8    1  0.2025822E+004  0.1043930E+01  0.7957747E-01            NaN
         13   -1    0    0    0    0  0.00000000000E+00  0.00000000000E+00  0.74505805969E-08  0.10566000000E+00  0.10566000000E+00 0.  1.
     999900   -1    0    0    0    0 -0.00000000000E+00 -0.00000000000E+00 -0.74505805969E-08  0.93827000000E+00  0.93827000000E+00 0. -1.
     999902    2    1    2    0    0 -0.21199782103E-02  0.56490131574E-02 -0.11890581775E-01  0.10305961486E+01  0.10305098884E+01 0.  0.
     999903    2    3    3    0    0  0.40876393185E-01 -0.64599861907E-01 -0.11025388020E+00  0.14129365180E+00  0.44316546146E-01 0.  0.
         14    1    1    2    0    0  0.21199782103E-02 -0.56490131574E-02  0.11890581775E-01  0.13333851364E-01  0.00000000000E+00 0.  1.
     999901    1    3    3    0    0 -0.42996371395E-01  0.70248875065E-01  0.98363298422E-01  0.88930249684E+00  0.88000000000E+00 0.  1.
        -11    1    4    4    0    0  0.45688036152E-01 -0.67954987936E-01 -0.98077091794E-01  0.12776796973E+00  0.51100000000E-03 0.  1.
         11    1    4    4    0    0 -0.48116429664E-02  0.33551260285E-02 -0.12176788403E-01  0.13525682072E-01  0.51100000000E-03 0. -1.
</event>
<event>
 8    1  0.2025822E+004  0.1043930E+01  0.7957747E-01            NaN
         13   -1    0    0    0    0  0.00000000000E+00  0.00000000000E+00  0.74505805969E-08  0.10566000000E+00  0.10566000000E+00 0.  1.
     999900   -1    0    0    0    0 -0.00000000000E+00 -0.00000000000E+00 -0.74505805969E-08  0.93827000000E+00  0.93827000000E+00 0. -1.
     999902    2    1    2    0    0 -0.45977452274E-02 -0.12129255182E-01  0.45781071801E-02  0.10301743772E+01  0.10300825357E+01 0.  0.
     999903    2    3    3    0    0  0.89081398396E-01  0.95889749396E-01 -0.71262189955E-02  0.13855737506E+00  0.44911285976E-01 0.  0.
         14    1    1    2    0    0  0.45977452274E-02  0.12129255182E-01 -0.45781071801E-02  0.13755622770E-01  0.00000000000E+00 0. -1.
     999901    1    3    3    0    0 -0.93679143624E-01 -0.10801900458E+00  0.11704326176E-01  0.89161700217E+00  0.88000000000E+00 0. -1.
        -11    1    4    4    0    0  0.53068214755E-01  0.53927188666E-01  0.18068116433E-01  0.77788784841E-01  0.51100000000E-03 0.  1.
         11    1    4    4    0    0  0.36013183642E-01  0.41962560729E-01 -0.25194335428E-01  0.60768590223E-01  0.51100000000E-03 0. -1.
</event>
<event>
 8    1  0.2025822E+004  0.1043930E+01  0.7957747E-01            NaN
         13   -1    0    0    0    0  0.00000000000E+00  0.00000000000E+00  0.74505805969E-08  0.10566000000E+00  0.10566000000E+00 0. -1.
     999900   -1    0    0    0    0 -0.00000000000E+00 -0.00000000000E+00 -0.74505805969E-08  0.93827000000E+00  0.93827000000E+00 0. -1.
     999902    2    1    2    0    0  0.61521549250E-02  0.12503301022E-01  0.23167219443E-02  0.10298038276E+01  0.10297069362E+01 0.  0.
     999903    2    3    3    0    0  0.66293076587E-01  0.73775066921E-01  0.89184916372E-01  0.14136854971E+00  0.46835723942E-01 0.  0.
         14    1    1    2    0    0 -0.61521549250E-02 -0.12503301022E-01 -0.23167219443E-02  0.14126172420E-01  0.00000000000E+00 0. -1.
     999901    1    3    3    0    0 -0.60140921662E-01 -0.61271765898E-01 -0.86868194428E-01  0.88843527787E+00  0.88000000000E+00 0. -1.
        -11    1    4    4    0    0  0.14380868019E-01  0.87487110278E-02  0.43049587975E-01  0.46226371861E-01  0.51100000000E-03 0. -1.
         11    1    4    4    0    0  0.51912208569E-01  0.65026355893E-01  0.46135328397E-01  0.95142177852E-01  0.51100000000E-03 0.  1.
</event>
<event>
 8    1  0.2025822E+004  0.1043930E+01  0.7957747E-01            NaN
         13   -1    0    0    0    0  0.00000000000E+00  0.00000000000E+00  0.74505805969E-08  0.10566000000E+00  0.10566000000E+00 0.  1.
     999900   -1    0    0    0    0 -0.00000000000E+00 -0.00000000000E+00 -0.74505805969E-08  0.93827000000E+00  0.93827000000E+00 0. -1.
     999902    2    1    2    0    0 -0.10261485083E-01 -0.93294961790E-02  0.25928262309E-02  0.10298211261E+01  0.10297244735E+01 0.  0.
     999903    2    3    3    0    0 -0.11159372622E+00  0.69775936915E-01 -0.20993693100E-01  0.14016826316E+00  0.43411585346E-01 0.  0.
         14    1    1    2    0    0  0.10261485083E-01  0.93294961790E-02 -0.25928262309E-02  0.14108873907E-01  0.00000000000E+00 0. -1.
     999901    1    3    3    0    0  0.10133224114E+00 -0.79105433094E-01  0.23586519331E-01  0.88965286294E+00  0.88000000000E+00 0.  1.
        -11    1    4    4    0    0 -0.68822619428E-01  0.30561836294E-01  0.72080727714E-02  0.75649165340E-01  0.51100000000E-03 0. -1.
         11    1    4    4    0    0 -0.42771106792E-01  0.39214100621E-01 -0.28201765872E-01  0.64519097816E-01  0.51100000000E-03 0.  1.
</event>
<event>
 8    1  0.2025822E+004  0.1043930E+01  0.7957747E-01            NaN
         13   -1    0    0    0    0  0.00000000000E+00  0.00000000000E+00  0.74505805969E-08  0.10566000000E+00  0.10566000000E+00 0.  1.
     999900   -1    0    0    0    0 -0.00000000000E+00 -0.00000000000E+00 -0.74505805969E-08  0.93827000000E+00  0.93827000000E+00 0. -1.
     999902    2    1    2    0    0  0.17919827978E-03  0.27290053388E-02  0.16880393998E-01  0.10268294946E+01  0.10266870915E+01 0.  0.
     999903    2    3    3    0    0  0.39429036385E-01  0.21196040565E-01 -0.12013577600E+00  0.13517092095E+00  0.42832839610E-01 0.  0.
         14    1    1    2    0    0 -0.17919827978E-03 -0.27290053388E-02 -0.16880393998E-01  0.17100505364E-01  0.00000000000E+00 0. -1.
     999901    1    3    3    0    0 -0.39249838105E-01 -0.18467035226E-01  0.13701617000E+00  0.89165857368E+00  0.88000000000E+00 0.  1.
        -11    1    4    4    0    0  0.27038144585E-01 -0.96138352418E-02 -0.53183419200E-01  0.60433635415E-01  0.51100000000E-03 0. -1.
         11    1    4    4    0    0  0.12390891799E-01  0.30809875807E-01 -0.66952356805E-01  0.74737285538E-01  0.51100000000E-03 0.  1.
</event>
<event>
 8    1  0.2025822E+004  0.1043930E+01  0.7957747E-01            NaN
         13   -1    0    0    0    0  0.00000000000E+00  0.00000000000E+00  0.74505805969E-08  0.10566000000E+00  0.10566000000E+00 0.  1.
     999900   -1    0    0    0    0 -0.00000000000E+00 -0.00000000000E+00 -0.74505805969E-08  0.93827000000E+00  0.93827000000E+00 0.  1.
     999902    2    1    2    0    0  0.55957344624E-02 -0.57357179035E-02  0.12626135898E-01  0.10289757360E+01  0.10288670639E+01 0.  0.
     999903    2    3    3    0    0 -0.36175187631E-01 -0.12389299140E+00  0.29654531797E-01  0.13993360118E+00  0.45209556151E-01 0.  0.
         14    1    1    2    0    0 -0.55957344624E-02  0.57357179035E-02 -0.12626135898E-01  0.14954263999E-01  0.00000000000E+00 0. -1.
     999901    1    3    3    0    0  0.41770922093E-01  0.11815727349E+00 -0.17028395899E-01  0.88904213482E+00  0.88000000000E+00 0. -1.
        -11    1    4    4    0    0  0.24199845754E-03 -0.53440112573E-02  0.13920853276E-01  0.14922074135E-01  0.51100000000E-03 0. -1.
         11    1    4    4    0    0 -0.36417186088E-01 -0.11854898014E+00  0.15733678521E-01  0.12501152705E+00  0.51100000000E-03 0.  1.
</event>
<event>
 8    1  0.2025822E+004  0.1043930E+01  0.7957747E-01            NaN
         13   -1    0    0    0    0  0.00000000000E+00  0.00000000000E+00  0.74505805969E-08  0.10566000000E+00  0.10566000000E+00 0.  1.
     999900   -1    0    0    0    0 -0.00000000000E+00 -0.00000000000E+00 -0.74505805969E-08  0.93827000000E+00  0.93827000000E+00 0.  1.
     999902    2    1    2    0    0  0.13989429871E-01 -0.64256782281E-02 -0.29211724987E-02  0.10282607072E+01  0.10281413109E+01 0.  0.
     999903    2    3    3    0    0  0.11904629841E+00  0.52540703737E-01  0.22927676188E-01  0.13967635957E+00  0.45290842043E-01 0.  0.
         14    1    1    2    0    0 -0.13989429871E-01  0.64256782281E-02  0.29211724987E-02  0.15669292823E-01  0.00000000000E+00 0.  1.
     999901    1    3    3    0    0 -0.10505686854E+00 -0.58966381965E-01 -0.25848848687E-01  0.88858434760E+00  0.88000000000E+00 0. -1.
        -11    1    4    4    0    0  0.28316538934E-01 -0.71071850014E-02  0.50226469530E-02  0.29628137964E-01  0.51100000000E-03 0.  1.
         11    1    4    4    0    0  0.90729759480E-01  0.59647888738E-01  0.17905029235E-01  0.11004822161E+00  0.51100000000E-03 0. -1.
</event>
<event>
 8    1  0.2025822E+004  0.1043930E+01  0.7957747E-01            NaN
         13   -1    0    0    0    0  0.00000000000E+00  0.00000000000E+00  0.74505805969E-08  0.10566000000E+00  0.10566000000E+00 0.  1.
     999900   -1    0    0    0    0 -0.00000000000E+00 -0.00000000000E+00 -0.74505805969E-08  0.93827000000E+00  0.93827000000E+00 0.  1.
     999902    2    1    2    0    0 -0.46366324545E-02 -0.14881516117E-01 -0.35943731240E-02  0.10279338317E+01  0.10278093622E+01 0.  0.
     999903    2    3    3    0    0  0.12810218166E+00  0.20351988849E-02 -0.22167704466E-01  0.13762448284E+00  0.45108537700E-01 0.  0.
         14    1    1    2    0    0  0.46366324545E-02  0.14881516117E-01  0.35943731240E-02  0.15996168311E-01  0.00000000000E+00 0.  1.
     999901    1    3    3    0    0 -0.13273881412E+00 -0.16916715002E-01  0.18573331342E-01  0.89030934885E+00  0.88000000000E+00 0. -1.
        -11    1    4    4    0    0  0.48839655793E-01  0.68140978336E-02  0.12660131218E-01  0.50914476829E-01  0.51100000000E-03 0.  1.
         11    1    4    4    0    0  0.79262525869E-01 -0.47788989487E-02 -0.34827835684E-01  0.86710006007E-01  0.51100000000E-03 0. -1.
</event>
<event>
 8    1  0.2025822E+004  0.1043930E+01  0.7957747E-01            NaN
         13   -1    0    0    0    0  0.00000000000E+00  0.00000000000E+00  0.74505805969E-08  0.10566000000E+00  0.10566000000E+00 0.  1.
     999900   -1    0    0    0    0 -0.00000000000E+00 -0.00000000000E+00 -0.74505805969E-08  0.93827000000E+00  0.93827000000E+00 0.  1.
     999902    2    1    2    0    0  0.63345515588E-03  0.91874079655E-02 -0.67096227612E-02  0.10325357572E+01  0.10324728864E+01 0.  0.
     999903    2    3    3    0    0 -0.59664011260E-01 -0.10945542846E+00  0.46143840938E-01  0.14096108526E+00  0.46909364113E-01 0.  0.
         14    1    1    2    0    0 -0.63345515588E-03 -0.91874079655E-02  0.67096227612E-02  0.11394242764E-01  0.00000000000E+00 0.  1.
     999901    1    3    3    0    0  0.60297466416E-01  0.11864283642E+00 -0.52853463699E-01  0.89157467198E+00  0.88000000000E+00 0.  1.
        -11    1    4    4    0    0 -0.31485772615E-01 -0.94505494277E-01  0.25048929348E-01  0.10271490792E+00  0.51100000000E-03 0.  1.
         11    1    4    4    0    0 -0.28178238645E-01 -0.14949934181E-01  0.21094911590E-01  0.38246177340E-01  0.51100000000E-03 0. -1.
</event>
<event>
 8    1  0.2025822E+004  0.1043930E+01  0.7957747E-01            NaN
         13   -1    0    0    0    0  0.00000000000E+00  0.00000000000E+00  0.74505805969E-08  0.10566000000E+00  0.10566000000E+00 0.  1.
     999900   -1    0    0    0    0 -0.00000000000E+00 -0.00000000000E+00 -0.74505805969E-08  0.93827000000E+00  0.93827000000E+00 0. -1.
     999902    2    1    2    0    0 -0.44216403602E-02 -0.77533728370E-02 -0.11322343969E-01  0.10295126089E+01  0.10294116527E+01 0.  0.
     999903    2    3    3    0    0  0.13005601568E+00  0.12683119270E-01  0.12015139618E-01  0.13875645351E+00  0.45095022822E-01 0.  0.
         14    1    1    2    0    0  0.44216403602E-02  0.77533728370E-02  0.11322343969E-01  0.14417391122E-01  0.00000000000E+00 0.  1.
     999901    1    3    3    0    0 -0.13447765604E+00 -0.20436492107E-01 -0.23337483587E-01  0.89075615537E+00  0.88000000000E+00 0. -1.
        -11    1    4    4    0    0  0.68082331185E-01  0.24766909492E-01  0.19876429528E-01  0.75126141902E-01  0.51100000000E-03 0. -1.
         11    1    4    4    0    0  0.61973684490E-01 -0.12083790222E-01 -0.78612899102E-02  0.63630311609E-01  0.51100000000E-03 0.  1.
</event>
<event>
 8    1  0.2025822E+004  0.1043930E+01  0.7957747E-01            NaN
         13   -1    0    0    0    0  0.00000000000E+00  0.00000000000E+00  0.74505805969E-08  0.10566000000E+00  0.10566000000E+00 0.  1.
     999900   -1    0    0    0    0 -0.00000000000E+00 -0.00000000000E+00 -0.74505805969E-08  0.93827000000E+00  0.93827000000E+00 0.  1.
     999902    2    1    2    0    0  0.15070786677E-01 -0.41525883007E-02 -0.31732916138E-02  0.10279787499E+01  0.10278549839E+01 0.  0.
     999903    2    3    3    0    0 -0.31077495472E-01  0.12211842314E+00 -0.31073523654E-01  0.13733153845E+00  0.44896186784E-01 0.  0.
         14    1    1    2    0    0 -0.15070786677E-01  0.41525883007E-02  0.31732916138E-02  0.15951250118E-01  0.00000000000E+00 0.  1.
     999901    1    3    3    0    0  0.46148282149E-01 -0.12627101144E+00  0.27900232040E-01  0.89064721143E+00  0.88000000000E+00 0. -1.
        -11    1    4    4    0    0 -0.16824159261E-01  0.37663725253E-01  0.98397796853E-02  0.42410976410E-01  0.51100000000E-03 0. -1.
         11    1    4    4    0    0 -0.14253336211E-01  0.84454697884E-01 -0.40913303339E-01  0.94920562045E-01  0.51100000000E-03 0.  1.
</event>
<event>
 8    1  0.2025822E+004  0.1043930E+01  0.7957747E-01            NaN
         13   -1    0    0    0    0  0.00000000000E+00  0.00000000000E+00  0.74505805969E-08  0.10566000000E+00  0.10566000000E+00 0. -1.
     999900   -1    0    0    0    0 -0.00000000000E+00 -0.00000000000E+00 -0.74505805969E-08  0.93827000000E+00  0.93827000000E+00 0. -1.
     999902    2    1    2    0    0  0.42940213968E-02 -0.98934800365E-02 -0.87450751252E-02  0.10300449035E+01  0.10299513130E+01 0.  0.
     999903    2    3    3    0    0 -0.48405035173E-01  0.11667538028E-01 -0.12480181308E+00  0.14060056316E+00  0.41398634506E-01 0.  0.
         14    1    1    2    0    0 -0.42940213968E-02  0.98934800365E-02  0.87450751252E-02  0.13885096540E-01  0.00000000000E+00 0. -1.
     999901    1    3    3    0    0  0.52699056570E-01 -0.21561018065E-01  0.11605673796E+00  0.88944434030E+00  0.88000000000E+00 0.  1.
        -11    1    4    4    0    0  0.16057974711E-02  0.11533889309E-02 -0.49799369067E-01  0.49841219608E-01  0.51100000000E-03 0. -1.
         11    1    4    4    0    0 -0.50010832644E-01  0.10514149097E-01 -0.75002444015E-01  0.90759343553E-01  0.51100000000E-03 0.  1.
</event>
<event>
 8    1  0.2025822E+004  0.1043930E+01  0.7957747E-01            NaN
         13   -1    0    0    0    0  0.00000000000E+00  0.00000000000E+00  0.74505805969E-08  0.10566000000E+00  0.10566000000E+00 0.  1.
     999900   -1    0    0    0    0 -0.00000000000E+00 -0.00000000000E+00 -0.74505805969E-08  0.93827000000E+00  0.93827000000E+00 0.  1.
     999902    2    1    2    0    0 -0.10492160291E-01 -0.30379994751E-02  0.83038380555E-02  0.10302088996E+01  0.10301175216E+01 0.  0.
     999903    2    3    3    0    0 -0.40384586778E-01 -0.12680624506E+00  0.16837012348E-01  0.14100422645E+00  0.43450756669E-01 0.  0.
         14    1    1    2    0    0  0.10492160291E-01  0.30379994751E-02 -0.83038380555E-02  0.13721100351E-01  0.00000000000E+00 0. -1.
     999901    1    3    3    0    0  0.29892426487E-01  0.12376824559E+00 -0.85331742928E-02  0.88920467320E+00  0.88000000000E+00 0. -1.
        -11    1    4    4    0    0 -0.10565491939E-01 -0.49534514495E-01  0.27264491341E-01  0.57523137564E-01  0.51100000000E-03 0. -1.
         11    1    4    4    0    0 -0.29819094839E-01 -0.77271730570E-01 -0.10427478993E-01  0.83481088885E-01  0.51100000000E-03 0.  1.
</event>
<event>
 8    1  0.2025822E+004  0.1043930E+01  0.7957747E-01            NaN
         13   -1    0    0    0    0  0.00000000000E+00  0.00000000000E+00  0.74505805969E-08  0.10566000000E+00  0.10566000000E+00 0.  1.
     999900   -1    0    0    0    0 -0.00000000000E+00 -0.00000000000E+00 -0.74505805969E-08  0.93827000000E+00  0.93827000000E+00 0.  1.
     999902    2    1    2    0    0 -0.13360815476E-01  0.52062769622E-02  0.17314563262E-02  0.10294865014E+01  0.10293851767E+01 0.  0.
     999903    2    3    3    0    0  0.88544431784E-01  0.36530315399E-01  0.89563039261E-01  0.13871141098E+00  0.45218770340E-01 0.  0.
         14    1    1    2    0    0  0.13360815476E-01 -0.52062769622E-02 -0.17314563262E-02  0.14443498572E-01  0.00000000000E+00 0.  1.
     999901    1    3    3    0    0 -0.10190524726E+00 -0.31324038436E-01 -0.87831582934E-01  0.89077509045E+00  0.88000000000E+00 0. -1.
        -11    1    4    4    0    0  0.16287090577E-01  0.21628613231E-01  0.69678284994E-02  0.27962081195E-01  0.51100000000E-03 0. -1.
         11    1    4    4    0    0  0.72257341207E-01  0.14901702167E-01  0.82595210761E-01  0.11074932978E+00  0.51100000000E-03 0.  1.
</event>
<event>
 8    1  0.2025822E+004  0.1043930E+01  0.7957747E-01            NaN
         13   -1    0    0    0    0  0.00000000000E+00  0.00000000000E+00  0.74505805969E-08  0.10566000000E+00  0.10566000000E+00 0.  1.
     999900   -1    0    0    0    0 -0.00000000000E+00 -0.00000000000E+00 -0.74505805969E-08  0.93827000000E+00  0.93827000000E+00 0. -1.
     999902    2    1    2    0    0  0.93271446830E-02  0.86449615301E-02 -0.64397630625E-02  0.10296751224E+01  0.10295764450E+01 0.  0.
     999903    2    3    3    0    0 -0.10687480225E+00 -0.31670596205E-01 -0.70499370210E-01  0.13881493697E+00  0.43291748713E-01 0.  0.
         14    1    1    2    0    0 -0.93271446830E-02 -0.86449615301E-02  0.64397630625E-02  0.14254877625E-01  0.00000000000E+00 0.  1.
     999901    1    3    3    0    0  0.11620194693E+00  0.40315557736E-01  0.64059607148E-01  0.89086018540E+00  0.88000000000E+00 0.  1.
        -11    1    4    4    0    0 -0.95050276347E-01 -0.25953216897E-01 -0.41382273813E-01  0.10686850896E+00  0.51100000000E-03 0.  1.
         11    1    4    4    0    0 -0.11824525904E-01 -0.57173793081E-02 -0.29117096398E-01  0.31946428011E-01  0.51100000000E-03 0. -1.
</event>
<event>
 8    1  0.2025822E+004  0.1043930E+01  0.7957747E-01            NaN
         13   -1    0    0    0    0  0.00000000000E+00  0.00000000000E+00  0.74505805969E-08  0.10566000000E+00  0.10566000000E+00 0. -1.
     999900   -1    0    0    0    0 -0.00000000000E+00 -0.00000000000E+00 -0.74505805969E-08  0.93827000000E+00  0.93827000000E+00 0.  1.
     999902    2    1    2    0    0 -0.33350927863E-02 -0.16873558068E-01  0.25473690693E-02  0.10265423925E+01  0.10263951260E+01 0.  0.
     999903    2    3    3    0    0  0.12548405950E+00  0.24914889385E-02  0.29978876530E-01  0.13653010794E+00  0.44601352348E-01 0.  0.
         14    1    1    2    0    0  0.33350927863E-02  0.16873558068E-01 -0.25473690693E-02  0.17387607511E-01  0.00000000000E+00 0.  1.
     999901    1    3    3    0    0 -0.12881915229E+00 -0.19365047007E-01 -0.27431507461E-01  0.89001228455E+00  0.88000000000E+00 0.  1.
        -11    1    4    4    0    0  0.10214930586E+00  0.16570769145E-01  0.12712915089E-01  0.10426384997E+00  0.51100000000E-03 0. -1.
         11    1    4    4    0    0  0.23334753636E-01 -0.14079280207E-01  0.17265961441E-01  0.32266257977E-01  0.51100000000E-03 0.  1.
</event>
<event>
 8    1  0.2025822E+004  0.1043930E+01  0.7957747E-01            NaN
         13   -1    0    0    0    0  0.00000000000E+00  0.00000000000E+00  0.74505805969E-08  0.10566000000E+00  0.10566000000E+00 0. -1.
     999900   -1    0    0    0    0 -0.00000000000E+00 -0.00000000000E+00 -0.74505805969E-08  0.93827000000E+00  0.93827000000E+00 0. -1.
     999902    2    1    2    0    0 -0.63178622587E-02  0.25735593175E-03 -0.13274970076E-01  0.10292260398E+01  0.10291210009E+01 0.  0.
     999903    2    3    3    0    0  0.12926142296E+00 -0.65729349034E-02  0.18867170002E-01  0.13823697553E+00  0.44741170748E-01 0.  0.
         14    1    1    2    0    0  0.63178622587E-02 -0.25735593175E-03  0.13274970076E-01  0.14703960219E-01  0.00000000000E+00 0. -1.
     999901    1    3    3    0    0 -0.13557928522E+00  0.68302908352E-02 -0.32142140078E-01  0.89098906425E+00  0.88000000000E+00 0. -1.
        -11    1    4    4    0    0  0.30756913127E-01  0.67852175252E-02  0.22584374571E-01  0.38760056472E-01  0.51100000000E-03 0. -1.
         11    1    4    4    0    0  0.98504509832E-01 -0.13358152429E-01 -0.37172045686E-02  0.99476919054E-01  0.51100000000E-03 0.  1.
</event>
<event>
 8    1  0.2025822E+004  0.1043930E+01  0.7957747E-01            NaN
         13   -1    0    0    0    0  0.00000000000E+00  0.00000000000E+00  0.74505805969E-08  0.10566000000E+00  0.10566000000E+00 0. -1.
     999900   -1    0    0    0    0 -0.00000000000E+00 -0.00000000000E+00 -0.74505805969E-08  0.93827000000E+00  0.93827000000E+00 0.  1.
     999902    2    1    2    0    0 -0.86564603433E-02 -0.12278221300E-01  0.26471812657E-02  0.10286756042E+01  0.10285624930E+01 0.  0.
     999903    2    3    3    0    0  0.34623386105E-02 -0.33843543134E-01  0.12819470129E+00  0.13942079918E+00  0.42975628030E-01 0.  0.
         14    1    1    2    0    0  0.86564603433E-02  0.12278221300E-01 -0.26471812657E-02  0.15254395846E-01  0.00000000000E+00 0. -1.
     999901    1    3    3    0    0 -0.12118798954E-01  0.21565321835E-01 -0.12554752002E+00  0.88925480498E+00  0.88000000000E+00 0.  1.
        -11    1    4    4    0    0 -0.18379430510E-01 -0.12143815624E-01  0.72571006219E-01  0.75842519660E-01  0.51100000000E-03 0. -1.
         11    1    4    4    0    0  0.21841769120E-01 -0.21699727510E-01  0.55623695067E-01  0.63578279516E-01  0.51100000000E-03 0.  1.
</event>
<event>
 8    1  0.2025822E+004  0.1043930E+01  0.7957747E-01            NaN
         13   -1    0    0    0    0  0.00000000000E+00  0.00000000000E+00  0.74505805969E-08  0.10566000000E+00  0.10566000000E+00 0. -1.
     999900   -1    0    0    0    0 -0.00000000000E+00 -0.00000000000E+00 -0.74505805969E-08  0.93827000000E+00  0.93827000000E+00 0. -1.
     999902    2    1    2    0    0 -0.27627248912E-02  0.13422229583E-01  0.14383601335E-02  0.10301511112E+01  0.10300589567E+01 0.  0.
     999903    2    3    3    0    0  0.25806701018E-01  0.11939415046E+00 -0.55628848714E-01  0.14149880215E+00  0.44792780868E-01 0.  0.
         14    1    1    2    0    0  0.27627248912E-02 -0.13422229583E-01 -0.14383601335E-02  0.13778888768E-01  0.00000000000E+00 0. -1.
     999901    1    3    3    0    0 -0.28569425910E-01 -0.10597192088E+00  0.57067208847E-01  0.88865230908E+00  0.88000000000E+00 0.  1.
        -11    1    4    4    0    0 -0.72162996890E-02  0.31029861678E-01 -0.29957034274E-01  0.43733423379E-01  0.51100000000E-03 0. -1.
         11    1    4    4    0    0  0.33023000707E-01  0.88364288787E-01 -0.25671814440E-01  0.97765378771E-01  0.51100000000E-03 0.  1.
</event>
<event>
 8    1  0.2025822E+004  0.1043930E+01  0.7957747E-01            NaN
         13   -1    0    0    0    0  0.00000000000E+00  0.00000000000E+00  0.74505805969E-08  0.10566000000E+00  0.10566000000E+00 0. -1.
     999900   -1    0    0    0    0 -0.00000000000E+00 -0.00000000000E+00 -0.74505805969E-08  0.93827000000E+00  0.93827000000E+00 0.  1.
     999902    2    1    2    0    0  0.37550334927E-02 -0.12034800108E-01  0.40657612073E-02  0.10306836003E+01  0.10305984751E+01 0.  0.
     999903    2    3    3    0    0 -0.47802301637E-01  0.83448863682E-01  0.89737824490E-01  0.13988901610E+00  0.47616035004E-01 0.  0.
         14    1    1    2    0    0 -0.37550334927E-02  0.12034800108E-01 -0.40657612073E-02  0.13246399676E-01  0.00000000000E+00 0.  1.
     999901    1    3    3    0    0  0.51557335130E-01 -0.95483663790E-01 -0.85672063283E-01  0.89079458422E+00  0.88000000000E+00 0.  1.
        -11    1    4    4    0    0 -0.20391379423E-01  0.17717619928E-02  0.11351678672E-01  0.23410878347E-01  0.51100000000E-03 0. -1.
         11    1    4    4    0    0 -0.27410922214E-01  0.81677101690E-01  0.78386145818E-01  0.11647813775E+00  0.51100000000E-03 0.  1.
</event>
<event>
 8    1  0.2025822E+004  0.1043930E+01  0.7957747E-01            NaN
         13   -1    0    0    0    0  0.00000000000E+00  0.00000000000E+00  0.74505805969E-08  0.10566000000E+00  0.10566000000E+00 0. -1.
     999900   -1    0    0    0    0 -0.00000000000E+00 -0.00000000000E+00 -0.74505805969E-08  0.93827000000E+00  0.93827000000E+00 0. -1.
     999902    2    1    2    0    0  0.55576081289E-02  0.10974299966E-01  0.57122785987E-02  0.10303670949E+01  0.10302778256E+01 0.  0.
     999903    2    3    3    0    0  0.85546833241E-01 -0.10065669036E+00 -0.22302727313E-02  0.13968037206E+00  0.45338749747E-01 0.  0.
         14    1    1    2    0    0 -0.55576081289E-02 -0.10974299966E-01 -0.57122785987E-02  0.13562905096E-01  0.00000000000E+00 0.  1.
     999901    1    3    3    0    0 -0.79989225112E-01  0.11163099033E+00  0.79425513300E-02  0.89068672285E+00  0.88000000000E+00 0. -1.
        -11    1    4    4    0    0  0.29944313052E-02 -0.30788496552E-01  0.47659017252E-02  0.31302924448E-01  0.51100000000E-03 0.  1.
         11    1    4    4    0    0  0.82552401936E-01 -0.69868193812E-01 -0.69961744565E-02  0.10837744761E+00  0.51100000000E-03 0. -1.
</event>
<event>
 8    1  0.2025822E+004  0.1043930E+01  0.7957747E-01            NaN
         13   -1    0    0    0    0  0.00000000000E+00  0.00000000000E+00  0.74505805969E-08  0.10566000000E+00  0.10566000000E+00 0.  1.
     999900   -1    0    0    0    0 -0.00000000000E+00 -0.00000000000E+00 -0.74505805969E-08  0.93827000000E+00  0.93827000000E+00 0.  1.
     999902    2    1    2    0    0  0.32670054613E-02 -0.12676728058E-01 -0.66910472928E-02  0.10292282017E+01  0.10291231940E+01 0.  0.
     999903    2    3    3    0    0 -0.12441790154E+00  0.20377538394E-01 -0.47569556332E-01  0.13846051454E+00  0.31833835818E-01 0.  0.
         14    1    1    2    0    0 -0.32670054613E-02  0.12676728058E-01  0.66910472928E-02  0.14701798285E-01  0.00000000000E+00 0.  1.
     999901    1    3    3    0    0  0.12768490700E+00 -0.33054266452E-01  0.40878509039E-01  0.89076768717E+00  0.88000000000E+00 0. -1.
        -11    1    4    4    0    0 -0.69979138364E-01  0.25707857646E-02 -0.40098627889E-01  0.80696033516E-01  0.51100000000E-03 0.  1.
         11    1    4    4    0    0 -0.54438763179E-01  0.17806752630E-01 -0.74709284429E-02  0.57764481028E-01  0.51100000000E-03 0. -1.
</event>
<event>
 8    1  0.2025822E+004  0.1043930E+01  0.7957747E-01            NaN
         13   -1    0    0    0    0  0.00000000000E+00  0.00000000000E+00  0.74505805969E-08  0.10566000000E+00  0.10566000000E+00 0. -1.
     999900   -1    0    0    0    0 -0.00000000000E+00 -0.00000000000E+00 -0.74505805969E-08  0.93827000000E+00  0.93827000000E+00 0. -1.
     999902    2    1    2    0    0 -0.54947349230E-02 -0.93160964048E-02  0.81131272013E-02  0.10304094750E+01  0.10303207663E+01 0.  0.
     999903    2    3    3    0    0  0.68530587654E-01 -0.54118111466E-01 -0.99265113856E-01  0.13966986342E+00  0.45043273477E-01 0.  0.
         14    1    1    2    0    0  0.54947349230E-02  0.93160964048E-02 -0.81131272013E-02  0.13520525030E-01  0.00000000000E+00 0.  1.
     999901    1    3    3    0    0 -0.74025322577E-01  0.44802015061E-01  0.10737824106E+00  0.89073961155E+00  0.88000000000E+00 0.  1.
        -11    1    4    4    0    0  0.33510912739E-01 -0.48995911454E-01 -0.43399151247E-01  0.73534536524E-01  0.51100000000E-03 0.  1.
         11    1    4    4    0    0  0.35019674916E-01 -0.51222000114E-02 -0.55865962609E-01  0.66135326894E-01  0.51100000000E-03 0. -1.
</event>
<event>
 8    1  0.2025822E+004  0.1043930E+01  0.7957747E-01            NaN
         13   -1    0    0    0    0  0.00000000000E+00  0.00000000000E+00  0.74505805969E-08  0.10566000000E+00  0.10566000000E+00 0. -1.
     999900   -1    0    0    0    0 -0.00000000000E+00 -0.00000000000E+00 -0.74505805969E-08  0.93827000000E+00  0.93827000000E+00 0.  1.
     999902    2    1    2    0    0  0.58418741002E-02  0.49256406927E-04 -0.13202077833E-01  0.10294930759E+01  0.10293918440E+01 0.  0.
     999903    2    3    3    0    0  0.85267310946E-01  0.60289140367E-01  0.79924623810E-01  0.13898208425E+00  0.44975320892E-01 0.  0.
         14    1    1    2    0    0 -0.58418741002E-02 -0.49256406927E-04  0.13202077833E-01  0.14436924129E-01  0.00000000000E+00 0. -1.
     999901    1    3    3    0    0 -0.79425436845E-01 -0.60239883960E-01 -0.93126701643E-01  0.89051099162E+00  0.88000000000E+00 0.  1.
        -11    1    4    4    0    0  0.30949907110E-01  0.46915249719E-01  0.28608075946E-01  0.63068379848E-01  0.51100000000E-03 0. -1.
         11    1    4    4    0    0  0.54317403835E-01  0.13373890649E-01  0.51316547864E-01  0.75913704403E-01  0.51100000000E-03 0.  1.
</event>
<event>
 8    1  0.2025822E+004  0.1043930E+01  0.7957747E-01            NaN
         13   -1    0    0    0    0  0.00000000000E+00  0.00000000000E+00  0.74505805969E-08  0.10566000000E+00  0.10566000000E+00 0.  1.
     999900   -1    0    0    0    0 -0.00000000000E+00 -0.00000000000E+00 -0.74505805969E-08  0.93827000000E+00  0.93827000000E+00 0. -1.
     999902    2    1    2    0    0  0.82431351308E-02  0.19398320818E-02  0.15653696499E-01  0.10261325159E+01  0.10259781624E+01 0.  0.
     999903    2    3    3    0    0 -0.36889625117E-01  0.92610822199E-01  0.84295212201E-01  0.13766763076E+00  0.43693076445E-01 0.  0.
         14    1    1    2    0    0 -0.82431351308E-02 -0.19398320818E-02 -0.15653696499E-01  0.17797484074E-01  0.00000000000E+00 0. -1.
     999901    1    3    3    0    0  0.45132760248E-01 -0.90670990117E-01 -0.68641515702E-01  0.88846488517E+00  0.88000000000E+00 0. -1.
        -11    1    4    4    0    0 -0.57582388583E-02  0.18431507762E-01 -0.23194463365E-02  0.19455558215E-01  0.51100000000E-03 0.  1.
         11    1    4    4    0    0 -0.31131386259E-01  0.74179314436E-01  0.86614658537E-01  0.11821207254E+00  0.51100000000E-03 0. -1.
</event>
<event>
 8    1  0.2025822E+004  0.1043930E+01  0.7957747E-01            NaN
         13   -1    0    0    0    0  0.00000000000E+00  0.00000000000E+00  0.74505805969E-08  0.10566000000E+00  0.10566000000E+00 0.  1.
     999900   -1    0    0    0    0 -0.00000000000E+00 -0.00000000000E+00 -0.74505805969E-08  0.93827000000E+00  0.93827000000E+00 0. -1.
     999902    2    1    2    0    0 -0.13082327774E-01  0.45930285655E-02 -0.19527833151E-02  0.10299279796E+01  0.10298327955E+01 0.  0.
     999903    2    3    3    0    0 -0.45295441865E-01  0.12559627151E+00 -0.94823168689E-02  0.14103194332E+00  0.44429654855E-01 0.  0.
         14    1    1    2    0    0  0.13082327774E-01 -0.45930285655E-02  0.19527833151E-02  0.14002020357E-01  0.00000000000E+00 0.  1.
     999901    1    3    3    0    0  0.32213114091E-01 -0.12100324295E+00  0.75295335538E-02  0.88889603633E+00  0.88000000000E+00 0.  1.
        -11    1    4    4    0    0 -0.35061080998E-01  0.93371532705E-01 -0.26468048191E-01  0.10319080006E+00  0.51100000000E-03 0. -1.
         11    1    4    4    0    0 -0.10234360867E-01  0.32224738808E-01  0.16985731322E-01  0.37841143259E-01  0.51100000000E-03 0.  1.
</event>
<event>
 8    1  0.2025822E+004  0.1043930E+01  0.7957747E-01            NaN
         13   -1    0    0    0    0  0.00000000000E+00  0.00000000000E+00  0.74505805969E-08  0.10566000000E+00  0.10566000000E+00 0.  1.
     999900   -1    0    0    0    0 -0.00000000000E+00 -0.00000000000E+00 -0.74505805969E-08  0.93827000000E+00  0.93827000000E+00 0. -1.
     999902    2    1    2    0    0 -0.80556624853E-02  0.35597797054E-03 -0.14265734655E-01  0.10275430661E+01  0.10274123909E+01 0.  0.
     999903    2    3    3    0    0  0.71685743215E-01 -0.54163635021E-01 -0.94895273013E-01  0.13859300986E+00  0.46155870722E-01 0.  0.
         14    1    1    2    0    0  0.80556624853E-02 -0.35597797054E-03  0.14265734655E-01  0.16386933930E-01  0.00000000000E+00 0.  1.
     999901    1    3    3    0    0 -0.79741405701E-01  0.54519612991E-01  0.80629538358E-01  0.88895005621E+00  0.88000000000E+00 0. -1.
        -11    1    4    4    0    0 -0.42514667482E-02  0.35944226696E-02 -0.57210911835E-02  0.79991780309E-02  0.51100000000E-03 0. -1.
         11    1    4    4    0    0  0.75937209964E-01 -0.57758057690E-01 -0.89174181829E-01  0.13059383183E+00  0.51100000000E-03 0.  1.
</event>
<event>
 8    1  0.2025822E+004  0.1043930E+01  0.7957747E-01            NaN
         13   -1    0    0    0    0  0.00000000000E+00  0.00000000000E+00  0.74505805969E-08  0.10566000000E+00  0.10566000000E+00 0. -1.
     999900   -1    0    0    0    0 -0.00000000000E+00 -0.00000000000E+00 -0.74505805969E-08  0.93827000000E+00  0.93827000000E+00 0. -1.
     999902    2    1    2    0    0  0.52534620419E-02  0.13106364611E-02  0.11918934678E-01  0.10308388719E+01  0.10307557432E+01 0.  0.
     999903    2    3    3    0    0 -0.66351153771E-01  0.10731676900E+00 -0.43691120293E-01  0.13985234037E+00  0.41598060036E-01 0.  0.
         14    1    1    2    0    0 -0.52534620419E-02 -0.13106364611E-02 -0.11918934678E-01  0.13091128111E-01  0.00000000000E+00 0.  1.
     999901    1    3    3    0    0  0.71604615813E-01 -0.10600613254E+00  0.55610054971E-01  0.89098653152E+00  0.88000000000E+00 0.  1.
        -11    1    4    4    0    0 -0.16568229022E-02  0.37567969461E-01 -0.14961671435E-01  0.40474808519E-01  0.51100000000E-03 0. -1.
         11    1    4    4    0    0 -0.64694330869E-01  0.69748799536E-01 -0.28729448858E-01  0.99377531847E-01  0.51100000000E-03 0.  1.
</event>
<event>
 8    1  0.2025822E+004  0.1043930E+01  0.7957747E-01            NaN
         13   -1    0    0    0    0  0.00000000000E+00  0.00000000000E+00  0.74505805969E-08  0.10566000000E+00  0.10566000000E+00 0.  1.
     999900   -1    0    0    0    0 -0.00000000000E+00 -0.00000000000E+00 -0.74505805969E-08  0.93827000000E+00  0.93827000000E+00 0. -1.
     999902    2    1    2    0    0 -0.77323312965E-03 -0.10268551830E-01 -0.94478563460E-02  0.10299549138E+01  0.10298600979E+01 0.  0.
     999903    2    3    3    0    0 -0.12075226891E-02  0.21206519745E-01 -0.13173816487E+00  0.14094097218E+00  0.45367818609E-01 0.  0.
         14    1    1    2    0    0  0.77323312965E-03  0.10268551830E-01  0.94478563460E-02  0.13975086250E-01  0.00000000000E+00 0.  1.
     999901    1    3    3    0    0  0.43428955944E-03 -0.31475071574E-01  0.12229030853E+00  0.88901394157E+00  0.88000000000E+00 0.  1.
        -11    1    4    4    0    0  0.21976425808E-01  0.83696427333E-02 -0.58321214386E-01  0.62885923538E-01  0.51100000000E-03 0.  1.
         11    1    4    4    0    0 -0.23183948497E-01  0.12836877011E-01 -0.73416950488E-01  0.78055048647E-01  0.51100000000E-03 0. -1.
</event>
<event>
 8    1  0.2025822E+004  0.1043930E+01  0.7957747E-01            NaN
         13   -1    0    0    0    0  0.00000000000E+00  0.00000000000E+00  0.74505805969E-08  0.10566000000E+00  0.10566000000E+00 0.  1.
     999900   -1    0    0    0    0 -0.00000000000E+00 -0.00000000000E+00 -0.74505805969E-08  0.93827000000E+00  0.93827000000E+00 0. -1.
     999902    2    1    2    0    0 -0.83996629933E-02 -0.11208629101E-01 -0.49113896960E-04  0.10299232118E+01  0.10298279623E+01 0.  0.
     999903    2    3    3    0    0  0.72687162053E-01  0.10839564275E+00  0.95890420802E-03  0.13813777167E+00  0.45255779418E-01 0.  0.
         14    1    1    2    0    0  0.83996629933E-02  0.11208629101E-01  0.49113896960E-04  0.14006788244E-01  0.00000000000E+00 0.  1.
     999901    1    3    3    0    0 -0.81086825046E-01 -0.11960427185E+00 -0.10080181050E-02  0.89178544008E+00  0.88000000000E+00 0.  1.
        -11    1    4    4    0    0  0.50345168162E-01  0.10372977005E+00  0.53799104557E-03  0.11530417038E+00  0.51100000000E-03 0. -1.
         11    1    4    4    0    0  0.22341993890E-01  0.46658727014E-02  0.42091316246E-03  0.22833601292E-01  0.51100000000E-03 0.  1.
</event>
<event>
 8    1  0.2025822E+004  0.1043930E+01  0.7957747E-01            NaN
         13   -1    0    0    0    0  0.00000000000E+00  0.00000000000E+00  0.74505805969E-08  0.10566000000E+00  0.10566000000E+00 0.  1.
     999900   -1    0    0    0    0 -0.00000000000E+00 -0.00000000000E+00 -0.74505805969E-08  0.93827000000E+00  0.93827000000E+00 0. -1.
     999902    2    1    2    0    0  0.63411431197E-02 -0.81845958035E-02  0.10409889823E-01  0.10292479187E+01  0.10291431944E+01 0.  0.
     999903    2    3    3    0    0 -0.18260305066E-02 -0.13127912908E+00  0.22861305289E-01  0.14055561843E+00  0.44673241150E-01 0.  0.
         14    1    1    2    0    0 -0.63411431197E-02  0.81845958035E-02 -0.10409889823E-01  0.14682081278E-01  0.00000000000E+00 0. -1.
     999901    1    3    3    0    0  0.81671736263E-02  0.12309453327E+00 -0.12451415466E-01  0.88869230029E+00  0.88000000000E+00 0.  1.
        -11    1    4    4    0    0  0.11072227349E-02 -0.28214191645E-01 -0.13398513541E-01  0.31257764451E-01  0.51100000000E-03 0.  1.
         11    1    4    4    0    0 -0.29332532415E-02 -0.10306493743E+00  0.36259818830E-01  0.10929785398E+00  0.51100000000E-03 0. -1.
</event>
<event>
 8    1  0.2025822E+004  0.1043930E+01  0.7957747E-01            NaN
         13   -1    0    0    0    0  0.00000000000E+00  0.00000000000E+00  0.74505805969E-08  0.10566000000E+00  0.10566000000E+00 0. -1.
     999900   -1    0    0    0    0 -0.00000000000E+00 -0.00000000000E+00 -0.74505805969E-08  0.93827000000E+00  0.93827000000E+00 0. -1.
     999902    2    1    2    0    0  0.14219324253E-01 -0.16947426436E-02 -0.52878392077E-02  0.10286649229E+01  0.10285516521E+01 0.  0.
     999903    2    3    3    0    0  0.13266403744E+00 -0.13034032141E-01  0.24933476553E-02  0.14062310158E+00  0.44710257140E-01 0.  0.
         14    1    1    2    0    0 -0.14219324253E-01  0.16947426436E-02  0.52878392077E-02  0.15265077082E-01  0.00000000000E+00 0.  1.
     999901    1    3    3    0    0 -0.11844471319E+00  0.11339289498E-01 -0.77811868630E-02  0.88804182133E+00  0.88000000000E+00 0.  1.
        -11    1    4    4    0    0  0.44366543472E-01  0.11586588375E-01 -0.12980187560E-01  0.47659055802E-01  0.51100000000E-03 0.  1.
         11    1    4    4    0    0  0.88297493966E-01 -0.24620620516E-01  0.15473535215E-01  0.92964045783E-01  0.51100000000E-03 0. -1.
</event>
<event>
 8    1  0.2025822E+004  0.1043930E+01  0.7957747E-01            NaN
         13   -1    0    0    0    0  0.00000000000E+00  0.00000000000E+00  0.74505805969E-08  0.10566000000E+00  0.10566000000E+00 0.  1.
     999900   -1    0    0    0    0 -0.00000000000E+00 -0.00000000000E+00 -0.74505805969E-08  0.93827000000E+00  0.93827000000E+00 0.  1.
     999902    2    1    2    0    0  0.11025741891E-01 -0.57725149675E-02  0.89923603045E-03  0.10314521180E+01  0.10313766403E+01 0.  0.
     999903    2    3    3    0    0 -0.93783013063E-01 -0.94607890611E-01 -0.16075864842E-02  0.14078782479E+00  0.45527143208E-01 0.  0.
         14    1    1    2    0    0 -0.11025741891E-01  0.57725149675E-02 -0.89923603045E-03  0.12477881981E-01  0.00000000000E+00 0.  1.
     999901    1    3    3    0    0  0.10480875495E+00  0.88835375644E-01  0.25068225146E-02  0.89066429323E+00  0.88000000000E+00 0. -1.
        -11    1    4    4    0    0 -0.54004480594E-01 -0.60979875492E-01 -0.22743044402E-01  0.84572668925E-01  0.51100000000E-03 0. -1.
         11    1    4    4    0    0 -0.39778532468E-01 -0.33628015119E-01  0.21135457918E-01  0.56215155861E-01  0.51100000000E-03 0.  1.
</event>
<event>
 8    1  0.2025822E+004  0.1043930E+01  0.7957747E-01            NaN
         13   -1    0    0    0    0  0.00000000000E+00  0.00000000000E+00  0.74505805969E-08  0.10566000000E+00  0.10566000000E+00 0.  1.
     999900   -1    0    0    0    0 -0.00000000000E+00 -0.00000000000E+00 -0.74505805969E-08  0.93827000000E+00  0.93827000000E+00 0.  1.
     999902    2    1    2    0    0 -0.10371362091E-01  0.86417367040E-02 -0.82846827802E-02  0.10280907849E+01  0.10279687648E+01 0.  0.
     999903    2    3    3    0    0  0.11519386215E+00 -0.21955079124E-01 -0.55882548936E-01  0.13737851516E+00  0.44702860924E-01 0.  0.
         14    1    1    2    0    0  0.10371362091E-01 -0.86417367040E-02  0.82846827802E-02  0.15839215058E-01  0.00000000000E+00 0.  1.
     999901    1    3    3    0    0 -0.12556522424E+00  0.30596815828E-01  0.47597866156E-01  0.89071226978E+00  0.88000000000E+00 0. -1.
        -11    1    4    4    0    0  0.42462524637E-01 -0.24631199890E-01 -0.38913730447E-01  0.62644245905E-01  0.51100000000E-03 0.  1.
         11    1    4    4    0    0  0.72731337516E-01  0.26761207664E-02 -0.16968818489E-01  0.74734269255E-01  0.51100000000E-03 0. -1.
</event>
<event>
 8    1  0.2025822E+004  0.1043930E+01  0.7957747E-01            NaN
         13   -1    0    0    0    0  0.00000000000E+00  0.00000000000E+00  0.74505805969E-08  0.10566000000E+00  0.10566000000E+00 0.  1.
     999900   -1    0    0    0    0 -0.00000000000E+00 -0.00000000000E+00 -0.74505805969E-08  0.93827000000E+00  0.93827000000E+00 0.  1.
     999902    2    1    2    0    0 -0.58779695448E-02  0.12634714298E-01  0.22329207946E-02  0.10298171524E+01  0.10297204451E+01 0.  0.
     999903    2    3    3    0    0  0.67685875467E-01  0.96618842804E-01 -0.60968961456E-01  0.14051436313E+00  0.45940107332E-01 0.  0.
         14    1    1    2    0    0  0.58779695448E-02 -0.12634714298E-01 -0.22329207946E-02  0.14112847574E-01  0.00000000000E+00 0. -1.
     999901    1    3    3    0    0 -0.73563845012E-01 -0.83984128505E-01  0.63201882251E-01  0.88930278930E+00  0.88000000000E+00 0. -1.
        -11    1    4    4    0    0  0.75274720663E-02  0.89826743885E-02  0.76380549898E-02  0.13998295607E-01  0.51100000000E-03 0. -1.
         11    1    4    4    0    0  0.60158403401E-01  0.87636168415E-01 -0.68607016446E-01  0.12651606752E+00  0.51100000000E-03 0.  1.
</event>
<event>
 8    1  0.2025822E+004  0.1043930E+01  0.7957747E-01            NaN
         13   -1    0    0    0    0  0.00000000000E+00  0.00000000000E+00  0.74505805969E-08  0.10566000000E+00  0.10566000000E+00 0.  1.
     999900   -1    0    0    0    0 -0.00000000000E+00 -0.00000000000E+00 -0.74505805969E-08  0.93827000000E+00  0.93827000000E+00 0.  1.
     999902    2    1    2    0    0  0.11303247716E-01  0.77861589454E-02 -0.10536423690E-01  0.10266267083E+01  0.10264808787E+01 0.  0.
     999903    2    3    3    0    0 -0.49662746643E-01 -0.18751751889E-01 -0.11836213940E+00  0.13755556482E+00  0.45759378981E-01 0.  0.
         14    1    1    2    0    0 -0.11303247716E-01 -0.77861589454E-02  0.10536423690E-01  0.17303291716E-01  0.00000000000E+00 0.  1.
     999901    1    3    3    0    0  0.60965994358E-01  0.26537910834E-01  0.10782571571E+00  0.88907114347E+00  0.88000000000E+00 0. -1.
        -11    1    4    4    0    0 -0.26052940347E-01  0.13337328869E-01 -0.61653986599E-01  0.68250386274E-01  0.51100000000E-03 0. -1.
         11    1    4    4    0    0 -0.23609806295E-01 -0.32089080757E-01 -0.56708152804E-01  0.69305178541E-01  0.51100000000E-03 0.  1.
</event>
<event>
 8    1  0.2025822E+004  0.1043930E+01  0.7957747E-01            NaN
         13   -1    0    0    0    0  0.00000000000E+00  0.00000000000E+00  0.74505805969E-08  0.10566000000E+00  0.10566000000E+00 0. -1.
     999900   -1    0    0    0    0 -0.00000000000E+00 -0.00000000000E+00 -0.74505805969E-08  0.93827000000E+00  0.93827000000E+00 0.  1.
     999902    2    1    2    0    0  0.90110625125E-02  0.15941953232E-02 -0.10931673261E-01  0.10296736966E+01  0.10295749993E+01 0.  0.
     999903    2    3    3    0    0 -0.35284081390E-01 -0.10090923108E+00 -0.78426079522E-01  0.14005326795E+00  0.45129021664E-01 0.  0.
         14    1    1    2    0    0 -0.90110625125E-02 -0.15941953232E-02  0.10931673261E-01  0.14256303399E-01  0.00000000000E+00 0. -1.
     999901    1    3    3    0    0  0.44295143902E-01  0.10250342641E+00  0.67494406261E-01  0.88962042865E+00  0.88000000000E+00 0. -1.
        -11    1    4    4    0    0 -0.41195565997E-01 -0.93120436440E-01 -0.57476870802E-01  0.11692879089E+00  0.51100000000E-03 0.  1.
         11    1    4    4    0    0  0.59114846073E-02 -0.77887946437E-02 -0.20949208720E-01  0.23124477059E-01  0.51100000000E-03 0. -1.
</event>
<event>
 8    1  0.2025822E+004  0.1043930E+01  0.7957747E-01            NaN
         13   -1    0    0    0    0  0.00000000000E+00  0.00000000000E+00  0.74505805969E-08  0.10566000000E+00  0.10566000000E+00 0.  1.
     999900   -1    0    0    0    0 -0.00000000000E+00 -0.00000000000E+00 -0.74505805969E-08  0.93827000000E+00  0.93827000000E+00 0.  1.
     999902    2    1    2    0    0  0.88024810121E-02  0.12856015789E-01 -0.13438713937E-01  0.10233542899E+01  0.10231474199E+01 0.  0.
     999903    2    3    3    0    0 -0.62506339253E-01  0.18961256457E-01  0.10628086334E+00  0.13236888093E+00  0.44264286191E-01 0.  0.
         14    1    1    2    0    0 -0.88024810121E-02 -0.12856015789E-01  0.13438713937E-01  0.20575710102E-01  0.00000000000E+00 0.  1.
     999901    1    3    3    0    0  0.71308820265E-01 -0.61052406683E-02 -0.11971957728E+00  0.89098540897E+00  0.88000000000E+00 0.  1.
        -11    1    4    4    0    0 -0.19486465515E-01 -0.74908968787E-02  0.61222912796E-01  0.64686490449E-01  0.51100000000E-03 0.  1.
         11    1    4    4    0    0 -0.43019873739E-01  0.26452153336E-01  0.45057950548E-01  0.67682390480E-01  0.51100000000E-03 0. -1.
</event>
<event>
 8    1  0.2025822E+004  0.1043930E+01  0.7957747E-01            NaN
         13   -1    0    0    0    0  0.00000000000E+00  0.00000000000E+00  0.74505805969E-08  0.10566000000E+00  0.10566000000E+00 0.  1.
     999900   -1    0    0    0    0 -0.00000000000E+00 -0.00000000000E+00 -0.74505805969E-08  0.93827000000E+00  0.93827000000E+00 0. -1.
     999902    2    1    2    0    0 -0.11141527755E-01  0.56154282556E-02 -0.46309935147E-02  0.10306216276E+01  0.10305356988E+01 0.  0.
     999903    2    3    3    0    0  0.13119034277E+00 -0.77181329874E-02  0.27032147749E-02  0.13905562564E+00  0.45372723525E-01 0.  0.
         14    1    1    2    0    0  0.11141527755E-01 -0.56154282556E-02  0.46309935147E-02  0.13308372408E-01  0.00000000000E+00 0.  1.
     999901    1    3    3    0    0 -0.14233187052E+00  0.13333561243E-01 -0.73342082896E-02  0.89156600195E+00  0.88000000000E+00 0. -1.
        -11    1    4    4    0    0  0.48429055456E-01  0.16235663956E-01 -0.97435921729E-02  0.52001624069E-01  0.51100000000E-03 0.  1.
         11    1    4    4    0    0  0.82761287312E-01 -0.23953796943E-01  0.12446806948E-01  0.87054001573E-01  0.51100000000E-03 0. -1.
</event>
<event>
 8    1  0.2025822E+004  0.1043930E+01  0.7957747E-01            NaN
         13   -1    0    0    0    0  0.00000000000E+00  0.00000000000E+00  0.74505805969E-08  0.10566000000E+00  0.10566000000E+00 0.  1.
     999900   -1    0    0    0    0 -0.00000000000E+00 -0.00000000000E+00 -0.74505805969E-08  0.93827000000E+00  0.93827000000E+00 0. -1.
     999902    2    1    2    0    0 -0.85708391097E-02  0.26262686393E-02  0.97088736972E-02  0.10307156594E+01  0.10306309483E+01 0.  0.
     999903    2    3    3    0    0  0.10481275653E+00  0.70045341865E-01  0.39167710622E-01  0.14039605705E+00  0.47800412456E-01 0.  0.
         14    1    1    2    0    0  0.85708391097E-02 -0.26262686393E-02 -0.97088736972E-02  0.13214340637E-01  0.00000000000E+00 0. -1.
     999901    1    3    3    0    0 -0.11338359564E+00 -0.67419073226E-01 -0.29458836925E-01  0.89031960232E+00  0.88000000000E+00 0. -1.
        -11    1    4    4    0    0  0.58386865812E-01  0.33681233850E-01 -0.36677228585E-02  0.67506776882E-01  0.51100000000E-03 0. -1.
         11    1    4    4    0    0  0.46425890716E-01  0.36364108015E-01  0.42835433481E-01  0.72889280165E-01  0.51100000000E-03 0.  1.
</event>
<event>
 8    1  0.2025822E+004  0.1043930E+01  0.7957747E-01            NaN
         13   -1    0    0    0    0  0.00000000000E+00  0.00000000000E+00  0.74505805969E-08  0.10566000000E+00  0.10566000000E+00 0.  1.
     999900   -1    0    0    0    0 -0.00000000000E+00 -0.00000000000E+00 -0.74505805969E-08  0.93827000000E+00  0.93827000000E+00 0. -1.
     999902    2    1    2    0    0 -0.10515025717E-01  0.66108109961E-02 -0.66508004587E-02  0.10298409356E+01  0.10297445562E+01 0.  0.
     999903    2    3    3    0    0 -0.37983552576E-01 -0.12332918499E+00 -0.27985495321E-01  0.13961956332E+00  0.45360736068E-01 0.  0.
         14    1    1    2    0    0  0.10515025717E-01 -0.66108109961E-02  0.66508004587E-02  0.14089064362E-01  0.00000000000E+00 0.  1.
     999901    1    3    3    0    0  0.27468526859E-01  0.12993999599E+00  0.21334694862E-01  0.89022137232E+00  0.88000000000E+00 0.  1.
        -11    1    4    4    0    0 -0.14648050967E-01 -0.17093220337E-01 -0.20732935517E-01  0.30608157651E-01  0.51100000000E-03 0. -1.
         11    1    4    4    0    0 -0.23335501609E-01 -0.10623596465E+00 -0.72525598038E-02  0.10901140567E+00  0.51100000000E-03 0.  1.
</event>
<event>
 8    1  0.2025822E+004  0.1043930E+01  0.7957747E-01            NaN
         13   -1    0    0    0    0  0.00000000000E+00  0.00000000000E+00  0.74505805969E-08  0.10566000000E+00  0.10566000000E+00 0. -1.
     999900   -1    0    0    0    0 -0.00000000000E+00 -0.00000000000E+00 -0.74505805969E-08  0.93827000000E+00  0.93827000000E+00 0.  1.
     999902    2    1    2    0    0  0.12141295571E-01  0.59692682902E-02  0.79203366900E-03  0.10303774896E+01  0.10302883579E+01 0.  0.
     999903    2    3    3    0    0 -0.75269355592E-01  0.10889066599E+00 -0.84362392757E-02  0.14003003094E+00  0.44884144195E-01 0.  0.
         14    1    1    2    0    0 -0.12141295571E-01 -0.59692682902E-02 -0.79203366900E-03  0.13552510446E-01  0.00000000000E+00 0.  1.
     999901    1    3    3    0    0  0.87410651163E-01 -0.10292139770E+00  0.92282729447E-02  0.89034745862E+00  0.88000000000E+00 0. -1.
        -11    1    4    4    0    0 -0.28627681197E-01  0.76734687363E-01  0.41008990980E-02  0.82005090512E-01  0.51100000000E-03 0.  1.
         11    1    4    4    0    0 -0.46641674395E-01  0.32155978629E-01 -0.12537138374E-01  0.58024940427E-01  0.51100000000E-03 0. -1.
</event>
<event>
 8    1  0.2025822E+004  0.1043930E+01  0.7957747E-01            NaN
         13   -1    0    0    0    0  0.00000000000E+00  0.00000000000E+00  0.74505805969E-08  0.10566000000E+00  0.10566000000E+00 0.  1.
     999900   -1    0    0    0    0 -0.00000000000E+00 -0.00000000000E+00 -0.74505805969E-08  0.93827000000E+00  0.93827000000E+00 0.  1.
     999902    2    1    2    0    0 -0.41206408117E-02  0.75277194355E-02 -0.11132268794E-01  0.10298739106E+01  0.10297779849E+01 0.  0.
     999903    2    3    3    0    0 -0.70934802378E-02 -0.13057573555E+00 -0.88341414551E-02  0.13909521562E+00  0.46573563062E-01 0.  0.
         14    1    1    2    0    0  0.41206408117E-02 -0.75277194355E-02  0.11132268794E-01  0.14056089396E-01  0.00000000000E+00 0.  1.
     999901    1    3    3    0    0  0.29728394261E-02  0.13810345498E+00 -0.22981273391E-02  0.89077869499E+00  0.88000000000E+00 0.  1.
        -11    1    4    4    0    0 -0.16347234052E-01 -0.77617352871E-01  0.14239673602E-01  0.80589794349E-01  0.51100000000E-03 0. -1.
         11    1    4    4    0    0  0.92537538145E-02 -0.52958382678E-01 -0.23073815057E-01  0.58505421269E-01  0.51100000000E-03 0.  1.
</event>
<event>
 8    1  0.2025822E+004  0.1043930E+01  0.7957747E-01            NaN
         13   -1    0    0    0    0  0.00000000000E+00  0.00000000000E+00  0.74505805969E-08  0.10566000000E+00  0.10566000000E+00 0. -1.
     999900   -1    0    0    0    0 -0.00000000000E+00 -0.00000000000E+00 -0.74505805969E-08  0.93827000000E+00  0.93827000000E+00 0.  1.
     999902    2    1    2    0    0 -0.37243500327E-02 -0.11791735903E-01 -0.42355530875E-02  0.10308588207E+01  0.10307759468E+01 0.  0.
     999903    2    3    3    0    0  0.12280909306E+00 -0.51874093102E-01 -0.92656919020E-02  0.14089106291E+00  0.44625594536E-01 0.  0.
         14    1    1    2    0    0  0.37243500327E-02  0.11791735903E-01  0.42355530875E-02  0.13071179317E-01  0.00000000000E+00 0.  1.
     999901    1    3    3    0    0 -0.12653344309E+00  0.40082357198E-01  0.50301388145E-02  0.88996775777E+00  0.88000000000E+00 0. -1.
        -11    1    4    4    0    0  0.92626160071E-01 -0.58361504528E-01 -0.10553307616E-01  0.10998774551E+00  0.51100000000E-03 0.  1.
         11    1    4    4    0    0  0.30182932991E-01  0.64874114263E-02  0.12876157136E-02  0.30903317398E-01  0.51100000000E-03 0. -1.
</event>
<event>
 8    1  0.2025822E+004  0.1043930E+01  0.7957747E-01            NaN
         13   -1    0    0    0    0  0.00000000000E+00  0.00000000000E+00  0.74505805969E-08  0.10566000000E+00  0.10566000000E+00 0.  1.
     999900   -1    0    0    0    0 -0.00000000000E+00 -0.00000000000E+00 -0.74505805969E-08  0.93827000000E+00  0.93827000000E+00 0.  1.
     999902    2    1    2    0    0 -0.41245456570E-02  0.13637631729E-01  0.47040847877E-02  0.10289258243E+01  0.10288164202E+01 0.  0.
     999903    2    3    3    0    0  0.46202984776E-01  0.75825821238E-02 -0.12204203011E+00  0.13840120271E+00  0.45479934514E-01 0.  0.
         14    1    1    2    0    0  0.41245456570E-02 -0.13637631729E-01 -0.47040847877E-02  0.15004175743E-01  0.00000000000E+00 0. -1.
     999901    1    3    3    0    0 -0.50327530433E-01  0.60550496049E-02  0.12674611490E+00  0.89052462155E+00  0.88000000000E+00 0. -1.
        -11    1    4    4    0    0  0.50309575173E-01 -0.63064644775E-02 -0.97599524638E-01  0.10998524073E+00  0.51100000000E-03 0.  1.
         11    1    4    4    0    0 -0.41065903975E-02  0.13889046601E-01 -0.24442505472E-01  0.28415961975E-01  0.51100000000E-03 0. -1.
</event>
<event>
 8    1  0.2025822E+004  0.1043930E+01  0.7957747E-01            NaN
         13   -1    0    0    0    0  0.00000000000E+00  0.00000000000E+00  0.74505805969E-08  0.10566000000E+00  0.10566000000E+00 0. -1.
     999900   -1    0    0    0    0 -0.00000000000E+00 -0.00000000000E+00 -0.74505805969E-08  0.93827000000E+00  0.93827000000E+00 0. -1.
     999902    2    1    2    0    0 -0.43310645140E-02 -0.12614290770E-01  0.66548579267E-02  0.10290247799E+01  0.10289168247E+01 0.  0.
     999903    2    3    3    0    0 -0.66743965507E-01 -0.11580364525E+00 -0.28982226385E-02  0.14074854224E+00  0.44005809438E-01 0.  0.
         14    1    1    2    0    0  0.43310645140E-02  0.12614290770E-01 -0.66548579267E-02  0.14905220075E-01  0.00000000000E+00 0. -1.
     999901    1    3    3    0    0  0.62412900993E-01  0.10318935448E+00  0.95530805652E-02  0.88827623768E+00  0.88000000000E+00 0.  1.
        -11    1    4    4    0    0 -0.59276999846E-01 -0.11368958085E+00 -0.12000264932E-01  0.12877636034E+00  0.51100000000E-03 0. -1.
         11    1    4    4    0    0 -0.74669656609E-02 -0.21140644008E-02  0.91020422940E-02  0.11972181898E-01  0.51100000000E-03 0.  1.
</event>
<event>
 8    1  0.2025822E+004  0.1043930E+01  0.7957747E-01            NaN
         13   -1    0    0    0    0  0.00000000000E+00  0.00000000000E+00  0.74505805969E-08  0.10566000000E+00  0.10566000000E+00 0.  1.
     999900   -1    0    0    0    0 -0.00000000000E+00 -0.00000000000E+00 -0.74505805969E-08  0.93827000000E+00  0.93827000000E+00 0.  1.
     999902    2    1    2    0    0  0.40233824536E-02 -0.95248009046E-02 -0.89787047877E-02  0.10302359656E+01  0.10301449501E+01 0.  0.
     999903    2    3    3    0    0 -0.76418045183E-01 -0.22310540498E-01 -0.10685131175E+00  0.14107155694E+00  0.46330373490E-01 0.  0.
         14    1    1    2    0    0 -0.40233824536E-02  0.95248009046E-02  0.89787047877E-02  0.13694034406E-01  0.00000000000E+00 0.  1.
     999901    1    3    3    0    0  0.80441427637E-01  0.12785739593E-01  0.97872606967E-01  0.88916440865E+00  0.88000000000E+00 0. -1.
        -11    1    4    4    0    0 -0.60483380801E-02 -0.57969506047E-02 -0.45483316556E-01  0.46251272802E-01  0.51100000000E-03 0. -1.
         11    1    4    4    0    0 -0.70369707103E-01 -0.16513589893E-01 -0.61367995199E-01  0.94820284141E-01  0.51100000000E-03 0.  1.
</event>
<event>
 8    1  0.2025822E+004  0.1043930E+01  0.7957747E-01            NaN
         13   -1    0    0    0    0  0.00000000000E+00  0.00000000000E+00  0.74505805969E-08  0.10566000000E+00  0.10566000000E+00 0. -1.
     999900   -1    0    0    0    0 -0.00000000000E+00 -0.00000000000E+00 -0.74505805969E-08  0.93827000000E+00  0.93827000000E+00 0. -1.
     999902    2    1    2    0    0  0.10593084542E-01 -0.98992045301E-02  0.74375513288E-02  0.10276350664E+01  0.10275058661E+01 0.  0.
     999903    2    3    3    0    0 -0.81851315305E-01 -0.13838270996E-01  0.10046896412E+00  0.13790683428E+00  0.45090427252E-01 0.  0.
         14    1    1    2    0    0 -0.10593084542E-01  0.98992045301E-02 -0.74375513288E-02  0.16294933575E-01  0.00000000000E+00 0. -1.
     999901    1    3    3    0    0  0.92444399846E-01  0.39390664661E-02 -0.93031412788E-01  0.88972823214E+00  0.88000000000E+00 0. -1.
        -11    1    4    4    0    0 -0.37158745057E-01 -0.16392925423E-01  0.77711832445E-01  0.87686317982E-01  0.51100000000E-03 0.  1.
         11    1    4    4    0    0 -0.44692570248E-01  0.25546544270E-02  0.22757131671E-01  0.50220516300E-01  0.51100000000E-03 0. -1.
</event>
<event>
 8    1  0.2025822E+004  0.1043930E+01  0.7957747E-01            NaN
         13   -1    0    0    0    0  0.00000000000E+00  0.00000000000E+00  0.74505805969E-08  0.10566000000E+00  0.10566000000E+00 0. -1.
     999900   -1    0    0    0    0 -0.00000000000E+00 -0.00000000000E+00 -0.74505805969E-08  0.93827000000E+00  0.93827000000E+00 0.  1.
     999902    2    1    2    0    0 -0.24597806381E-02  0.92536596492E-02 -0.10874557029E-01  0.10294408065E+01  0.10293388351E+01 0.  0.
     999903    2    3    3    0    0 -0.82939721303E-01  0.80370215339E-01  0.64513489474E-01  0.13971166631E+00  0.44933178126E-01 0.  0.
         14    1    1    2    0    0  0.24597806381E-02 -0.92536596492E-02  0.10874557029E-01  0.14489193500E-01  0.00000000000E+00 0. -1.
     999901    1    3    3    0    0  0.80479940665E-01 -0.71116555689E-01 -0.75388046503E-01  0.88972914019E+00  0.88000000000E+00 0.  1.
        -11    1    4    4    0    0 -0.23291142311E-02  0.27157625580E-01  0.16184222890E-01  0.31704125785E-01  0.51100000000E-03 0. -1.
         11    1    4    4    0    0 -0.80610607072E-01  0.53212589758E-01  0.48329266584E-01  0.10800754053E+00  0.51100000000E-03 0.  1.
</event>
<event>
 8    1  0.2025822E+004  0.1043930E+01  0.7957747E-01            NaN
         13   -1    0    0    0    0  0.00000000000E+00  0.00000000000E+00  0.74505805969E-08  0.10566000000E+00  0.10566000000E+00 0.  1.
     999900   -1    0    0    0    0 -0.00000000000E+00 -0.00000000000E+00 -0.74505805969E-08  0.93827000000E+00  0.93827000000E+00 0. -1.
     999902    2    1    2    0    0 -0.12055311314E-01  0.62037776282E-02  0.27932462449E-02  0.10300873264E+01  0.10299943109E+01 0.  0.
     999903    2    3    3    0    0  0.15927866995E-01  0.11924386423E+00  0.60215401405E-01  0.14056024792E+00  0.40724594869E-01 0.  0.
         14    1    1    2    0    0  0.12055311314E-01 -0.62037776282E-02 -0.27932462449E-02  0.13842673597E-01  0.00000000000E+00 0.  1.
     999901    1    3    3    0    0 -0.27983178308E-01 -0.11304008660E+00 -0.57422155160E-01  0.88952707848E+00  0.88000000000E+00 0. -1.
        -11    1    4    4    0    0  0.26005578580E-01  0.69785754239E-01  0.48073512452E-01  0.88643473152E-01  0.51100000000E-03 0.  1.
         11    1    4    4    0    0 -0.10077711585E-01  0.49458109986E-01  0.12141888953E-01  0.51916774770E-01  0.51100000000E-03 0. -1.
</event>
<event>
 8    1  0.2025822E+004  0.1043930E+01  0.7957747E-01            NaN
         13   -1    0    0    0    0  0.00000000000E+00  0.00000000000E+00  0.74505805969E-08  0.10566000000E+00  0.10566000000E+00 0.  1.
     999900   -1    0    0    0    0 -0.00000000000E+00 -0.00000000000E+00 -0.74505805969E-08  0.93827000000E+00  0.93827000000E+00 0. -1.
     999902    2    1    2    0    0 -0.76078480106E-02 -0.92907121335E-02  0.80491032580E-02  0.10294736953E+01  0.10293721895E+01 0.  0.
     999903    2    3    3    0    0 -0.11823657172E-01 -0.62507763670E-01 -0.11533422091E+00  0.13926401642E+00  0.45226810284E-01 0.  0.
         14    1    1    2    0    0  0.76078480106E-02  0.92907121335E-02 -0.80491032580E-02  0.14456304734E-01  0.00000000000E+00 0. -1.
     999901    1    3    3    0    0  0.42158091610E-02  0.53217051536E-01  0.12338332417E+00  0.89020967884E+00  0.88000000000E+00 0.  1.
        -11    1    4    4    0    0  0.34357903440E-02  0.58356602479E-02 -0.18918991708E-01  0.20100968983E-01  0.51100000000E-03 0.  1.
         11    1    4    4    0    0 -0.15259447516E-01 -0.68343423917E-01 -0.96415229207E-01  0.11916304744E+00  0.51100000000E-03 0. -1.
</event>
<event>
 8    1  0.2025822E+004  0.1043930E+01  0.7957747E-01            NaN
         13   -1    0    0    0    0  0.00000000000E+00  0.00000000000E+00  0.74505805969E-08  0.10566000000E+00  0.10566000000E+00 0.  1.
     999900   -1    0    0    0    0 -0.00000000000E+00 -0.00000000000E+00 -0.74505805969E-08  0.93827000000E+00  0.93827000000E+00 0.  1.
     999902    2    1    2    0    0 -0.11864911013E-01  0.57753989936E-02  0.38523683402E-02  0.10301832881E+01  0.10300915663E+01 0.  0.
     999903    2    3    3    0    0  0.79160820854E-01  0.85349593707E-01 -0.62559057875E-01  0.13943741306E+00  0.44476597607E-01 0.  0.
         14    1    1    2    0    0  0.11864911013E-01 -0.57753989936E-02 -0.38523683402E-02  0.13746711923E-01  0.00000000000E+00 0.  1.
     999901    1    3    3    0    0 -0.91025731866E-01 -0.79574194713E-01  0.66411426215E-01  0.89074587502E+00  0.88000000000E+00 0.  1.
        -11    1    4    4    0    0  0.16546256560E-01  0.49863428688E-01 -0.29211998504E-01  0.60114408458E-01  0.51100000000E-03 0. -1.
         11    1    4    4    0    0  0.62614564294E-01  0.35486165019E-01 -0.33347059371E-01  0.79323004602E-01  0.51100000000E-03 0.  1.
</event>
<event>
 8    1  0.2025822E+004  0.1043930E+01  0.7957747E-01            NaN
         13   -1    0    0    0    0  0.00000000000E+00  0.00000000000E+00  0.74505805969E-08  0.10566000000E+00  0.10566000000E+00 0.  1.
     999900   -1    0    0    0    0 -0.00000000000E+00 -0.00000000000E+00 -0.74505805969E-08  0.93827000000E+00  0.93827000000E+00 0. -1.
     999902    2    1    2    0    0 -0.77614078226E-02  0.11392963119E-01  0.13073579742E-02  0.10300826809E+01  0.10299896025E+01 0.  0.
     999903    2    3    3    0    0  0.99281826863E-01 -0.83400910294E-01 -0.13466345482E-01  0.13841996734E+00  0.46541937159E-01 0.  0.
         14    1    1    2    0    0  0.77614078226E-02 -0.11392963119E-01 -0.13073579742E-02  0.13847319051E-01  0.00000000000E+00 0. -1.
     999901    1    3    3    0    0 -0.10704323469E+00  0.94793873413E-01  0.14773703456E-01  0.89166271361E+00  0.88000000000E+00 0.  1.
        -11    1    4    4    0    0  0.58717197241E-01 -0.73563167334E-01 -0.19838118271E-01  0.96192831842E-01  0.51100000000E-03 0. -1.
         11    1    4    4    0    0  0.40564629621E-01 -0.98377429593E-02  0.63717727897E-02  0.42227135498E-01  0.51100000000E-03 0.  1.
</event>
<event>
 8    1  0.2025822E+004  0.1043930E+01  0.7957747E-01            NaN
         13   -1    0    0    0    0  0.00000000000E+00  0.00000000000E+00  0.74505805969E-08  0.10566000000E+00  0.10566000000E+00 0. -1.
     999900   -1    0    0    0    0 -0.00000000000E+00 -0.00000000000E+00 -0.74505805969E-08  0.93827000000E+00  0.93827000000E+00 0.  1.
     999902    2    1    2    0    0  0.11840260154E-01  0.76071103981E-02 -0.18571020818E-03  0.10298553996E+01  0.10297592193E+01 0.  0.
     999903    2    3    3    0    0 -0.45515223403E-01 -0.93440340723E-01 -0.82379191022E-01  0.13842059704E+00  0.39638336676E-01 0.  0.
         14    1    1    2    0    0 -0.11840260154E-01 -0.76071103981E-02  0.18571020818E-03  0.14074600435E-01  0.00000000000E+00 0. -1.
     999901    1    3    3    0    0  0.57355483558E-01  0.10104745112E+00  0.82193480814E-01  0.89143480253E+00  0.88000000000E+00 0. -1.
        -11    1    4    4    0    0 -0.41084771939E-02 -0.47983654543E-01 -0.47884947063E-01  0.67915682758E-01  0.51100000000E-03 0. -1.
         11    1    4    4    0    0 -0.41406746210E-01 -0.45456686179E-01 -0.34494243958E-01  0.70504914278E-01  0.51100000000E-03 0.  1.
</event>
<event>
 8    1  0.2025822E+004  0.1043930E+01  0.7957747E-01            NaN
         13   -1    0    0    0    0  0.00000000000E+00  0.00000000000E+00  0.74505805969E-08  0.10566000000E+00  0.10566000000E+00 0.  1.
     999900   -1    0    0    0    0 -0.00000000000E+00 -0.00000000000E+00 -0.74505805969E-08  0.93827000000E+00  0.93827000000E+00 0. -1.
     999902    2    1    2    0    0 -0.83408955328E-02  0.19992658836E-02 -0.12047420246E-01  0.10291412226E+01  0.10290349596E+01 0.  0.
     999903    2    3    3    0    0 -0.21548188588E-01  0.40034511546E-01  0.12063154866E+00  0.13828499329E+00  0.50036809363E-01 0.  0.
         14    1    1    2    0    0  0.83408955328E-02 -0.19992658836E-02  0.12047420246E-01  0.14788777399E-01  0.00000000000E+00 0. -1.
     999901    1    3    3    0    0  0.13207293055E-01 -0.38035245662E-01 -0.13267896891E+00  0.89085622931E+00  0.88000000000E+00 0. -1.
        -11    1    4    4    0    0  0.33675667787E-02  0.28823816173E-02  0.72260020204E-01  0.72397653765E-01  0.51100000000E-03 0.  1.
         11    1    4    4    0    0 -0.24915755367E-01  0.37152129929E-01  0.48371528461E-01  0.65887339530E-01  0.51100000000E-03 0. -1.
</event>
<event>
 8    1  0.2025822E+004  0.1043930E+01  0.7957747E-01            NaN
         13   -1    0    0    0    0  0.00000000000E+00  0.00000000000E+00  0.74505805969E-08  0.10566000000E+00  0.10566000000E+00 0. -1.
     999900   -1    0    0    0    0 -0.00000000000E+00 -0.00000000000E+00 -0.74505805969E-08  0.93827000000E+00  0.93827000000E+00 0.  1.
     999902    2    1    2    0    0  0.60640728380E-02  0.47334121894E-02  0.11902254553E-01  0.10297581323E+01  0.10296606088E+01 0.  0.
     999903    2    3    3    0    0 -0.10487491924E+00 -0.53911797072E-02 -0.78094910470E-01  0.13818118272E+00  0.44355503755E-01 0.  0.
         14    1    1    2    0    0 -0.60640728380E-02 -0.47334121894E-02 -0.11902254553E-01  0.14171867689E-01  0.00000000000E+00 0.  1.
     999901    1    3    3    0    0  0.11093899208E+00  0.10124591897E-01  0.89997165024E-01  0.89157694959E+00  0.88000000000E+00 0.  1.
        -11    1    4    4    0    0 -0.27511343654E-01 -0.32630077245E-02 -0.47434667588E-01  0.54934780051E-01  0.51100000000E-03 0.  1.
         11    1    4    4    0    0 -0.77363575585E-01 -0.21281719827E-02 -0.30660242883E-01  0.83246402673E-01  0.51100000000E-03 0. -1.
</event>
<event>
 8    1  0.2025822E+004  0.1043930E+01  0.7957747E-01            NaN
         13   -1    0    0    0    0  0.00000000000E+00  0.00000000000E+00  0.74505805969E-08  0.10566000000E+00  0.10566000000E+00 0.  1.
     999900   -1    0    0    0    0 -0.00000000000E+00 -0.00000000000E+00 -0.74505805969E-08  0.93827000000E+00  0.93827000000E+00 0. -1.
     999902    2    1    2    0    0  0.87657659284E-02  0.52798359929E-02  0.86347283567E-02  0.10305406813E+01  0.10304536972E+01 0.  0.
     999903    2    3    3    0    0 -0.11175298555E+00  0.52480923504E-01 -0.45836914720E-01  0.13940664427E+00  0.45718842997E-01 0.  0.
         14    1    1    2    0    0 -0.87657659284E-02 -0.52798359929E-02 -0.86347283567E-02  0.13389318661E-01  0.00000000000E+00 0. -1.
     999901    1    3    3    0    0  0.12051875148E+00 -0.47201087511E-01  0.54471643077E-01  0.89113403707E+00  0.88000000000E+00 0. -1.
        -11    1    4    4    0    0 -0.98950853084E-01  0.53015009737E-01 -0.25109380083E-01  0.11503305904E+00  0.51100000000E-03 0.  1.
         11    1    4    4    0    0 -0.12802132465E-01 -0.53408623343E-03 -0.20727534638E-01  0.24373585229E-01  0.51100000000E-03 0. -1.
</event>
<event>
 8    1  0.2025822E+004  0.1043930E+01  0.7957747E-01            NaN
         13   -1    0    0    0    0  0.00000000000E+00  0.00000000000E+00  0.74505805969E-08  0.10566000000E+00  0.10566000000E+00 0. -1.
     999900   -1    0    0    0    0 -0.00000000000E+00 -0.00000000000E+00 -0.74505805969E-08  0.93827000000E+00  0.93827000000E+00 0.  1.
     999902    2    1    2    0    0 -0.38399924686E-03  0.48862576816E-02 -0.12281694621E-01  0.10307064229E+01  0.10306215926E+01 0.  0.
     999903    2    3    3    0    0 -0.12853911716E+00  0.89753113538E-02 -0.34558272044E-01  0.14113534616E+00  0.46065723860E-01 0.  0.
         14    1    1    2    0    0  0.38399924686E-03 -0.48862576816E-02  0.12281694621E-01  0.13223577138E-01  0.00000000000E+00 0. -1.
     999901    1    3    3    0    0  0.12815511791E+00 -0.40890536722E-02  0.22276577423E-01  0.88957107670E+00  0.88000000000E+00 0. -1.
        -11    1    4    4    0    0 -0.23232195515E-01  0.95429963064E-02 -0.24921457713E-01  0.35385644864E-01  0.51100000000E-03 0.  1.
         11    1    4    4    0    0 -0.10530692164E+00 -0.56768495262E-03 -0.96368143316E-02  0.10574970129E+00  0.51100000000E-03 0. -1.
</event>
<event>
 8    1  0.2025822E+004  0.1043930E+01  0.7957747E-01            NaN
         13   -1    0    0    0    0  0.00000000000E+00  0.00000000000E+00  0.74505805969E-08  0.10566000000E+00  0.10566000000E+00 0.  1.
     999900   -1    0    0    0    0 -0.00000000000E+00 -0.00000000000E+00 -0.74505805969E-08  0.93827000000E+00  0.93827000000E+00 0. -1.
     999902    2    1    2    0    0 -0.11637011764E-01 -0.59923504671E-02 -0.16780143219E-02  0.10307336354E+01  0.10306491562E+01 0.  0.
     999903    2    3    3    0    0  0.11140105075E+00  0.26084081985E-01  0.64924618316E-01  0.13910413104E+00  0.45212606290E-01 0.  0.
         14    1    1    2    0    0  0.11637011764E-01  0.59923504671E-02  0.16780143219E-02  0.13196364612E-01  0.00000000000E+00 0. -1.
     999901    1    3    3    0    0 -0.12303806252E+00 -0.32076432453E-01 -0.66602632638E-01  0.89162950435E+00  0.88000000000E+00 0. -1.
        -11    1    4    4    0    0  0.18673534486E-01  0.97271104146E-02  0.34001282564E-01  0.39995823585E-01  0.51100000000E-03 0. -1.
         11    1    4    4    0    0  0.92727516267E-01  0.16356971571E-01  0.30923335752E-01  0.99108307457E-01  0.51100000000E-03 0.  1.
</event>
<event>
 8    1  0.2025822E+004  0.1043930E+01  0.7957747E-01            NaN
         13   -1    0    0    0    0  0.00000000000E+00  0.00000000000E+00  0.74505805969E-08  0.10566000000E+00  0.10566000000E+00 0. -1.
     999900   -1    0    0    0    0 -0.00000000000E+00 -0.00000000000E+00 -0.74505805969E-08  0.93827000000E+00  0.93827000000E+00 0.  1.
     999902    2    1    2    0    0 -0.29793198761E-02  0.50331003699E-02  0.13393325827E-01  0.10293152943E+01  0.10292115358E+01 0.  0.
     999903    2    3    3    0    0 -0.12242476363E-01  0.11769113961E+00  0.63938118550E-01  0.14064639310E+00  0.41136872962E-01 0.  0.
         14    1    1    2    0    0  0.29793198761E-02 -0.50331003699E-02 -0.13393325827E-01  0.14614705709E-01  0.00000000000E+00 0.  1.
     999901    1    3    3    0    0  0.92631564870E-02 -0.11265803924E+00 -0.50544792723E-01  0.88866890119E+00  0.88000000000E+00 0.  1.
        -11    1    4    4    0    0 -0.14758350487E-01  0.81488373768E-01  0.23028148705E-01  0.85957668199E-01  0.51100000000E-03 0. -1.
         11    1    4    4    0    0  0.25158741242E-02  0.36202765846E-01  0.40909969845E-01  0.54688724900E-01  0.51100000000E-03 0.  1.
</event>
<event>
 8    1  0.2143137E+004  0.1043930E+01  0.7957747E-01            NaN
         13   -1    0    0    0    0  0.00000000000E+00  0.00000000000E+00  0.74505805969E-08  0.10566000000E+00  0.10566000000E+00 0.  1.
     999900   -1    0    0    0    0 -0.00000000000E+00 -0.00000000000E+00 -0.74505805969E-08  0.93827000000E+00  0.93827000000E+00 0.  1.
     999902    2    1    2    0    0 -0.47579580399E-02  0.12355698154E-01 -0.21809582747E-02  0.10305114300E+01  0.10304240629E+01 0.  0.
     999903    2    3    3    0    0 -0.59632814972E-01 -0.11816934480E+00 -0.22485428233E-01  0.13896204368E+00  0.35843945526E-01 0.  0.
         14    1    1    2    0    0  0.47579580399E-02 -0.12355698154E-01  0.21809582747E-02  0.13418569990E-01  0.00000000000E+00 0.  1.
     999901    1    3    3    0    0  0.54874856932E-01  0.13052504295E+00  0.20304469958E-01  0.89154938633E+00  0.88000000000E+00 0. -1.
        -11    1    4    4    0    0 -0.59502940964E-01 -0.83914941615E-01 -0.17056642523E-01  0.10427611224E+00  0.51100000000E-03 0. -1.
         11    1    4    4    0    0 -0.12987400826E-03 -0.34254403180E-01 -0.54287857102E-02  0.34685931438E-01  0.51100000000E-03 0.  1.
</event>
<event>
 8    1  0.2025822E+004  0.1043930E+01  0.7957747E-01            NaN
         13   -1    0    0    0    0  0.00000000000E+00  0.00000000000E+00  0.74505805969E-08  0.10566000000E+00  0.10566000000E+00 0. -1.
     999900   -1    0    0    0    0 -0.00000000000E+00 -0.00000000000E+00 -0.74505805969E-08  0.93827000000E+00  0.93827000000E+00 0.  1.
     999902    2    1    2    0    0  0.11844340609E-01 -0.61356233857E-02 -0.34649400676E-02  0.10301481246E+01  0.10300559298E+01 0.  0.
     999903    2    3    3    0    0 -0.59816323081E-01 -0.11725751608E+00 -0.15420924449E-01  0.14018954621E+00  0.45694489503E-01 0.  0.
         14    1    1    2    0    0 -0.11844340609E-01  0.61356233857E-02  0.34649400676E-02  0.13781875361E-01  0.00000000000E+00 0.  1.
     999901    1    3    3    0    0  0.71660663690E-01  0.11112189270E+00  0.11955984382E-01  0.88995857843E+00  0.88000000000E+00 0.  1.
        -11    1    4    4    0    0 -0.22079018585E-02 -0.52904581894E-01 -0.49414200402E-02  0.53183158697E-01  0.51100000000E-03 0.  1.
         11    1    4    4    0    0 -0.57608421222E-01 -0.64352934189E-01 -0.10479504409E-01  0.87006387513E-01  0.51100000000E-03 0. -1.
</event>
<event>
 8    1  0.2025822E+004  0.1043930E+01  0.7957747E-01            NaN
         13   -1    0    0    0    0  0.00000000000E+00  0.00000000000E+00  0.74505805969E-08  0.10566000000E+00  0.10566000000E+00 0.  1.
     999900   -1    0    0    0    0 -0.00000000000E+00 -0.00000000000E+00 -0.74505805969E-08  0.93827000000E+00  0.93827000000E+00 0. -1.
     999902    2    1    2    0    0  0.59225927996E-02  0.97211367699E-03  0.13390485004E-02  0.10377805967E+01  0.10377623773E+01 0.  0.
     999903    2    3    3    0    0  0.91081783223E-01 -0.11935406431E-01  0.10748154961E+00  0.14722744141E+00  0.41052293920E-01 0.  0.
         14    1    1    2    0    0 -0.59225927996E-02 -0.97211367699E-03 -0.13390485004E-02  0.61494033334E-02  0.00000000000E+00 0. -1.
     999901    1    3    3    0    0 -0.85159190424E-01  0.12907520108E-01 -0.10614250111E+00  0.89055315525E+00  0.88000000000E+00 0. -1.
        -11    1    4    4    0    0  0.85603017564E-02 -0.98921253030E-02  0.35019931063E-01  0.37387024512E-01  0.51100000000E-03 0. -1.
         11    1    4    4    0    0  0.82521481467E-01 -0.20432811277E-02  0.72461618550E-01  0.10984041690E+00  0.51100000000E-03 0.  1.
</event>
<event>
 8    1  0.2025822E+004  0.1043930E+01  0.7957747E-01            NaN
         13   -1    0    0    0    0  0.00000000000E+00  0.00000000000E+00  0.74505805969E-08  0.10566000000E+00  0.10566000000E+00 0.  1.
     999900   -1    0    0    0    0 -0.00000000000E+00 -0.00000000000E+00 -0.74505805969E-08  0.93827000000E+00  0.93827000000E+00 0. -1.
     999902    2    1    2    0    0  0.10050461525E-01 -0.44556103223E-02  0.57423851636E-02  0.10315268058E+01  0.10314522344E+01 0.  0.
     999903    2    3    3    0    0 -0.26290819902E-01 -0.11372808745E+00 -0.64437217734E-01  0.14125362315E+00  0.46638459863E-01 0.  0.
         14    1    1    2    0    0 -0.10050461525E-01  0.44556103223E-02 -0.57423851636E-02  0.12403194249E-01  0.00000000000E+00 0.  1.
     999901    1    3    3    0    0  0.36341281428E-01  0.10927247713E+00  0.70179602897E-01  0.89027318260E+00  0.88000000000E+00 0.  1.
        -11    1    4    4    0    0  0.10305616256E-01 -0.34383360367E-01 -0.31865430678E-01  0.48000916552E-01  0.51100000000E-03 0. -1.
         11    1    4    4    0    0 -0.36596436159E-01 -0.79344727081E-01 -0.32571787055E-01  0.93252706599E-01  0.51100000000E-03 0.  1.
</event>
<event>
 8    1  0.2025822E+004  0.1043930E+01  0.7957747E-01            NaN
         13   -1    0    0    0    0  0.00000000000E+00  0.00000000000E+00  0.74505805969E-08  0.10566000000E+00  0.10566000000E+00 0. -1.
     999900   -1    0    0    0    0 -0.00000000000E+00 -0.00000000000E+00 -0.74505805969E-08  0.93827000000E+00  0.93827000000E+00 0.  1.
     999902    2    1    2    0    0  0.66745230021E-02  0.13605149171E-01  0.72708641670E-02  0.10271218232E+01  0.10269842866E+01 0.  0.
     999903    2    3    3    0    0  0.82650118931E-02  0.12991916163E+00  0.20247158337E-01  0.13937193537E+00  0.45467460528E-01 0.  0.
         14    1    1    2    0    0 -0.66745230021E-02 -0.13605149171E-01 -0.72708641670E-02  0.16808176790E-01  0.00000000000E+00 0.  1.
     999901    1    3    3    0    0 -0.15904888910E-02 -0.11631401246E+00 -0.12976294170E-01  0.88774988784E+00  0.88000000000E+00 0. -1.
        -11    1    4    4    0    0  0.96461986984E-02  0.47491245312E-01 -0.13472534602E-01  0.50301469564E-01  0.51100000000E-03 0.  1.
         11    1    4    4    0    0 -0.13811868053E-02  0.82427916321E-01  0.33719692939E-01  0.89070465806E-01  0.51100000000E-03 0. -1.
</event>
<event>
 8    1  0.2025822E+004  0.1043930E+01  0.7957747E-01            NaN
         13   -1    0    0    0    0  0.00000000000E+00  0.00000000000E+00  0.74505805969E-08  0.10566000000E+00  0.10566000000E+00 0.  1.
     999900   -1    0    0    0    0 -0.00000000000E+00 -0.00000000000E+00 -0.74505805969E-08  0.93827000000E+00  0.93827000000E+00 0.  1.
     999902    2    1    2    0    0  0.40814443577E-02  0.85527582324E-02 -0.90628715314E-02  0.10308172771E+01  0.10307338722E+01 0.  0.
     999903    2    3    3    0    0 -0.19707424004E-01 -0.13074073789E+00 -0.12624668105E-02  0.13950956669E+00  0.44494969066E-01 0.  0.
         14    1    1    2    0    0 -0.40814443577E-02 -0.85527582324E-02  0.90628715314E-02  0.13112722899E-01  0.00000000000E+00 0.  1.
     999901    1    3    3    0    0  0.23788868362E-01  0.13929349612E+00 -0.78004047209E-02  0.89130771041E+00  0.88000000000E+00 0.  1.
        -11    1    4    4    0    0 -0.15523278185E-01 -0.99949901005E-01 -0.20157340160E-01  0.10313842330E+00  0.51100000000E-03 0.  1.
         11    1    4    4    0    0 -0.41841458195E-02 -0.30790836882E-01  0.18894873350E-01  0.36371143397E-01  0.51100000000E-03 0. -1.
</event>
<event>
 8    1  0.2025822E+004  0.1043930E+01  0.7957747E-01            NaN
         13   -1    0    0    0    0  0.00000000000E+00  0.00000000000E+00  0.74505805969E-08  0.10566000000E+00  0.10566000000E+00 0. -1.
     999900   -1    0    0    0    0 -0.00000000000E+00 -0.00000000000E+00 -0.74505805969E-08  0.93827000000E+00  0.93827000000E+00 0.  1.
     999902    2    1    2    0    0 -0.44284095890E-02  0.64517946496E-02  0.10971983673E-01  0.10304533205E+01  0.10303651900E+01 0.  0.
     999903    2    3    3    0    0  0.58168043159E-01 -0.74883862032E-01  0.93518300816E-01  0.14065126415E+00  0.45232637344E-01 0.  0.
         14    1    1    2    0    0  0.44284095890E-02 -0.64517946496E-02 -0.10971983673E-01  0.13476679540E-01  0.00000000000E+00 0.  1.
     999901    1    3    3    0    0 -0.62596452748E-01  0.81335656681E-01 -0.82546317143E-01  0.88980205631E+00  0.88000000000E+00 0. -1.
        -11    1    4    4    0    0  0.36493643967E-01 -0.47020647372E-01  0.85943899888E-01  0.10454349515E+00  0.51100000000E-03 0. -1.
         11    1    4    4    0    0  0.21674399193E-01 -0.27863214660E-01  0.75744009276E-02  0.36107768997E-01  0.51100000000E-03 0.  1.
</event>
<event>
 8    1  0.2025822E+004  0.1043930E+01  0.7957747E-01            NaN
         13   -1    0    0    0    0  0.00000000000E+00  0.00000000000E+00  0.74505805969E-08  0.10566000000E+00  0.10566000000E+00 0. -1.
     999900   -1    0    0    0    0 -0.00000000000E+00 -0.00000000000E+00 -0.74505805969E-08  0.93827000000E+00  0.93827000000E+00 0. -1.
     999902    2    1    2    0    0  0.66018358587E-02  0.10899953164E-01 -0.17040915240E-02  0.10310732063E+01  0.10309930454E+01 0.  0.
     999903    2    3    3    0    0  0.45060240000E-01 -0.49781904025E-01 -0.11562859688E+00  0.14082597687E+00  0.44196381600E-01 0.  0.
         14    1    1    2    0    0 -0.66018358587E-02 -0.10899953164E-01  0.17040915240E-02  0.12856793675E-01  0.00000000000E+00 0. -1.
     999901    1    3    3    0    0 -0.38458404141E-01  0.60681857189E-01  0.11392450536E+00  0.89024722946E+00  0.88000000000E+00 0. -1.
        -11    1    4    4    0    0  0.42666501630E-02  0.59548802180E-02 -0.29612530120E-01  0.30509473335E-01  0.51100000000E-03 0. -1.
         11    1    4    4    0    0  0.40793589837E-01 -0.55736784243E-01 -0.86016066759E-01  0.11031650353E+00  0.51100000000E-03 0.  1.
</event>
<event>
 8    1  0.2025822E+004  0.1043930E+01  0.7957747E-01            NaN
         13   -1    0    0    0    0  0.00000000000E+00  0.00000000000E+00  0.74505805969E-08  0.10566000000E+00  0.10566000000E+00 0.  1.
     999900   -1    0    0    0    0 -0.00000000000E+00 -0.00000000000E+00 -0.74505805969E-08  0.93827000000E+00  0.93827000000E+00 0. -1.
     999902    2    1    2    0    0  0.12500129826E-03  0.38794090565E-02  0.13779395194E-01  0.10296143732E+01  0.10295148470E+01 0.  0.
     999903    2    3    3    0    0 -0.26647997871E-02  0.96208560650E-01 -0.89359253693E-01  0.13878889299E+00  0.44878639647E-01 0.  0.
         14    1    1    2    0    0 -0.12500129826E-03 -0.38794090565E-02 -0.13779395194E-01  0.14315626841E-01  0.00000000000E+00 0. -1.
     999901    1    3    3    0    0  0.27898010853E-02 -0.92329151594E-01  0.10313864889E+00  0.89082548017E+00  0.88000000000E+00 0.  1.
        -11    1    4    4    0    0  0.14320952827E-01  0.58609180697E-01 -0.32488023673E-01  0.68526334755E-01  0.51100000000E-03 0.  1.
         11    1    4    4    0    0 -0.16985752614E-01  0.37599379954E-01 -0.56871230019E-01  0.70262558235E-01  0.51100000000E-03 0. -1.
</event>
<event>
 8    1  0.2025822E+004  0.1043930E+01  0.7957747E-01            NaN
         13   -1    0    0    0    0  0.00000000000E+00  0.00000000000E+00  0.74505805969E-08  0.10566000000E+00  0.10566000000E+00 0. -1.
     999900   -1    0    0    0    0 -0.00000000000E+00 -0.00000000000E+00 -0.74505805969E-08  0.93827000000E+00  0.93827000000E+00 0.  1.
     999902    2    1    2    0    0 -0.54176843448E-02  0.96017258683E-02 -0.12342913742E-01  0.10273803183E+01  0.10272470134E+01 0.  0.
     999903    2    3    3    0    0  0.21425023046E-01 -0.12526591529E+00 -0.21455523905E-01  0.13665429355E+00  0.45425491685E-01 0.  0.
         14    1    1    2    0    0  0.54176843448E-02 -0.96017258683E-02  0.12342913742E-01  0.16549681657E-01  0.00000000000E+00 0.  1.
     999901    1    3    3    0    0 -0.26842707391E-01  0.13486764116E+00  0.91126101630E-02  0.89072602479E+00  0.88000000000E+00 0.  1.
        -11    1    4    4    0    0  0.32574206090E-01 -0.66454915606E-01 -0.20454338447E-01  0.76785257653E-01  0.51100000000E-03 0.  1.
         11    1    4    4    0    0 -0.11149183044E-01 -0.58810999684E-01 -0.10011854581E-02  0.59869035901E-01  0.51100000000E-03 0. -1.
</event>
<event>
 8    1  0.2025822E+004  0.1043930E+01  0.7957747E-01            NaN
         13   -1    0    0    0    0  0.00000000000E+00  0.00000000000E+00  0.74505805969E-08  0.10566000000E+00  0.10566000000E+00 0.  1.
     999900   -1    0    0    0    0 -0.00000000000E+00 -0.00000000000E+00 -0.74505805969E-08  0.93827000000E+00  0.93827000000E+00 0.  1.
     999902    2    1    2    0    0  0.20297905582E-01  0.69901089096E-02 -0.17664207559E-01  0.10161290859E+01  0.10157487034E+01 0.  0.
     999903    2    3    3    0    0 -0.74235262946E-01 -0.88757318975E-01 -0.20482471360E-01  0.12589763710E+00  0.45187912749E-01 0.  0.
         14    1    1    2    0    0 -0.20297905582E-01 -0.69901089096E-02  0.17664207559E-01  0.27800914055E-01  0.00000000000E+00 0.  1.
     999901    1    3    3    0    0  0.94533168529E-01  0.95747427884E-01  0.28182638014E-02  0.89023144884E+00  0.88000000000E+00 0.  1.
        -11    1    4    4    0    0 -0.60321171849E-01 -0.77422100333E-01  0.67286185512E-03  0.98150594788E-01  0.51100000000E-03 0. -1.
         11    1    4    4    0    0 -0.13914091097E-01 -0.11335218641E-01 -0.21155333215E-01  0.27747042314E-01  0.51100000000E-03 0.  1.
</event>
<event>
 8    1  0.2025822E+004  0.1043930E+01  0.7957747E-01            NaN
         13   -1    0    0    0    0  0.00000000000E+00  0.00000000000E+00  0.74505805969E-08  0.10566000000E+00  0.10566000000E+00 0.  1.
     999900   -1    0    0    0    0 -0.00000000000E+00 -0.00000000000E+00 -0.74505805969E-08  0.93827000000E+00  0.93827000000E+00 0.  1.
     999902    2    1    2    0    0 -0.12733844917E-01  0.47524685755E-02  0.17360055844E-02  0.10302277929E+01  0.10301366680E+01 0.  0.
     999903    2    3    3    0    0 -0.79823744130E-01  0.91560809343E-02 -0.10721994428E+00  0.14096301490E+00  0.43804008668E-01 0.  0.
         14    1    1    2    0    0  0.12733844917E-01 -0.47524685755E-02 -0.17360055844E-02  0.13702207097E-01  0.00000000000E+00 0.  1.
     999901    1    3    3    0    0  0.67089899212E-01 -0.44036123588E-02  0.10895594986E+00  0.88926477800E+00  0.88000000000E+00 0. -1.
        -11    1    4    4    0    0 -0.37125797432E-01  0.12237330383E-01 -0.20251213853E-01  0.44027830669E-01  0.51100000000E-03 0. -1.
         11    1    4    4    0    0 -0.42697946697E-01 -0.30812494487E-02 -0.86968730424E-01  0.96935184236E-01  0.51100000000E-03 0.  1.
</event>
<event>
 8    1  0.2025822E+004  0.1043930E+01  0.7957747E-01            NaN
         13   -1    0    0    0    0  0.00000000000E+00  0.00000000000E+00  0.74505805969E-08  0.10566000000E+00  0.10566000000E+00 0. -1.
     999900   -1    0    0    0    0 -0.00000000000E+00 -0.00000000000E+00 -0.74505805969E-08  0.93827000000E+00  0.93827000000E+00 0. -1.
     999902    2    1    2    0    0  0.77817170683E-03  0.13258407973E-01 -0.25920169943E-02  0.10303982047E+01  0.10303093471E+01 0.  0.
     999903    2    3    3    0    0 -0.46296558841E-01  0.45594502467E-01  0.11504497068E+00  0.14073528302E+00  0.48464879982E-01 0.  0.
         14    1    1    2    0    0 -0.77817170683E-03 -0.13258407973E-01  0.25920169943E-02  0.13531795346E-01  0.00000000000E+00 0. -1.
     999901    1    3    3    0    0  0.47074730548E-01 -0.32336094494E-01 -0.11763698767E+00  0.88966292164E+00  0.88000000000E+00 0. -1.
        -11    1    4    4    0    0 -0.25234866560E-01  0.33977066327E-01  0.28794085554E-01  0.51191796319E-01  0.51100000000E-03 0. -1.
         11    1    4    4    0    0 -0.21061692281E-01  0.11617436140E-01  0.86250885127E-01  0.89543486700E-01  0.51100000000E-03 0.  1.
</event>
<event>
 8    1  0.2025822E+004  0.1043930E+01  0.7957747E-01            NaN
         13   -1    0    0    0    0  0.00000000000E+00  0.00000000000E+00  0.74505805969E-08  0.10566000000E+00  0.10566000000E+00 0. -1.
     999900   -1    0    0    0    0 -0.00000000000E+00 -0.00000000000E+00 -0.74505805969E-08  0.93827000000E+00  0.93827000000E+00 0. -1.
     999902    2    1    2    0    0  0.55693508492E-02 -0.42295252716E-02 -0.12197166710E-01  0.10298702195E+01  0.10297742430E+01 0.  0.
     999903    2    3    3    0    0 -0.11536338722E+00 -0.13395469718E-01 -0.62504162773E-01  0.14012894498E+00  0.47341325898E-01 0.  0.
         14    1    1    2    0    0 -0.55693508492E-02  0.42295252716E-02  0.12197166710E-01  0.14059780534E-01  0.00000000000E+00 0. -1.
     999901    1    3    3    0    0  0.12093273807E+00  0.91659444460E-02  0.50306996063E-01  0.88974127449E+00  0.88000000000E+00 0.  1.
        -11    1    4    4    0    0 -0.99878155064E-01 -0.18354829673E-01 -0.68823844716E-01  0.12267651916E+00  0.51100000000E-03 0. -1.
         11    1    4    4    0    0 -0.15485232154E-01  0.49593599553E-02  0.63196819436E-02  0.17452425817E-01  0.51100000000E-03 0.  1.
</event>
<event>
 8    1  0.2025822E+004  0.1043930E+01  0.7957747E-01            NaN
         13   -1    0    0    0    0  0.00000000000E+00  0.00000000000E+00  0.74505805969E-08  0.10566000000E+00  0.10566000000E+00 0.  1.
     999900   -1    0    0    0    0 -0.00000000000E+00 -0.00000000000E+00 -0.74505805969E-08  0.93827000000E+00  0.93827000000E+00 0. -1.
     999902    2    1    2    0    0  0.84573557872E-02  0.10745384863E-01  0.15889626750E-02  0.10301635566E+01  0.10300715695E+01 0.  0.
     999903    2    3    3    0    0 -0.25962314630E-01  0.12636004671E+00  0.35853808887E-01  0.14127349393E+00  0.45075506538E-01 0.  0.
         14    1    1    2    0    0 -0.84573557872E-02 -0.10745384863E-01 -0.15889626750E-02  0.13766443446E-01  0.00000000000E+00 0.  1.
     999901    1    3    3    0    0  0.34419670417E-01 -0.11561466185E+00 -0.34264846213E-01  0.88889006262E+00  0.88000000000E+00 0. -1.
        -11    1    4    4    0    0  0.46375654441E-03  0.47711935085E-01 -0.64325102743E-02  0.48148542336E-01  0.51100000000E-03 0. -1.
         11    1    4    4    0    0 -0.26426071174E-01  0.78648111626E-01  0.42286319162E-01  0.93124951594E-01  0.51100000000E-03 0.  1.
</event>
<event>
 8    1  0.2025822E+004  0.1043930E+01  0.7957747E-01            NaN
         13   -1    0    0    0    0  0.00000000000E+00  0.00000000000E+00  0.74505805969E-08  0.10566000000E+00  0.10566000000E+00 0.  1.
     999900   -1    0    0    0    0 -0.00000000000E+00 -0.00000000000E+00 -0.74505805969E-08  0.93827000000E+00  0.93827000000E+00 0. -1.
     999902    2    1    2    0    0 -0.81145079657E-02  0.10040774772E-01 -0.44545123301E-02  0.10302733138E+01  0.10301827974E+01 0.  0.
     999903    2    3    3    0    0  0.12011812929E+00 -0.44359670216E-01  0.29024813697E-01  0.13868827415E+00  0.44674962231E-01 0.  0.
         14    1    1    2    0    0  0.81145079657E-02 -0.10040774772E-01  0.44545123301E-02  0.13656686188E-01  0.00000000000E+00 0. -1.
     999901    1    3    3    0    0 -0.12823263726E+00  0.54400444988E-01 -0.33479326027E-01  0.89158503966E+00  0.88000000000E+00 0.  1.
        -11    1    4    4    0    0  0.11540602838E+00 -0.39761688483E-01  0.37729044271E-01  0.12776261253E+00  0.51100000000E-03 0.  1.
         11    1    4    4    0    0  0.47121009145E-02 -0.45979817330E-02 -0.87042305738E-02  0.10925661624E-01  0.51100000000E-03 0. -1.
</event>
<event>
 8    1  0.2025822E+004  0.1043930E+01  0.7957747E-01            NaN
         13   -1    0    0    0    0  0.00000000000E+00  0.00000000000E+00  0.74505805969E-08  0.10566000000E+00  0.10566000000E+00 0. -1.
     999900   -1    0    0    0    0 -0.00000000000E+00 -0.00000000000E+00 -0.74505805969E-08  0.93827000000E+00  0.93827000000E+00 0. -1.
     999902    2    1    2    0    0 -0.92574587169E-02  0.44717198663E-02 -0.93333047484E-02  0.10300444896E+01  0.10299508936E+01 0.  0.
     999903    2    3    3    0    0  0.81772337177E-01 -0.10096794433E+00 -0.18916445840E-01  0.13903619388E+00  0.45738281290E-01 0.  0.
         14    1    1    2    0    0  0.92574587169E-02 -0.44717198663E-02  0.93333047484E-02  0.13885510361E-01  0.00000000000E+00 0.  1.
     999901    1    3    3    0    0 -0.91029795894E-01  0.10543966419E+00  0.95831410913E-02  0.89100829576E+00  0.88000000000E+00 0. -1.
        -11    1    4    4    0    0  0.32490223129E-01 -0.98060348675E-02 -0.16983542405E-02  0.33984091086E-01  0.51100000000E-03 0.  1.
         11    1    4    4    0    0  0.49282114048E-01 -0.91161909459E-01 -0.17218091599E-01  0.10505210279E+00  0.51100000000E-03 0. -1.
</event>
<event>
 8    1  0.2025822E+004  0.1043930E+01  0.7957747E-01            NaN
         13   -1    0    0    0    0  0.00000000000E+00  0.00000000000E+00  0.74505805969E-08  0.10566000000E+00  0.10566000000E+00 0. -1.
     999900   -1    0    0    0    0 -0.00000000000E+00 -0.00000000000E+00 -0.74505805969E-08  0.93827000000E+00  0.93827000000E+00 0.  1.
     999902    2    1    2    0    0  0.10804302600E-01 -0.83901120277E-02  0.22039429847E-02  0.10300741601E+01  0.10299809663E+01 0.  0.
     999903    2    3    3    0    0 -0.17041545856E-02  0.91661752742E-01 -0.93756914537E-01  0.13913346437E+00  0.46507857669E-01 0.  0.
         14    1    1    2    0    0 -0.10804302600E-01  0.83901120277E-02 -0.22039429847E-02  0.13855839894E-01  0.00000000000E+00 0.  1.
     999901    1    3    3    0    0  0.12508457185E-01 -0.10005186477E+00  0.95960857522E-01  0.89094069574E+00  0.88000000000E+00 0. -1.
        -11    1    4    4    0    0  0.11719720933E-01  0.18890668583E-01 -0.36498150435E-02  0.22534229277E-01  0.51100000000E-03 0.  1.
         11    1    4    4    0    0 -0.13423875519E-01  0.72771084159E-01 -0.90107099493E-01  0.11659923509E+00  0.51100000000E-03 0. -1.
</event>
<event>
 8    1  0.2025822E+004  0.1043930E+01  0.7957747E-01            NaN
         13   -1    0    0    0    0  0.00000000000E+00  0.00000000000E+00  0.74505805969E-08  0.10566000000E+00  0.10566000000E+00 0.  1.
     999900   -1    0    0    0    0 -0.00000000000E+00 -0.00000000000E+00 -0.74505805969E-08  0.93827000000E+00  0.93827000000E+00 0.  1.
     999902    2    1    2    0    0 -0.44125923909E-02 -0.10580420243E-01  0.67358016854E-02  0.10306338619E+01  0.10305480920E+01 0.  0.
     999903    2    3    3    0    0 -0.11572271077E+00 -0.40607782676E-01 -0.53222465368E-01  0.14109095751E+00  0.45092013380E-01 0.  0.
         14    1    1    2    0    0  0.44125923909E-02  0.10580420243E-01 -0.67358016854E-02  0.13296138104E-01  0.00000000000E+00 0. -1.
     999901    1    3    3    0    0  0.11131011838E+00  0.30027362433E-01  0.59958267053E-01  0.88954290438E+00  0.88000000000E+00 0. -1.
        -11    1    4    4    0    0 -0.60737777023E-01 -0.34403833560E-01 -0.92620171350E-02  0.70418374049E-01  0.51100000000E-03 0.  1.
         11    1    4    4    0    0 -0.54984933747E-01 -0.62039491158E-02 -0.43960448233E-01  0.70672583465E-01  0.51100000000E-03 0. -1.
</event>
<event>
 8    1  0.2025822E+004  0.1043930E+01  0.7957747E-01            NaN
         13   -1    0    0    0    0  0.00000000000E+00  0.00000000000E+00  0.74505805969E-08  0.10566000000E+00  0.10566000000E+00 0. -1.
     999900   -1    0    0    0    0 -0.00000000000E+00 -0.00000000000E+00 -0.74505805969E-08  0.93827000000E+00  0.93827000000E+00 0.  1.
     999902    2    1    2    0    0 -0.53623257422E-02  0.12915725004E-01 -0.33367295346E-02  0.10295527870E+01  0.10294523966E+01 0.  0.
     999903    2    3    3    0    0 -0.60219483610E-01 -0.72599040557E-01 -0.90543327999E-01  0.13942522664E+00  0.48417896291E-01 0.  0.
         14    1    1    2    0    0  0.53623257422E-02 -0.12915725004E-01  0.33367295346E-02  0.14377213003E-01  0.00000000000E+00 0. -1.
     999901    1    3    3    0    0  0.54857157868E-01  0.85514765562E-01  0.87206598464E-01  0.89012756036E+00  0.88000000000E+00 0.  1.
        -11    1    4    4    0    0 -0.54508172311E-01 -0.78240843602E-01 -0.72888177563E-01  0.12002382266E+00  0.51100000000E-03 0.  1.
         11    1    4    4    0    0 -0.57113112994E-02  0.56418030450E-02 -0.17655150436E-01  0.19401403977E-01  0.51100000000E-03 0. -1.
</event>
<event>
 8    1  0.2389167E+004  0.1043930E+01  0.7957747E-01            NaN
         13   -1    0    0    0    0  0.00000000000E+00  0.00000000000E+00  0.74505805969E-08  0.10566000000E+00  0.10566000000E+00 0.  1.
     999900   -1    0    0    0    0 -0.00000000000E+00 -0.00000000000E+00 -0.74505805969E-08  0.93827000000E+00  0.93827000000E+00 0.  1.
     999902    2    1    2    0    0 -0.51834809065E-02 -0.15397176315E-01 -0.56057330037E-02  0.10267437917E+01  0.10265999455E+01 0.  0.
     999903    2    3    3    0    0 -0.86568879301E-01  0.91753275919E-01  0.24239154404E-01  0.13601626896E+00  0.44721966752E-01 0.  0.
         14    1    1    2    0    0  0.51834809065E-02  0.15397176315E-01  0.56057330037E-02  0.17186208287E-01  0.00000000000E+00 0.  1.
     999901    1    3    3    0    0  0.81385398394E-01 -0.10715045223E+00 -0.29844887407E-01  0.89072752275E+00  0.88000000000E+00 0.  1.
        -11    1    4    4    0    0 -0.31903818648E-01  0.45728010763E-01  0.31741247867E-01  0.64161301030E-01  0.51100000000E-03 0. -1.
         11    1    4    4    0    0 -0.54665060653E-01  0.46025265156E-01 -0.75020934632E-02  0.71854967930E-01  0.51100000000E-03 0.  1.
</event>
<event>
 8    1  0.2025822E+004  0.1043930E+01  0.7957747E-01            NaN
         13   -1    0    0    0    0  0.00000000000E+00  0.00000000000E+00  0.74505805969E-08  0.10566000000E+00  0.10566000000E+00 0.  1.
     999900   -1    0    0    0    0 -0.00000000000E+00 -0.00000000000E+00 -0.74505805969E-08  0.93827000000E+00  0.93827000000E+00 0. -1.
     999902    2    1    2    0    0 -0.53371210205E-02  0.10908382203E-01  0.13750730530E-02  0.10317083598E+01  0.10316359684E+01 0.  0.
     999903    2    3    3    0    0  0.10670246984E+00 -0.27135793045E-01  0.74950329827E-01  0.14074621269E+00  0.45499188021E-01 0.  0.
         14    1    1    2    0    0  0.53371210205E-02 -0.10908382203E-01 -0.13750730530E-02  0.12221640192E-01  0.00000000000E+00 0. -1.
     999901    1    3    3    0    0 -0.11203959086E+00  0.38044175248E-01 -0.73575256774E-01  0.89096214712E+00  0.88000000000E+00 0. -1.
        -11    1    4    4    0    0  0.35453770226E-01  0.38419048603E-02  0.45142206010E-01  0.57530947678E-01  0.51100000000E-03 0.  1.
         11    1    4    4    0    0  0.71248699615E-01 -0.30977697905E-01  0.29808123817E-01  0.83215265011E-01  0.51100000000E-03 0. -1.
</event>
<event>
 8    1  0.2025822E+004  0.1043930E+01  0.7957747E-01            NaN
         13   -1    0    0    0    0  0.00000000000E+00  0.00000000000E+00  0.74505805969E-08  0.10566000000E+00  0.10566000000E+00 0. -1.
     999900   -1    0    0    0    0 -0.00000000000E+00 -0.00000000000E+00 -0.74505805969E-08  0.93827000000E+00  0.93827000000E+00 0.  1.
     999902    2    1    2    0    0  0.54392780039E-02 -0.12971458581E-01  0.29224993946E-02  0.10295638772E+01  0.10294636427E+01 0.  0.
     999903    2    3    3    0    0  0.20788790605E-01 -0.13226275446E+00 -0.61200788810E-02  0.14133654756E+00  0.44865959027E-01 0.  0.
         14    1    1    2    0    0 -0.54392780039E-02  0.12971458581E-01 -0.29224993946E-02  0.14366122846E-01  0.00000000000E+00 0. -1.
     999901    1    3    3    0    0 -0.15349512601E-01  0.11929129588E+00  0.90425782756E-02  0.88822732959E+00  0.88000000000E+00 0.  1.
        -11    1    4    4    0    0  0.24239718702E-01 -0.32977057549E-01 -0.91602499436E-02  0.41943075559E-01  0.51100000000E-03 0. -1.
         11    1    4    4    0    0 -0.34509280972E-02 -0.99285696911E-01  0.30401710626E-02  0.99393472004E-01  0.51100000000E-03 0.  1.
</event>
<event>
 8    1  0.2025822E+004  0.1043930E+01  0.7957747E-01            NaN
         13   -1    0    0    0    0  0.00000000000E+00  0.00000000000E+00  0.74505805969E-08  0.10566000000E+00  0.10566000000E+00 0. -1.
     999900   -1    0    0    0    0 -0.00000000000E+00 -0.00000000000E+00 -0.74505805969E-08  0.93827000000E+00  0.93827000000E+00 0. -1.
     999902    2    1    2    0    0  0.11746026942E-02  0.22399943874E-02 -0.12145368116E-01  0.10315240646E+01  0.10314494600E+01 0.  0.
     999903    2    3    3    0    0  0.75251975862E-01  0.39627537163E-01  0.10212311698E+00  0.14026508302E+00  0.44854887356E-01 0.  0.
         14    1    1    2    0    0 -0.11746026942E-02 -0.22399943874E-02  0.12145368116E-01  0.12405935395E-01  0.00000000000E+00 0. -1.
     999901    1    3    3    0    0 -0.74077373168E-01 -0.37387542776E-01 -0.11426848510E+00  0.89125898159E+00  0.88000000000E+00 0. -1.
        -11    1    4    4    0    0  0.19657043383E-01  0.27187511075E-01  0.62279705206E-01  0.70743076796E-01  0.51100000000E-03 0.  1.
         11    1    4    4    0    0  0.55594932480E-01  0.12440026088E-01  0.39843411775E-01  0.69522006224E-01  0.51100000000E-03 0. -1.
</event>
<event>
 8    1  0.2025822E+004  0.1043930E+01  0.7957747E-01            NaN
         13   -1    0    0    0    0  0.00000000000E+00  0.00000000000E+00  0.74505805969E-08  0.10566000000E+00  0.10566000000E+00 0.  1.
     999900   -1    0    0    0    0 -0.00000000000E+00 -0.00000000000E+00 -0.74505805969E-08  0.93827000000E+00  0.93827000000E+00 0. -1.
     999902    2    1    2    0    0  0.23608009985E-02  0.13649823020E-01 -0.66320637985E-02  0.10285717670E+01  0.10284570991E+01 0.  0.
     999903    2    3    3    0    0  0.12441238278E+00 -0.27330166968E-01 -0.32169960360E-01  0.13883690070E+00  0.44893202492E-01 0.  0.
         14    1    1    2    0    0 -0.23608009985E-02 -0.13649823020E-01  0.66320637985E-02  0.15358232973E-01  0.00000000000E+00 0. -1.
     999901    1    3    3    0    0 -0.12205158179E+00  0.40979989988E-01  0.25537896561E-01  0.88973486633E+00  0.88000000000E+00 0. -1.
        -11    1    4    4    0    0  0.88786633534E-01 -0.17982450619E-01 -0.10203971537E-02  0.90596562606E-01  0.51100000000E-03 0.  1.
         11    1    4    4    0    0  0.35625749250E-01 -0.93477163493E-02 -0.31149563206E-01  0.48240338095E-01  0.51100000000E-03 0. -1.
</event>
<event>
 8    1  0.2025822E+004  0.1043930E+01  0.7957747E-01            NaN
         13   -1    0    0    0    0  0.00000000000E+00  0.00000000000E+00  0.74505805969E-08  0.10566000000E+00  0.10566000000E+00 0. -1.
     999900   -1    0    0    0    0 -0.00000000000E+00 -0.00000000000E+00 -0.74505805969E-08  0.93827000000E+00  0.93827000000E+00 0. -1.
     999902    2    1    2    0    0 -0.39617839634E-02 -0.89361295606E-02  0.53072458789E-02  0.10328071855E+01  0.10327472902E+01 0.  0.
     999903    2    3    3    0    0 -0.10280273293E+00 -0.90071463191E-01 -0.17335810601E-03  0.14354765500E+00  0.43870591784E-01 0.  0.
         14    1    1    2    0    0  0.39617839634E-02  0.89361295606E-02 -0.53072458789E-02  0.11122814505E-01  0.00000000000E+00 0.  1.
     999901    1    3    3    0    0  0.98840948967E-01  0.81135333631E-01  0.54806039849E-02  0.88925953049E+00  0.88000000000E+00 0.  1.
        -11    1    4    4    0    0 -0.62212167553E-01 -0.65675403992E-01 -0.19248706676E-01  0.92489925456E-01  0.51100000000E-03 0.  1.
         11    1    4    4    0    0 -0.40590565378E-01 -0.24396059199E-01  0.19075348570E-01  0.51057729544E-01  0.51100000000E-03 0. -1.
</event>
<event>
 7    1  0.2025822E+004  0.1043930E+01  0.7957747E-01            NaN
         13   -1    0    0    0    0  0.00000000000E+00  0.00000000000E+00  0.74505805969E-08  0.10566000000E+00  0.10566000000E+00 0.  1.
     999900   -1    0    0    0    0 -0.00000000000E+00 -0.00000000000E+00 -0.74505805969E-08  0.93827000000E+00  0.93827000000E+00 0.  1.
     999903    2    1    2    0    0  0.72670626431E-01 -0.17561817545E-01  0.15977743340E-01  0.88692347995E-01  0.44962283407E-01 0.  0.
         14    1    1    2    0    0 -0.64561857939E-01  0.12807604862E-01 -0.35876330992E-01  0.74962519757E-01  0.00000000000E+00 0.  1.
     999901    1    1    2    0    0 -0.81087684921E-02  0.47542126836E-02  0.19898587652E-01  0.88027513225E+00  0.88000000000E+00 0. -1.
        -11    1    3    3    0    0  0.60729545358E-01 -0.53133303623E-02  0.28686748243E-01  0.67375810234E-01  0.51100000000E-03 0. -1.
         11    1    3    3    0    0  0.11941081073E-01 -0.12248487183E-01 -0.12709004903E-01  0.21316537761E-01  0.51100000000E-03 0.  1.
</event>
<event>
 8    1  0.2025822E+004  0.1043930E+01  0.7957747E-01            NaN
         13   -1    0    0    0    0  0.00000000000E+00  0.00000000000E+00  0.74505805969E-08  0.10566000000E+00  0.10566000000E+00 0. -1.
     999900   -1    0    0    0    0 -0.00000000000E+00 -0.00000000000E+00 -0.74505805969E-08  0.93827000000E+00  0.93827000000E+00 0.  1.
     999902    2    1    2    0    0  0.10447249751E-01  0.61633511537E-02  0.72743518673E-02  0.10297861632E+01  0.10296890277E+01 0.  0.
     999903    2    3    3    0    0  0.78063419532E-01  0.95609045901E-01 -0.50864236535E-01  0.14076840510E+00  0.44649593382E-01 0.  0.
         14    1    1    2    0    0 -0.10447249751E-01 -0.61633511537E-02 -0.72743518673E-02  0.14143836817E-01  0.00000000000E+00 0.  1.
     999901    1    3    3    0    0 -0.67616169781E-01 -0.89445694747E-01  0.58138588403E-01  0.88901775808E+00  0.88000000000E+00 0. -1.
        -11    1    4    4    0    0  0.43795616597E-01  0.30294601142E-01 -0.40545267425E-02  0.53408980515E-01  0.51100000000E-03 0. -1.
         11    1    4    4    0    0  0.34267802935E-01  0.65314444759E-01 -0.46809709793E-01  0.87359424586E-01  0.51100000000E-03 0.  1.
</event>
<event>
 8    1  0.2025822E+004  0.1043930E+01  0.7957747E-01            NaN
         13   -1    0    0    0    0  0.00000000000E+00  0.00000000000E+00  0.74505805969E-08  0.10566000000E+00  0.10566000000E+00 0. -1.
     999900   -1    0    0    0    0 -0.00000000000E+00 -0.00000000000E+00 -0.74505805969E-08  0.93827000000E+00  0.93827000000E+00 0.  1.
     999902    2    1    2    0    0  0.12303410241E-01  0.33628481101E-02  0.39451161812E-02  0.10305790977E+01  0.10304926152E+01 0.  0.
     999903    2    3    3    0    0 -0.57004811624E-01  0.11780680818E+00  0.16462445780E-01  0.14037814669E+00  0.48031441202E-01 0.  0.
         14    1    1    2    0    0 -0.12303410241E-01 -0.33628481101E-02 -0.39451161812E-02  0.13350902316E-01  0.00000000000E+00 0.  1.
     999901    1    3    3    0    0  0.69308221865E-01 -0.11444396007E+00 -0.12517329599E-01  0.89020095100E+00  0.88000000000E+00 0.  1.
        -11    1    4    4    0    0 -0.24185587032E-01  0.97955738261E-01  0.14845435410E-01  0.10198488786E+00  0.51100000000E-03 0. -1.
         11    1    4    4    0    0 -0.32819224592E-01  0.19851069921E-01  0.16170103704E-02  0.38393258827E-01  0.51100000000E-03 0.  1.
</event>
<event>
 8    1  0.2025822E+004  0.1043930E+01  0.7957747E-01            NaN
         13   -1    0    0    0    0  0.00000000000E+00  0.00000000000E+00  0.74505805969E-08  0.10566000000E+00  0.10566000000E+00 0. -1.
     999900   -1    0    0    0    0 -0.00000000000E+00 -0.00000000000E+00 -0.74505805969E-08  0.93827000000E+00  0.93827000000E+00 0. -1.
     999902    2    1    2    0    0  0.42162286301E-02  0.50665963456E-02  0.11707270033E-01  0.10304947049E+01  0.10304071184E+01 0.  0.
     999903    2    3    3    0    0 -0.53947848499E-01 -0.98161832545E-01 -0.68671434834E-01  0.13892311239E+00  0.45141438482E-01 0.  0.
         14    1    1    2    0    0 -0.42162286301E-02 -0.50665963456E-02 -0.11707270033E-01  0.13435295085E-01  0.00000000000E+00 0.  1.
     999901    1    3    3    0    0  0.58164077129E-01  0.10322842889E+00  0.80378704867E-01  0.89157159252E+00  0.88000000000E+00 0.  1.
        -11    1    4    4    0    0 -0.41646057438E-01 -0.32064964668E-01 -0.38906878966E-01  0.65395431119E-01  0.51100000000E-03 0. -1.
         11    1    4    4    0    0 -0.12301791061E-01 -0.66096867876E-01 -0.29764555867E-01  0.73527681272E-01  0.51100000000E-03 0.  1.
</event>
<event>
 8    1  0.2025822E+004  0.1043930E+01  0.7957747E-01            NaN
         13   -1    0    0    0    0  0.00000000000E+00  0.00000000000E+00  0.74505805969E-08  0.10566000000E+00  0.10566000000E+00 0. -1.
     999900   -1    0    0    0    0 -0.00000000000E+00 -0.00000000000E+00 -0.74505805969E-08  0.93827000000E+00  0.93827000000E+00 0. -1.
     999902    2    1    2    0    0 -0.30342926704E-02  0.71555681464E-02  0.11623594447E-01  0.10299472594E+01  0.10298523390E+01 0.  0.
     999903    2    3    3    0    0  0.12274747044E-01 -0.10556067950E+00  0.80278524118E-01  0.13997376620E+00  0.43061436577E-01 0.  0.
         14    1    1    2    0    0  0.30342926704E-02 -0.71555681464E-02 -0.11623594447E-01  0.13982740624E-01  0.00000000000E+00 0.  1.
     999901    1    3    3    0    0 -0.15309039715E-01  0.11271624764E+00 -0.68654929671E-01  0.88997349317E+00  0.88000000000E+00 0. -1.
        -11    1    4    4    0    0 -0.14720655196E-01 -0.20617559995E-01  0.14454573956E-01  0.29171515196E-01  0.51100000000E-03 0.  1.
         11    1    4    4    0    0  0.26995402240E-01 -0.84943119501E-01  0.65823950162E-01  0.11080225101E+00  0.51100000000E-03 0. -1.
</event>
<event>
 8    1  0.2025822E+004  0.1043930E+01  0.7957747E-01            NaN
         13   -1    0    0    0    0  0.00000000000E+00  0.00000000000E+00  0.74505805969E-08  0.10566000000E+00  0.10566000000E+00 0.  1.
     999900   -1    0    0    0    0 -0.00000000000E+00 -0.00000000000E+00 -0.74505805969E-08  0.93827000000E+00  0.93827000000E+00 0.  1.
     999902    2    1    2    0    0 -0.12783880988E-01  0.46448994870E-02  0.37052846921E-03  0.10303233841E+01  0.10302335346E+01 0.  0.
     999903    2    3    3    0    0 -0.11695279636E+00 -0.49620185942E-01 -0.43106554024E-01  0.14145549791E+00  0.44848226946E-01 0.  0.
         14    1    1    2    0    0  0.12783880988E-01 -0.46448994870E-02 -0.37052846921E-03  0.13606615880E-01  0.00000000000E+00 0. -1.
     999901    1    3    3    0    0  0.10416891538E+00  0.54265085429E-01  0.43477082493E-01  0.88886788621E+00  0.88000000000E+00 0. -1.
        -11    1    4    4    0    0 -0.60186430628E-01 -0.91024067907E-02 -0.28796799284E-02  0.60941069228E-01  0.51100000000E-03 0.  1.
         11    1    4    4    0    0 -0.56766365735E-01 -0.40517779152E-01 -0.40226874096E-01  0.80514428686E-01  0.51100000000E-03 0. -1.
</event>
<event>
 8    1  0.2025822E+004  0.1043930E+01  0.7957747E-01            NaN
         13   -1    0    0    0    0  0.00000000000E+00  0.00000000000E+00  0.74505805969E-08  0.10566000000E+00  0.10566000000E+00 0. -1.
     999900   -1    0    0    0    0 -0.00000000000E+00 -0.00000000000E+00 -0.74505805969E-08  0.93827000000E+00  0.93827000000E+00 0. -1.
     999902    2    1    2    0    0  0.22119142275E-02  0.92670820287E-02  0.94580907868E-02  0.10305051404E+01  0.10304176908E+01 0.  0.
     999903    2    3    3    0    0  0.11088432883E+00 -0.95487609079E-02  0.73517899898E-01  0.14131034241E+00  0.46660669209E-01 0.  0.
         14    1    1    2    0    0 -0.22119142275E-02 -0.92670820287E-02 -0.94580907868E-02  0.13424859597E-01  0.00000000000E+00 0.  1.
     999901    1    3    3    0    0 -0.10867241460E+00  0.18815842937E-01 -0.64059809111E-01  0.88919479800E+00  0.88000000000E+00 0. -1.
        -11    1    4    4    0    0  0.67345895675E-01 -0.21057119968E-01  0.64033207206E-01  0.95285805405E-01  0.51100000000E-03 0.  1.
         11    1    4    4    0    0  0.43538433153E-01  0.11508359060E-01  0.94846926919E-02  0.46024537001E-01  0.51100000000E-03 0. -1.
</event>
<event>
 8    1  0.2025822E+004  0.1043930E+01  0.7957747E-01            NaN
         13   -1    0    0    0    0  0.00000000000E+00  0.00000000000E+00  0.74505805969E-08  0.10566000000E+00  0.10566000000E+00 0. -1.
     999900   -1    0    0    0    0 -0.00000000000E+00 -0.00000000000E+00 -0.74505805969E-08  0.93827000000E+00  0.93827000000E+00 0.  1.
     999902    2    1    2    0    0 -0.11443347427E-01 -0.65405101418E-02 -0.20669350363E-02  0.10305883099E+01  0.10305019475E+01 0.  0.
     999903    2    3    3    0    0 -0.12938490681E+00  0.35992011442E-01 -0.21882236083E-01  0.14148096379E+00  0.38757603893E-01 0.  0.
         14    1    1    2    0    0  0.11443347427E-01  0.65405101418E-02  0.20669350363E-02  0.13341690061E-01  0.00000000000E+00 0. -1.
     999901    1    3    3    0    0  0.11794155939E+00 -0.42532521584E-01  0.19815301047E-01  0.88910734615E+00  0.88000000000E+00 0. -1.
        -11    1    4    4    0    0 -0.66756065095E-01  0.12149203232E-01  0.75765996724E-02  0.68276213645E-01  0.51100000000E-03 0.  1.
         11    1    4    4    0    0 -0.62628841720E-01  0.23842808210E-01 -0.29458835756E-01  0.73204750143E-01  0.51100000000E-03 0. -1.
</event>
<event>
 8    1  0.2025822E+004  0.1043930E+01  0.7957747E-01            NaN
         13   -1    0    0    0    0  0.00000000000E+00  0.00000000000E+00  0.74505805969E-08  0.10566000000E+00  0.10566000000E+00 0.  1.
     999900   -1    0    0    0    0 -0.00000000000E+00 -0.00000000000E+00 -0.74505805969E-08  0.93827000000E+00  0.93827000000E+00 0. -1.
     999902    2    1    2    0    0  0.10289758398E-01  0.44063697584E-02  0.22395105416E-03  0.10327342251E+01  0.10326735371E+01 0.  0.
     999903    2    3    3    0    0  0.49017918622E-01  0.12734939338E+00 -0.90310394091E-02  0.14329591225E+00  0.42796430406E-01 0.  0.
         14    1    1    2    0    0 -0.10289758398E-01 -0.44063697584E-02 -0.22395105416E-03  0.11195774935E-01  0.00000000000E+00 0. -1.
     999901    1    3    3    0    0 -0.38728160224E-01 -0.12294302362E+00  0.92549904632E-02  0.88943831281E+00  0.88000000000E+00 0.  1.
        -11    1    4    4    0    0  0.26159186348E-01  0.11300217330E+00 -0.62482767038E-02  0.11615978772E+00  0.51100000000E-03 0.  1.
         11    1    4    4    0    0  0.22858732274E-01  0.14347220075E-01 -0.27827627053E-02  0.27136124527E-01  0.51100000000E-03 0. -1.
</event>
<event>
 8    1  0.2025822E+004  0.1043930E+01  0.7957747E-01            NaN
         13   -1    0    0    0    0  0.00000000000E+00  0.00000000000E+00  0.74505805969E-08  0.10566000000E+00  0.10566000000E+00 0.  1.
     999900   -1    0    0    0    0 -0.00000000000E+00 -0.00000000000E+00 -0.74505805969E-08  0.93827000000E+00  0.93827000000E+00 0. -1.
     999902    2    1    2    0    0  0.14072034929E-01  0.17186615636E-02 -0.11713281763E-02  0.10297050932E+01  0.10296068332E+01 0.  0.
     999903    2    3    3    0    0  0.54050485276E-02  0.13151361998E+00  0.15808037853E-01  0.13998033418E+00  0.44939438222E-01 0.  0.
         14    1    1    2    0    0 -0.14072034929E-01 -0.17186615636E-02  0.11713281763E-02  0.14224906830E-01  0.00000000000E+00 0. -1.
     999901    1    3    3    0    0  0.86669864014E-02 -0.12979495842E+00 -0.16979366029E-01  0.88972475899E+00  0.88000000000E+00 0.  1.
        -11    1    4    4    0    0  0.49766289949E-02  0.10266371831E+00  0.31012610908E-01  0.10736223289E+00  0.51100000000E-03 0. -1.
         11    1    4    4    0    0  0.42841953267E-03  0.28849901666E-01 -0.15204573055E-01  0.32618101297E-01  0.51100000000E-03 0.  1.
</event>
<event>
 8    1  0.2025822E+004  0.1043930E+01  0.7957747E-01            NaN
         13   -1    0    0    0    0  0.00000000000E+00  0.00000000000E+00  0.74505805969E-08  0.10566000000E+00  0.10566000000E+00 0.  1.
     999900   -1    0    0    0    0 -0.00000000000E+00 -0.00000000000E+00 -0.74505805969E-08  0.93827000000E+00  0.93827000000E+00 0.  1.
     999902    2    1    2    0    0 -0.13518882090E-01 -0.20729538524E-02  0.18434011429E-02  0.10301294406E+01  0.10300369940E+01 0.  0.
     999903    2    3    3    0    0 -0.41317051832E-01  0.99452497852E-01 -0.77778196466E-01  0.14028689593E+00  0.45089546718E-01 0.  0.
         14    1    1    2    0    0  0.13518882090E-01  0.20729538524E-02 -0.18434011429E-02  0.13800559351E-01  0.00000000000E+00 0. -1.
     999901    1    3    3    0    0  0.27798169742E-01 -0.10152545170E+00  0.79621597609E-01  0.88984254472E+00  0.88000000000E+00 0.  1.
        -11    1    4    4    0    0 -0.46988948597E-01  0.68851323853E-01 -0.43649788415E-01  0.94095861950E-01  0.51100000000E-03 0. -1.
         11    1    4    4    0    0  0.56718967650E-02  0.30601173999E-01 -0.34128408051E-01  0.46191033980E-01  0.51100000000E-03 0.  1.
</event>
<event>
 8    1  0.2025822E+004  0.1043930E+01  0.7957747E-01            NaN
         13   -1    0    0    0    0  0.00000000000E+00  0.00000000000E+00  0.74505805969E-08  0.10566000000E+00  0.10566000000E+00 0. -1.
     999900   -1    0    0    0    0 -0.00000000000E+00 -0.00000000000E+00 -0.74505805969E-08  0.93827000000E+00  0.93827000000E+00 0. -1.
     999902    2    1    2    0    0 -0.15492208246E-01 -0.37540877695E-02  0.17546220361E-04  0.10279894229E+01  0.10278658237E+01 0.  0.
     999903    2    3    3    0    0  0.77403029478E-01  0.10104856273E+00 -0.13601474126E-01  0.13681121485E+00  0.48272843371E-01 0.  0.
         14    1    1    2    0    0  0.15492208246E-01  0.37540877695E-02 -0.17546220361E-04  0.15940577129E-01  0.00000000000E+00 0.  1.
     999901    1    3    3    0    0 -0.92895237724E-01 -0.10480265050E+00  0.13619020346E-01  0.89117820803E+00  0.88000000000E+00 0. -1.
        -11    1    4    4    0    0  0.71805391898E-01  0.82530563010E-01 -0.27722915034E-01  0.11285446059E+00  0.51100000000E-03 0.  1.
         11    1    4    4    0    0  0.55976375792E-02  0.18517999720E-01  0.14121440908E-01  0.23956754255E-01  0.51100000000E-03 0. -1.
</event>
<event>
 8    1  0.2025822E+004  0.1043930E+01  0.7957747E-01            NaN
         13   -1    0    0    0    0  0.00000000000E+00  0.00000000000E+00  0.74505805969E-08  0.10566000000E+00  0.10566000000E+00 0. -1.
     999900   -1    0    0    0    0 -0.00000000000E+00 -0.00000000000E+00 -0.74505805969E-08  0.93827000000E+00  0.93827000000E+00 0.  1.
     999902    2    1    2    0    0  0.13116366427E-01 -0.28532268540E-02  0.53911768429E-03  0.10304960646E+01  0.10304084960E+01 0.  0.
     999903    2    3    3    0    0 -0.18688923343E-01 -0.93807875075E-01 -0.92404974777E-01  0.14037083253E+00  0.44900979722E-01 0.  0.
         14    1    1    2    0    0 -0.13116366427E-01  0.28532268540E-02 -0.53911768429E-03  0.13433935373E-01  0.00000000000E+00 0.  1.
     999901    1    3    3    0    0  0.31805289771E-01  0.90954648221E-01  0.92944092461E-01  0.89012523210E+00  0.88000000000E+00 0.  1.
        -11    1    4    4    0    0  0.59502856625E-02 -0.59776659061E-01 -0.35997088618E-01  0.70033608917E-01  0.51100000000E-03 0.  1.
         11    1    4    4    0    0 -0.24639209006E-01 -0.34031216015E-01 -0.56407886158E-01  0.70337223614E-01  0.51100000000E-03 0. -1.
</event>
<event>
 8    1  0.2025822E+004  0.1043930E+01  0.7957747E-01            NaN
         13   -1    0    0    0    0  0.00000000000E+00  0.00000000000E+00  0.74505805969E-08  0.10566000000E+00  0.10566000000E+00 0.  1.
     999900   -1    0    0    0    0 -0.00000000000E+00 -0.00000000000E+00 -0.74505805969E-08  0.93827000000E+00  0.93827000000E+00 0. -1.
     999902    2    1    2    0    0 -0.66347783030E-02 -0.17911805066E-02  0.10359381486E-01  0.10314983712E+01  0.10314234554E+01 0.  0.
     999903    2    3    3    0    0 -0.88839834991E-01 -0.70154877533E-01  0.74339626140E-01  0.14272126856E+00  0.45041729100E-01 0.  0.
         14    1    1    2    0    0  0.66347783030E-02  0.17911805066E-02 -0.10359381486E-01  0.12431628836E-01  0.00000000000E+00 0. -1.
     999901    1    3    3    0    0  0.82205056688E-01  0.68363697027E-01 -0.63980244654E-01  0.88877710261E+00  0.88000000000E+00 0.  1.
        -11    1    4    4    0    0 -0.27859423132E-01 -0.89161955977E-02  0.40381293736E-01  0.49865378831E-01  0.51100000000E-03 0.  1.
         11    1    4    4    0    0 -0.60980411860E-01 -0.61238681935E-01  0.33958332404E-01  0.92855889724E-01  0.51100000000E-03 0. -1.
</event>
<event>
 8    1  0.2025822E+004  0.1043930E+01  0.7957747E-01            NaN
         13   -1    0    0    0    0  0.00000000000E+00  0.00000000000E+00  0.74505805969E-08  0.10566000000E+00  0.10566000000E+00 0. -1.
     999900   -1    0    0    0    0 -0.00000000000E+00 -0.00000000000E+00 -0.74505805969E-08  0.93827000000E+00  0.93827000000E+00 0. -1.
     999902    2    1    2    0    0 -0.14472993925E-01 -0.33205292299E-02 -0.91875266287E-03  0.10290525817E+01  0.10289450318E+01 0.  0.
     999903    2    3    3    0    0 -0.10490703287E+00  0.77740674909E-01  0.31105932597E-01  0.14013480451E+00  0.40262716143E-01 0.  0.
         14    1    1    2    0    0  0.14472993925E-01  0.33205292299E-02  0.91875266287E-03  0.14877418257E-01  0.00000000000E+00 0. -1.
     999901    1    3    3    0    0  0.90434038945E-01 -0.81061204139E-01 -0.32024685260E-01  0.88891777723E+00  0.88000000000E+00 0. -1.
        -11    1    4    4    0    0 -0.22199433625E-01  0.36857607525E-01  0.19160636425E-01  0.47102963759E-01  0.51100000000E-03 0.  1.
         11    1    4    4    0    0 -0.82707599246E-01  0.40883067385E-01  0.11945296172E-01  0.93031840750E-01  0.51100000000E-03 0. -1.
</event>
<event>
 8    1  0.2025822E+004  0.1043930E+01  0.7957747E-01            NaN
         13   -1    0    0    0    0  0.00000000000E+00  0.00000000000E+00  0.74505805969E-08  0.10566000000E+00  0.10566000000E+00 0. -1.
     999900   -1    0    0    0    0 -0.00000000000E+00 -0.00000000000E+00 -0.74505805969E-08  0.93827000000E+00  0.93827000000E+00 0.  1.
     999902    2    1    2    0    0  0.18976102577E-02 -0.82315357243E-02 -0.11352216606E-01  0.10297796669E+01  0.10296824415E+01 0.  0.
     999903    2    3    3    0    0  0.32815191469E-01  0.60623613166E-01 -0.11406754644E+00  0.14059612716E+00  0.44763897929E-01 0.  0.
         14    1    1    2    0    0 -0.18976102577E-02  0.82315357243E-02  0.11352216606E-01  0.14150333103E-01  0.00000000000E+00 0. -1.
     999901    1    3    3    0    0 -0.30917581212E-01 -0.68855148890E-01  0.10271532983E+00  0.88918353974E+00  0.88000000000E+00 0. -1.
        -11    1    4    4    0    0  0.79937119523E-02  0.39699306583E-01 -0.29775495593E-01  0.50267043207E-01  0.51100000000E-03 0. -1.
         11    1    4    4    0    0  0.24821479517E-01  0.20924306583E-01 -0.84292050843E-01  0.90329083953E-01  0.51100000000E-03 0.  1.
</event>
<event>
 8    1  0.2025822E+004  0.1043930E+01  0.7957747E-01            NaN
         13   -1    0    0    0    0  0.00000000000E+00  0.00000000000E+00  0.74505805969E-08  0.10566000000E+00  0.10566000000E+00 0. -1.
     999900   -1    0    0    0    0 -0.00000000000E+00 -0.00000000000E+00 -0.74505805969E-08  0.93827000000E+00  0.93827000000E+00 0.  1.
     999902    2    1    2    0    0 -0.11261682169E-01  0.60422895463E-02  0.91107530549E-02  0.10282347597E+01  0.10281149646E+01 0.  0.
     999903    2    3    3    0    0  0.10148523565E+00 -0.76247561795E-01 -0.23195843032E-01  0.13664785797E+00  0.44962720312E-01 0.  0.
         14    1    1    2    0    0  0.11261682169E-01 -0.60422895463E-02 -0.91107530549E-02  0.15695240344E-01  0.00000000000E+00 0. -1.
     999901    1    3    3    0    0 -0.11274691782E+00  0.82289851342E-01  0.32306596087E-01  0.89158690169E+00  0.88000000000E+00 0.  1.
        -11    1    4    4    0    0  0.48229042770E-01 -0.27983886734E-01  0.11345859199E-01  0.56904552764E-01  0.51100000000E-03 0. -1.
         11    1    4    4    0    0  0.53256192882E-01 -0.48263675062E-01 -0.34541702231E-01  0.79743305203E-01  0.51100000000E-03 0.  1.
</event>
<event>
 8    1  0.2025822E+004  0.1043930E+01  0.7957747E-01            NaN
         13   -1    0    0    0    0  0.00000000000E+00  0.00000000000E+00  0.74505805969E-08  0.10566000000E+00  0.10566000000E+00 0. -1.
     999900   -1    0    0    0    0 -0.00000000000E+00 -0.00000000000E+00 -0.74505805969E-08  0.93827000000E+00  0.93827000000E+00 0.  1.
     999902    2    1    2    0    0 -0.46590950090E-02 -0.10010249769E-01 -0.82691117788E-02  0.10301354186E+01  0.10300430526E+01 0.  0.
     999903    2    3    3    0    0 -0.62652186504E-01  0.11506874137E+00  0.11583018535E-01  0.13917971836E+00  0.45505120285E-01 0.  0.
         14    1    1    2    0    0  0.46590950090E-02  0.10010249769E-01  0.82691117788E-02  0.13794581413E-01  0.00000000000E+00 0. -1.
     999901    1    3    3    0    0  0.57993091495E-01 -0.12507899113E+00 -0.19852130314E-01  0.89095570022E+00  0.88000000000E+00 0. -1.
        -11    1    4    4    0    0 -0.37452365253E-01  0.29247815151E-01  0.14503875086E-01  0.49686395197E-01  0.51100000000E-03 0. -1.
         11    1    4    4    0    0 -0.25199821251E-01  0.85820926214E-01 -0.29208565505E-02  0.89493323166E-01  0.51100000000E-03 0.  1.
</event>
<event>
 8    1  0.2025822E+004  0.1043930E+01  0.7957747E-01            NaN
         13   -1    0    0    0    0  0.00000000000E+00  0.00000000000E+00  0.74505805969E-08  0.10566000000E+00  0.10566000000E+00 0. -1.
     999900   -1    0    0    0    0 -0.00000000000E+00 -0.00000000000E+00 -0.74505805969E-08  0.93827000000E+00  0.93827000000E+00 0.  1.
     999902    2    1    2    0    0 -0.79777328424E-02  0.20968150740E-01  0.36623655777E-02  0.10211985133E+01  0.10209454849E+01 0.  0.
     999903    2    3    3    0    0  0.31874825958E-01 -0.10529924821E+00 -0.52082454210E-01  0.12954882455E+00  0.44343880117E-01 0.  0.
         14    1    1    2    0    0  0.79777328424E-02 -0.20968150740E-01 -0.36623655777E-02  0.22731486718E-01  0.00000000000E+00 0.  1.
     999901    1    3    3    0    0 -0.39852558800E-01  0.12626739895E+00  0.55744819788E-01  0.89164968873E+00  0.88000000000E+00 0.  1.
        -11    1    4    4    0    0  0.15442280509E-01 -0.90648628476E-01 -0.55285770378E-01  0.10729592443E+00  0.51100000000E-03 0. -1.
         11    1    4    4    0    0  0.16432545449E-01 -0.14650619729E-01  0.32033161679E-02  0.22252900122E-01  0.51100000000E-03 0.  1.
</event>
<event>
 8    1  0.2025822E+004  0.1043930E+01  0.7957747E-01            NaN
         13   -1    0    0    0    0  0.00000000000E+00  0.00000000000E+00  0.74505805969E-08  0.10566000000E+00  0.10566000000E+00 0. -1.
     999900   -1    0    0    0    0 -0.00000000000E+00 -0.00000000000E+00 -0.74505805969E-08  0.93827000000E+00  0.93827000000E+00 0. -1.
     999902    2    1    2    0    0 -0.75819946772E-03 -0.40118781813E-02  0.13978599424E-01  0.10293673328E+01  0.10292643172E+01 0.  0.
     999903    2    3    3    0    0 -0.45041070183E-01  0.85328197542E-01 -0.87277576868E-01  0.13796650549E+00  0.45910586067E-01 0.  0.
         14    1    1    2    0    0  0.75819946772E-03  0.40118781813E-02 -0.13978599424E-01  0.14562667161E-01  0.00000000000E+00 0.  1.
     999901    1    3    3    0    0  0.44282870716E-01 -0.89340075723E-01  0.10125617629E+00  0.89140082735E+00  0.88000000000E+00 0.  1.
        -11    1    4    4    0    0 -0.17672263534E-01  0.52109987469E-01 -0.75343927413E-01  0.93299132962E-01  0.51100000000E-03 0. -1.
         11    1    4    4    0    0 -0.27368806649E-01  0.33218210072E-01 -0.11933649455E-01  0.44667372523E-01  0.51100000000E-03 0.  1.
</event>
<event>
 8    1  0.2025822E+004  0.1043930E+01  0.7957747E-01            NaN
         13   -1    0    0    0    0  0.00000000000E+00  0.00000000000E+00  0.74505805969E-08  0.10566000000E+00  0.10566000000E+00 0. -1.
     999900   -1    0    0    0    0 -0.00000000000E+00 -0.00000000000E+00 -0.74505805969E-08  0.93827000000E+00  0.93827000000E+00 0.  1.
     999902    2    1    2    0    0 -0.69843123677E-02  0.47433885516E-02  0.85257695620E-02  0.10319312875E+01  0.10318615281E+01 0.  0.
     999903    2    3    3    0    0 -0.12948178486E+00 -0.38382553551E-01  0.71410525091E-03  0.14236594438E+00  0.45042192948E-01 0.  0.
         14    1    1    2    0    0  0.69843123677E-02 -0.47433885516E-02 -0.85257695620E-02  0.11998712465E-01  0.00000000000E+00 0.  1.
     999901    1    3    3    0    0  0.12249747249E+00  0.43125942103E-01  0.78116643111E-02  0.88956534316E+00  0.88000000000E+00 0. -1.
        -11    1    4    4    0    0 -0.69626154840E-01 -0.86225198879E-02 -0.18972061941E-01  0.72679773956E-01  0.51100000000E-03 0. -1.
         11    1    4    4    0    0 -0.59855630016E-01 -0.29760033663E-01  0.19686167192E-01  0.69686170421E-01  0.51100000000E-03 0.  1.
</event>
<event>
 8    1  0.2025822E+004  0.1043930E+01  0.7957747E-01            NaN
         13   -1    0    0    0    0  0.00000000000E+00  0.00000000000E+00  0.74505805969E-08  0.10566000000E+00  0.10566000000E+00 0.  1.
     999900   -1    0    0    0    0 -0.00000000000E+00 -0.00000000000E+00 -0.74505805969E-08  0.93827000000E+00  0.93827000000E+00 0.  1.
     999902    2    1    2    0    0 -0.63363229889E-02  0.10001841499E-01 -0.77888906253E-02  0.10297577511E+01  0.10296602222E+01 0.  0.
     999903    2    3    3    0    0 -0.12161889988E+00 -0.52076184909E-01 -0.12207176987E-02  0.14004605913E+00  0.45916475053E-01 0.  0.
         14    1    1    2    0    0  0.63363229889E-02 -0.10001841499E-01  0.77888906253E-02  0.14172248924E-01  0.00000000000E+00 0.  1.
     999901    1    3    3    0    0  0.11528257689E+00  0.62078026408E-01 -0.65681729266E-02  0.88971169195E+00  0.88000000000E+00 0.  1.
        -11    1    4    4    0    0 -0.57544672733E-01 -0.49505476590E-01 -0.10503416685E-02  0.75918020990E-01  0.51100000000E-03 0.  1.
         11    1    4    4    0    0 -0.64074227150E-01 -0.25707083194E-02 -0.17037603023E-03  0.64128038136E-01  0.51100000000E-03 0. -1.
</event>
<event>
 8    1  0.2025822E+004  0.1043930E+01  0.7957747E-01            NaN
         13   -1    0    0    0    0  0.00000000000E+00  0.00000000000E+00  0.74505805969E-08  0.10566000000E+00  0.10566000000E+00 0. -1.
     999900   -1    0    0    0    0 -0.00000000000E+00 -0.00000000000E+00 -0.74505805969E-08  0.93827000000E+00  0.93827000000E+00 0.  1.
     999902    2    1    2    0    0  0.91039915500E-02  0.16239557656E-01 -0.90283713180E-02  0.10232390024E+01  0.10230297838E+01 0.  0.
     999903    2    3    3    0    0 -0.77105779397E-01  0.24512501606E-01 -0.97407665102E-01  0.13458188862E+00  0.45583632742E-01 0.  0.
         14    1    1    2    0    0 -0.91039915500E-02 -0.16239557656E-01  0.90283713180E-02  0.20690997648E-01  0.00000000000E+00 0.  1.
     999901    1    3    3    0    0  0.86209770947E-01 -0.82729439502E-02  0.88379293784E-01  0.88865711373E+00  0.88000000000E+00 0.  1.
        -11    1    4    4    0    0 -0.62303837872E-01  0.21767105124E-01 -0.44569087356E-01  0.79638180214E-01  0.51100000000E-03 0. -1.
         11    1    4    4    0    0 -0.14801941525E-01  0.27453964824E-02 -0.52838577746E-01  0.54943708411E-01  0.51100000000E-03 0.  1.
</event>
<event>
 8    1  0.2025822E+004  0.1043930E+01  0.7957747E-01            NaN
         13   -1    0    0    0    0  0.00000000000E+00  0.00000000000E+00  0.74505805969E-08  0.10566000000E+00  0.10566000000E+00 0.  1.
     999900   -1    0    0    0    0 -0.00000000000E+00 -0.00000000000E+00 -0.74505805969E-08  0.93827000000E+00  0.93827000000E+00 0.  1.
     999902    2    1    2    0    0 -0.72801345742E-02 -0.54192748578E-02  0.10736284331E-01  0.10298716679E+01  0.10297757114E+01 0.  0.
     999903    2    3    3    0    0 -0.48500878070E-02 -0.11801241550E+00  0.66122193913E-01  0.14096744394E+00  0.39360159547E-01 0.  0.
         14    1    1    2    0    0  0.72801345742E-02  0.54192748578E-02 -0.10736284331E-01  0.14058332071E-01  0.00000000000E+00 0. -1.
     999901    1    3    3    0    0 -0.24300467672E-02  0.11259314064E+00 -0.55385909582E-01  0.88890422399E+00  0.88000000000E+00 0.  1.
        -11    1    4    4    0    0 -0.60814656928E-02 -0.87034716397E-03  0.82613307069E-02  0.10307882188E-01  0.51100000000E-03 0.  1.
         11    1    4    4    0    0  0.12313778858E-02 -0.11714206833E+00  0.57860863206E-01  0.13065956175E+00  0.51100000000E-03 0. -1.
</event>
<event>
 8    1  0.2025822E+004  0.1043930E+01  0.7957747E-01            NaN
         13   -1    0    0    0    0  0.00000000000E+00  0.00000000000E+00  0.74505805969E-08  0.10566000000E+00  0.10566000000E+00 0. -1.
     999900   -1    0    0    0    0 -0.00000000000E+00 -0.00000000000E+00 -0.74505805969E-08  0.93827000000E+00  0.93827000000E+00 0. -1.
     999902    2    1    2    0    0 -0.13040444706E-01  0.27281060627E-02  0.52209399778E-02  0.10296207731E+01  0.10295213365E+01 0.  0.
     999903    2    3    3    0    0  0.70456672510E-01 -0.95891500846E-02  0.11014855358E+00  0.13937738643E+00  0.47299656358E-01 0.  0.
         14    1    1    2    0    0  0.13040444706E-01 -0.27281060627E-02 -0.52209399778E-02  0.14309226921E-01  0.00000000000E+00 0. -1.
     999901    1    3    3    0    0 -0.83497117216E-01  0.12317256147E-01 -0.10492761360E+00  0.89024338665E+00  0.88000000000E+00 0. -1.
        -11    1    4    4    0    0  0.26808621827E-01 -0.11885636730E-01  0.11546359742E-01  0.31520629896E-01  0.51100000000E-03 0. -1.
         11    1    4    4    0    0  0.43648050683E-01  0.22964866450E-02  0.98602193835E-01  0.10785675653E+00  0.51100000000E-03 0.  1.
</event>
<event>
 8    1  0.2025822E+004  0.1043930E+01  0.7957747E-01            NaN
         13   -1    0    0    0    0  0.00000000000E+00  0.00000000000E+00  0.74505805969E-08  0.10566000000E+00  0.10566000000E+00 0.  1.
     999900   -1    0    0    0    0 -0.00000000000E+00 -0.00000000000E+00 -0.74505805969E-08  0.93827000000E+00  0.93827000000E+00 0.  1.
     999902    2    1    2    0    0  0.65869041029E-02  0.12723972867E-01  0.17253883149E-01  0.10215027114E+01  0.10212564840E+01 0.  0.
     999903    2    3    3    0    0  0.10926935711E+00 -0.14131837696E-01  0.61114661213E-01  0.13404077497E+00  0.45743046466E-01 0.  0.
         14    1    1    2    0    0 -0.65869041029E-02 -0.12723972867E-01 -0.17253883149E-01  0.22427288622E-01  0.00000000000E+00 0. -1.
     999901    1    3    3    0    0 -0.10268245301E+00  0.26855810563E-01 -0.43860778064E-01  0.88746193641E+00  0.88000000000E+00 0. -1.
        -11    1    4    4    0    0  0.50077874865E-01 -0.24253928151E-02  0.29417926624E-02  0.50225405387E-01  0.51100000000E-03 0. -1.
         11    1    4    4    0    0  0.59191482246E-01 -0.11706444881E-01  0.58172868551E-01  0.83815369585E-01  0.51100000000E-03 0.  1.
</event>
<event>
 8    1  0.2025822E+004  0.1043930E+01  0.7957747E-01            NaN
         13   -1    0    0    0    0  0.00000000000E+00  0.00000000000E+00  0.74505805969E-08  0.10566000000E+00  0.10566000000E+00 0. -1.
     999900   -1    0    0    0    0 -0.00000000000E+00 -0.00000000000E+00 -0.74505805969E-08  0.93827000000E+00  0.93827000000E+00 0. -1.
     999902    2    1    2    0    0 -0.40495835478E-02 -0.76181157012E-04 -0.13829519165E-01  0.10295195687E+01  0.10294187106E+01 0.  0.
     999903    2    3    3    0    0  0.20501320465E-01  0.52250962634E-01  0.11832618031E+00  0.13777632886E+00  0.42787435192E-01 0.  0.
         14    1    1    2    0    0  0.40495835478E-02  0.76181157012E-04  0.13829519165E-01  0.14410431319E-01  0.00000000000E+00 0. -1.
     999901    1    3    3    0    0 -0.24550904013E-01 -0.52327143791E-01 -0.13215569947E+00  0.89174323982E+00  0.88000000000E+00 0. -1.
        -11    1    4    4    0    0 -0.10694815762E-01  0.15647437958E-01  0.16386306141E-01  0.25059799456E-01  0.51100000000E-03 0.  1.
         11    1    4    4    0    0  0.31196136227E-01  0.36603524676E-01  0.10193987417E+00  0.11271652940E+00  0.51100000000E-03 0. -1.
</event>
<event>
 8    1  0.2025822E+004  0.1043930E+01  0.7957747E-01            NaN
         13   -1    0    0    0    0  0.00000000000E+00  0.00000000000E+00  0.74505805969E-08  0.10566000000E+00  0.10566000000E+00 0.  1.
     999900   -1    0    0    0    0 -0.00000000000E+00 -0.00000000000E+00 -0.74505805969E-08  0.93827000000E+00  0.93827000000E+00 0.  1.
     999902    2    1    2    0    0 -0.84601721154E-02 -0.94103441479E-02  0.49968091562E-02  0.10303249572E+01  0.10302351286E+01 0.  0.
     999903    2    3    3    0    0  0.12182866862E+00  0.44393046686E-01  0.15800628697E-01  0.13904121479E+00  0.47642758629E-01 0.  0.
         14    1    1    2    0    0  0.84601721154E-02  0.94103441479E-02 -0.49968091562E-02  0.13605042850E-01  0.00000000000E+00 0.  1.
     999901    1    3    3    0    0 -0.13028884074E+00 -0.53803390834E-01 -0.10803819541E-01  0.89128374236E+00  0.88000000000E+00 0.  1.
        -11    1    4    4    0    0  0.19263427757E-01  0.73909610677E-02 -0.15258629357E-01  0.25666960188E-01  0.51100000000E-03 0.  1.
         11    1    4    4    0    0  0.10256524087E+00  0.37002085618E-01  0.31059258054E-01  0.11337425460E+00  0.51100000000E-03 0. -1.
</event>
<event>
 8    1  0.2025822E+004  0.1043930E+01  0.7957747E-01            NaN
         13   -1    0    0    0    0  0.00000000000E+00  0.00000000000E+00  0.74505805969E-08  0.10566000000E+00  0.10566000000E+00 0.  1.
     999900   -1    0    0    0    0 -0.00000000000E+00 -0.00000000000E+00 -0.74505805969E-08  0.93827000000E+00  0.93827000000E+00 0. -1.
     999902    2    1    2    0    0 -0.11800605956E-01 -0.88846569053E-02 -0.46390958185E-02  0.10284473439E+01  0.10283307963E+01 0.  0.
     999903    2    3    3    0    0 -0.12028046489E+00 -0.37830634194E-01  0.42152158213E-01  0.14008076933E+00  0.44127886604E-01 0.  0.
         14    1    1    2    0    0  0.11800605956E-01  0.88846569053E-02  0.46390958185E-02  0.15482656079E-01  0.00000000000E+00 0.  1.
     999901    1    3    3    0    0  0.10847985894E+00  0.28945977289E-01 -0.46791254031E-01  0.88836657459E+00  0.88000000000E+00 0.  1.
        -11    1    4    4    0    0 -0.11146094181E+00 -0.30869115493E-01  0.23078524420E-01  0.11793779399E+00  0.51100000000E-03 0. -1.
         11    1    4    4    0    0 -0.88195230842E-02 -0.69615187014E-02  0.19073633792E-01  0.22142975344E-01  0.51100000000E-03 0.  1.
</event>
<event>
 8    1  0.2025822E+004  0.1043930E+01  0.7957747E-01            NaN
         13   -1    0    0    0    0  0.00000000000E+00  0.00000000000E+00  0.74505805969E-08  0.10566000000E+00  0.10566000000E+00 0.  1.
     999900   -1    0    0    0    0 -0.00000000000E+00 -0.00000000000E+00 -0.74505805969E-08  0.93827000000E+00  0.93827000000E+00 0.  1.
     999902    2    1    2    0    0 -0.85331006916E-02  0.10553780695E-01 -0.40136596482E-02  0.10297770654E+01  0.10296798040E+01 0.  0.
     999903    2    3    3    0    0 -0.12334138275E+00  0.29327342546E-03 -0.50494660930E-01  0.14104386407E+00  0.46157102399E-01 0.  0.
         14    1    1    2    0    0  0.85331006916E-02 -0.10553780695E-01  0.40136596482E-02  0.14152934612E-01  0.00000000000E+00 0.  1.
     999901    1    3    3    0    0  0.11480828206E+00  0.10260507269E-01  0.46481001282E-01  0.88873320131E+00  0.88000000000E+00 0. -1.
        -11    1    4    4    0    0 -0.11195849594E+00  0.13837844299E-01 -0.36791610788E-01  0.11865948969E+00  0.51100000000E-03 0.  1.
         11    1    4    4    0    0 -0.11382886809E-01 -0.13544570873E-01 -0.13703050142E-01  0.22384374381E-01  0.51100000000E-03 0. -1.
</event>
<event>
 8    1  0.2025822E+004  0.1043930E+01  0.7957747E-01            NaN
         13   -1    0    0    0    0  0.00000000000E+00  0.00000000000E+00  0.74505805969E-08  0.10566000000E+00  0.10566000000E+00 0.  1.
     999900   -1    0    0    0    0 -0.00000000000E+00 -0.00000000000E+00 -0.74505805969E-08  0.93827000000E+00  0.93827000000E+00 0.  1.
     999902    2    1    2    0    0  0.32688790311E-02 -0.74224775898E-03  0.14198706056E-01  0.10293409714E+01  0.10292375798E+01 0.  0.
     999903    2    3    3    0    0  0.93185477525E-01 -0.71480081639E-01  0.62396690718E-01  0.14062736086E+00  0.45714027586E-01 0.  0.
         14    1    1    2    0    0 -0.32688790311E-02  0.74224775898E-03 -0.14198706056E-01  0.14589028601E-01  0.00000000000E+00 0. -1.
     999901    1    3    3    0    0 -0.89916598493E-01  0.70737833880E-01 -0.48197984662E-01  0.88871361054E+00  0.88000000000E+00 0. -1.
        -11    1    4    4    0    0  0.23557986220E-01 -0.19034594417E-01 -0.46611051379E-02  0.30647700101E-01  0.51100000000E-03 0.  1.
         11    1    4    4    0    0  0.69627491304E-01 -0.52445487222E-01  0.67057795856E-01  0.10997966076E+00  0.51100000000E-03 0. -1.
</event>
<event>
 8    1  0.2025822E+004  0.1043930E+01  0.7957747E-01            NaN
         13   -1    0    0    0    0  0.00000000000E+00  0.00000000000E+00  0.74505805969E-08  0.10566000000E+00  0.10566000000E+00 0. -1.
     999900   -1    0    0    0    0 -0.00000000000E+00 -0.00000000000E+00 -0.74505805969E-08  0.93827000000E+00  0.93827000000E+00 0.  1.
     999902    2    1    2    0    0  0.50520091369E-02 -0.16932971456E-02  0.10958052336E-01  0.10317452159E+01  0.10316732630E+01 0.  0.
     999903    2    3    3    0    0 -0.60793598450E-01  0.10005024735E+00 -0.62873907778E-01  0.14037629612E+00  0.45237845058E-01 0.  0.
         14    1    1    2    0    0 -0.50520091369E-02  0.16932971456E-02 -0.10958052336E-01  0.12184784058E-01  0.00000000000E+00 0.  1.
     999901    1    3    3    0    0  0.65845607587E-01 -0.10174354450E+00  0.73831960114E-01  0.89136891982E+00  0.88000000000E+00 0.  1.
        -11    1    4    4    0    0 -0.38138291558E-01  0.49311144144E-01 -0.90151465365E-02  0.62989302328E-01  0.51100000000E-03 0.  1.
         11    1    4    4    0    0 -0.22655306893E-01  0.50739103211E-01 -0.53858761242E-01  0.77386993794E-01  0.51100000000E-03 0. -1.
</event>
<event>
 8    1  0.2025822E+004  0.1043930E+01  0.7957747E-01            NaN
         13   -1    0    0    0    0  0.00000000000E+00  0.00000000000E+00  0.74505805969E-08  0.10566000000E+00  0.10566000000E+00 0. -1.
     999900   -1    0    0    0    0 -0.00000000000E+00 -0.00000000000E+00 -0.74505805969E-08  0.93827000000E+00  0.93827000000E+00 0.  1.
     999902    2    1    2    0    0 -0.65398493608E-03 -0.15584313213E-01  0.35330610434E-02  0.10279368441E+01  0.10278124218E+01 0.  0.
     999903    2    3    3    0    0  0.78947131917E-01 -0.91601368941E-01 -0.52718243239E-01  0.13929791869E+00  0.44735182467E-01 0.  0.
         14    1    1    2    0    0  0.65398493608E-03  0.15584313213E-01 -0.35330610434E-02  0.15993155879E-01  0.00000000000E+00 0.  1.
     999901    1    3    3    0    0 -0.79601116853E-01  0.76017055728E-01  0.56251304282E-01  0.88863892544E+00  0.88000000000E+00 0. -1.
        -11    1    4    4    0    0  0.17361997980E-01 -0.40178672834E-01 -0.37490370746E-01  0.57632922399E-01  0.51100000000E-03 0. -1.
         11    1    4    4    0    0  0.61585133937E-01 -0.51422696106E-01 -0.15227872493E-01  0.81664996287E-01  0.51100000000E-03 0.  1.
</event>
<event>
 8    1  0.2025822E+004  0.1043930E+01  0.7957747E-01            NaN
         13   -1    0    0    0    0  0.00000000000E+00  0.00000000000E+00  0.74505805969E-08  0.10566000000E+00  0.10566000000E+00 0.  1.
     999900   -1    0    0    0    0 -0.00000000000E+00 -0.00000000000E+00 -0.74505805969E-08  0.93827000000E+00  0.93827000000E+00 0.  1.
     999902    2    1    2    0    0 -0.97093777779E-02  0.81380678862E-02 -0.42029045071E-02  0.10305821698E+01  0.10304957273E+01 0.  0.
     999903    2    3    3    0    0  0.94936095226E-01  0.37796872677E-01 -0.85000601724E-01  0.14021225361E+00  0.44641998239E-01 0.  0.
         14    1    1    2    0    0  0.97093777779E-02 -0.81380678862E-02  0.42029045071E-02  0.13347830238E-01  0.00000000000E+00 0.  1.
     999901    1    3    3    0    0 -0.10464547300E+00 -0.29658804791E-01  0.80797697217E-01  0.89036991616E+00  0.88000000000E+00 0. -1.
        -11    1    4    4    0    0  0.49191870680E-01  0.42878936654E-01 -0.54173045593E-01  0.84814051545E-01  0.51100000000E-03 0.  1.
         11    1    4    4    0    0  0.45744224546E-01 -0.50820639766E-02 -0.30827556131E-01  0.55398202061E-01  0.51100000000E-03 0. -1.
</event>
<event>
 8    1  0.2025822E+004  0.1043930E+01  0.7957747E-01            NaN
         13   -1    0    0    0    0  0.00000000000E+00  0.00000000000E+00  0.74505805969E-08  0.10566000000E+00  0.10566000000E+00 0. -1.
     999900   -1    0    0    0    0 -0.00000000000E+00 -0.00000000000E+00 -0.74505805969E-08  0.93827000000E+00  0.93827000000E+00 0.  1.
     999902    2    1    2    0    0 -0.34518730515E-02 -0.12845612150E-01  0.18191547548E-02  0.10305048556E+01  0.10304174022E+01 0.  0.
     999903    2    3    3    0    0 -0.98671740669E-01 -0.83657663891E-01  0.36527538000E-01  0.14186215924E+00  0.45341967955E-01 0.  0.
         14    1    1    2    0    0  0.34518730515E-02  0.12845612150E-01 -0.18191547548E-02  0.13425144435E-01  0.00000000000E+00 0.  1.
     999901    1    3    3    0    0  0.95219867618E-01  0.70812051741E-01 -0.34708383245E-01  0.88864269632E+00  0.88000000000E+00 0.  1.
        -11    1    4    4    0    0 -0.18262396041E-01 -0.37352084691E-01 -0.14364779963E-02  0.41605503602E-01  0.51100000000E-03 0.  1.
         11    1    4    4    0    0 -0.80409344628E-01 -0.46305579199E-01  0.37964015996E-01  0.10025665564E+00  0.51100000000E-03 0. -1.
</event>
<event>
 8    1  0.2025822E+004  0.1043930E+01  0.7957747E-01            NaN
         13   -1    0    0    0    0  0.00000000000E+00  0.00000000000E+00  0.74505805969E-08  0.10566000000E+00  0.10566000000E+00 0. -1.
     999900   -1    0    0    0    0 -0.00000000000E+00 -0.00000000000E+00 -0.74505805969E-08  0.93827000000E+00  0.93827000000E+00 0. -1.
     999902    2    1    2    0    0 -0.85573776283E-02 -0.47850739544E-02 -0.10026742842E-01  0.10299064050E+01  0.10298109253E+01 0.  0.
     999903    2    3    3    0    0  0.12219936742E+00 -0.33956001819E-01 -0.35984965369E-01  0.13938852269E+00  0.45260877876E-01 0.  0.
         14    1    1    2    0    0  0.85573776283E-02  0.47850739544E-02  0.10026742842E-01  0.14023594997E-01  0.00000000000E+00 0. -1.
     999901    1    3    3    0    0 -0.13075674505E+00  0.29170927865E-01  0.25958222526E-01  0.89051788232E+00  0.88000000000E+00 0.  1.
        -11    1    4    4    0    0  0.14628652155E-01 -0.30455111717E-02 -0.21991201542E-01  0.26592229475E-01  0.51100000000E-03 0. -1.
         11    1    4    4    0    0  0.10757071527E+00 -0.30910490648E-01 -0.13993763827E-01  0.11279629321E+00  0.51100000000E-03 0.  1.
</event>
<event>
 8    1  0.2025822E+004  0.1043930E+01  0.7957747E-01            NaN
         13   -1    0    0    0    0  0.00000000000E+00  0.00000000000E+00  0.74505805969E-08  0.10566000000E+00  0.10566000000E+00 0.  1.
     999900   -1    0    0    0    0 -0.00000000000E+00 -0.00000000000E+00 -0.74505805969E-08  0.93827000000E+00  0.93827000000E+00 0. -1.
     999902    2    1    2    0    0  0.85220136835E-02 -0.35742869847E-03 -0.83046606184E-02  0.10320253849E+01  0.10319567216E+01 0.  0.
     999903    2    3    3    0    0 -0.34537992249E-01 -0.88091564301E-01 -0.95845078196E-01  0.14229802927E+00  0.45928787381E-01 0.  0.
         14    1    1    2    0    0 -0.85220136835E-02  0.35742869847E-03  0.83046606184E-02  0.11904615092E-01  0.00000000000E+00 0.  1.
     999901    1    3    3    0    0  0.43060005932E-01  0.87734135602E-01  0.87540417578E-01  0.88972735564E+00  0.88000000000E+00 0.  1.
        -11    1    4    4    0    0 -0.17884241031E-01 -0.38933625676E-01 -0.13435706241E-01  0.44904928558E-01  0.51100000000E-03 0.  1.
         11    1    4    4    0    0 -0.16653751218E-01 -0.49157938624E-01 -0.82409371955E-01  0.97393100713E-01  0.51100000000E-03 0. -1.
</event>
<event>
 8    1  0.2025822E+004  0.1043930E+01  0.7957747E-01            NaN
         13   -1    0    0    0    0  0.00000000000E+00  0.00000000000E+00  0.74505805969E-08  0.10566000000E+00  0.10566000000E+00 0.  1.
     999900   -1    0    0    0    0 -0.00000000000E+00 -0.00000000000E+00 -0.74505805969E-08  0.93827000000E+00  0.93827000000E+00 0. -1.
     999902    2    1    2    0    0 -0.26815807666E-02  0.11696011649E-01 -0.89301794934E-02  0.10289722037E+01  0.10288634799E+01 0.  0.
     999903    2    3    3    0    0  0.86228651620E-01  0.90276363136E-01  0.43158659937E-01  0.13948181689E+00  0.44802959878E-01 0.  0.
         14    1    1    2    0    0  0.26815807666E-02 -0.11696011649E-01  0.89301794934E-02  0.14957796285E-01  0.00000000000E+00 0.  1.
     999901    1    3    3    0    0 -0.88910232387E-01 -0.78580351487E-01 -0.52088839430E-01  0.88949038683E+00  0.88000000000E+00 0. -1.
        -11    1    4    4    0    0  0.64694513323E-01  0.39902365256E-01  0.36407309034E-01  0.84281267665E-01  0.51100000000E-03 0. -1.
         11    1    4    4    0    0  0.21534138297E-01  0.50373997880E-01  0.67513509030E-02  0.55200549224E-01  0.51100000000E-03 0.  1.
</event>
<event>
 7    1  0.2025822E+004  0.1043930E+01  0.7957747E-01            NaN
         13   -1    0    0    0    0  0.00000000000E+00  0.00000000000E+00  0.74505805969E-08  0.10566000000E+00  0.10566000000E+00 0.  1.
     999900   -1    0    0    0    0 -0.00000000000E+00 -0.00000000000E+00 -0.74505805969E-08  0.93827000000E+00  0.93827000000E+00 0. -1.
     999903    2    1    2    0    0 -0.84382895377E-01  0.54319268251E-01  0.16178864378E-01  0.11183319232E+00  0.46624578445E-01 0.  0.
         14    1    1    2    0    0 -0.14829553610E-01  0.89614950325E-02 -0.40373067659E-01  0.43934139865E-01  0.00000000000E+00 0. -1.
     999901    1    1    2    0    0  0.99212448987E-01 -0.63280763284E-01  0.24194203281E-01  0.88816266782E+00  0.88000000000E+00 0.  1.
        -11    1    3    3    0    0 -0.80959578346E-01  0.30416426805E-01  0.11805261117E-01  0.87288244665E-01  0.51100000000E-03 0. -1.
         11    1    3    3    0    0 -0.34233170314E-02  0.23902841446E-01  0.43736032615E-02  0.24544947651E-01  0.51100000000E-03 0.  1.
</event>
<event>
 8    1  0.2025822E+004  0.1043930E+01  0.7957747E-01            NaN
         13   -1    0    0    0    0  0.00000000000E+00  0.00000000000E+00  0.74505805969E-08  0.10566000000E+00  0.10566000000E+00 0. -1.
     999900   -1    0    0    0    0 -0.00000000000E+00 -0.00000000000E+00 -0.74505805969E-08  0.93827000000E+00  0.93827000000E+00 0.  1.
     999902    2    1    2    0    0 -0.36860334162E-02  0.68688046745E-02 -0.11069614058E-01  0.10303910312E+01  0.10303020788E+01 0.  0.
     999903    2    3    3    0    0  0.12468238490E+00  0.90946978741E-02  0.42541444913E-01  0.13946030942E+00  0.44844093638E-01 0.  0.
         14    1    1    2    0    0  0.36860334162E-02 -0.68688046745E-02  0.11069614058E-01  0.13538968772E-01  0.00000000000E+00 0. -1.
     999901    1    3    3    0    0 -0.12836841832E+00 -0.22258931996E-02 -0.53611058971E-01  0.89093072181E+00  0.88000000000E+00 0.  1.
        -11    1    4    4    0    0  0.68643829139E-01  0.27073143920E-01  0.20178450759E-01  0.76500728079E-01  0.51100000000E-03 0.  1.
         11    1    4    4    0    0  0.56038555760E-01 -0.17978446046E-01  0.22362994154E-01  0.62959581339E-01  0.51100000000E-03 0. -1.
</event>
<event>
 8    1  0.2025822E+004  0.1043930E+01  0.7957747E-01            NaN
         13   -1    0    0    0    0  0.00000000000E+00  0.00000000000E+00  0.74505805969E-08  0.10566000000E+00  0.10566000000E+00 0.  1.
     999900   -1    0    0    0    0 -0.00000000000E+00 -0.00000000000E+00 -0.74505805969E-08  0.93827000000E+00  0.93827000000E+00 0. -1.
     999902    2    1    2    0    0 -0.63080535740E-02 -0.73035066783E-02 -0.11723648144E-01  0.10287452486E+01  0.10286331755E+01 0.  0.
     999903    2    3    3    0    0  0.67836067779E-01 -0.10831319610E+00  0.12426369519E-01  0.13954137351E+00  0.54625083258E-01 0.  0.
         14    1    1    2    0    0  0.63080535740E-02  0.73035066783E-02  0.11723648144E-01  0.15184751414E-01  0.00000000000E+00 0.  1.
     999901    1    3    3    0    0 -0.74144121353E-01  0.10100968943E+00 -0.24150017663E-01  0.88920387507E+00  0.88000000000E+00 0. -1.
        -11    1    4    4    0    0  0.40965004028E-01 -0.18743340947E-01  0.91308202235E-02  0.45968221456E-01  0.51100000000E-03 0. -1.
         11    1    4    4    0    0  0.26871063750E-01 -0.89569855157E-01  0.32955492950E-02  0.93573152058E-01  0.51100000000E-03 0.  1.
</event>
<event>
 8    1  0.2025822E+004  0.1043930E+01  0.7957747E-01            NaN
         13   -1    0    0    0    0  0.00000000000E+00  0.00000000000E+00  0.74505805969E-08  0.10566000000E+00  0.10566000000E+00 0. -1.
     999900   -1    0    0    0    0 -0.00000000000E+00 -0.00000000000E+00 -0.74505805969E-08  0.93827000000E+00  0.93827000000E+00 0.  1.
     999902    2    1    2    0    0 -0.75046009140E-02 -0.98676945921E-02 -0.64967048954E-02  0.10299336574E+01  0.10298385510E+01 0.  0.
     999903    2    3    3    0    0  0.83386388624E-03 -0.11602690308E+00 -0.67504138725E-01  0.14141735788E+00  0.44487333010E-01 0.  0.
         14    1    1    2    0    0  0.75046009140E-02  0.98676945921E-02  0.64967048954E-02  0.13996342592E-01  0.00000000000E+00 0. -1.
     999901    1    3    3    0    0 -0.83384648003E-02  0.10615920849E+00  0.61007433829E-01  0.88851629953E+00  0.88000000000E+00 0. -1.
        -11    1    4    4    0    0  0.88608974802E-02 -0.11529916291E+00 -0.59511884616E-01  0.13005513447E+00  0.51100000000E-03 0. -1.
         11    1    4    4    0    0 -0.80270335940E-02 -0.72774017260E-03 -0.79922541084E-02  0.11362223410E-01  0.51100000000E-03 0.  1.
</event>
<event>
 8    1  0.2025822E+004  0.1043930E+01  0.7957747E-01            NaN
         13   -1    0    0    0    0  0.00000000000E+00  0.00000000000E+00  0.74505805969E-08  0.10566000000E+00  0.10566000000E+00 0.  1.
     999900   -1    0    0    0    0 -0.00000000000E+00 -0.00000000000E+00 -0.74505805969E-08  0.93827000000E+00  0.93827000000E+00 0.  1.
     999902    2    1    2    0    0  0.14342455447E-02 -0.11607071628E-01 -0.78131261531E-02  0.10298649329E+01  0.10297688837E+01 0.  0.
     999903    2    3    3    0    0 -0.40922635978E-01 -0.95885211120E-01  0.82189498874E-01  0.14025974929E+00  0.45266408056E-01 0.  0.
         14    1    1    2    0    0 -0.14342455447E-02  0.11607071628E-01  0.78131261531E-02  0.14065067093E-01  0.00000000000E+00 0. -1.
     999901    1    3    3    0    0  0.42356881522E-01  0.84278139492E-01 -0.90002625027E-01  0.88960518362E+00  0.88000000000E+00 0.  1.
        -11    1    4    4    0    0 -0.40094470150E-01 -0.40114235382E-01  0.51416314735E-01  0.76554666473E-01  0.51100000000E-03 0.  1.
         11    1    4    4    0    0 -0.82816582725E-03 -0.55770975738E-01  0.30773184139E-01  0.63705082815E-01  0.51100000000E-03 0. -1.
</event>
<event>
 8    1  0.2025822E+004  0.1043930E+01  0.7957747E-01            NaN
         13   -1    0    0    0    0  0.00000000000E+00  0.00000000000E+00  0.74505805969E-08  0.10566000000E+00  0.10566000000E+00 0.  1.
     999900   -1    0    0    0    0 -0.00000000000E+00 -0.00000000000E+00 -0.74505805969E-08  0.93827000000E+00  0.93827000000E+00 0.  1.
     999902    2    1    2    0    0  0.12595971311E-01  0.21079206107E-02  0.51184050212E-02  0.10301713703E+01  0.10300794883E+01 0.  0.
     999903    2    3    3    0    0  0.32741026733E-01 -0.11642050950E+00  0.56275480661E-01  0.14052432879E+00  0.44209132458E-01 0.  0.
         14    1    1    2    0    0 -0.12595971311E-01 -0.21079206107E-02 -0.51184050212E-02  0.13758629747E-01  0.00000000000E+00 0. -1.
     999901    1    3    3    0    0 -0.20145055423E-01  0.11852843011E+00 -0.51157075640E-01  0.88964704147E+00  0.88000000000E+00 0. -1.
        -11    1    4    4    0    0  0.87488666200E-02 -0.42137897864E-01  0.43914588972E-01  0.61489001855E-01  0.51100000000E-03 0. -1.
         11    1    4    4    0    0  0.23992160113E-01 -0.74282611638E-01  0.12360891689E-01  0.79035326931E-01  0.51100000000E-03 0.  1.
</event>
<event>
 8    1  0.2025822E+004  0.1043930E+01  0.7957747E-01            NaN
         13   -1    0    0    0    0  0.00000000000E+00  0.00000000000E+00  0.74505805969E-08  0.10566000000E+00  0.10566000000E+00 0.  1.
     999900   -1    0    0    0    0 -0.00000000000E+00 -0.00000000000E+00 -0.74505805969E-08  0.93827000000E+00  0.93827000000E+00 0. -1.
     999902    2    1    2    0    0 -0.80738501560E-03 -0.67127919606E-02  0.11226916822E-01  0.10308243864E+01  0.10307410725E+01 0.  0.
     999903    2    3    3    0    0 -0.77956444417E-01  0.26117675651E-01 -0.10326522951E+00  0.13945562515E+00  0.44998039424E-01 0.  0.
         14    1    1    2    0    0  0.80738501560E-03  0.67127919606E-02 -0.11226916822E-01  0.13105613598E-01  0.00000000000E+00 0. -1.
     999901    1    3    3    0    0  0.77149059401E-01 -0.32830467612E-01  0.11449214633E+00  0.89136876126E+00  0.88000000000E+00 0.  1.
        -11    1    4    4    0    0 -0.50136827250E-01  0.52989026800E-02 -0.30782030855E-01  0.59072619384E-01  0.51100000000E-03 0. -1.
         11    1    4    4    0    0 -0.27819617167E-01  0.20818772971E-01 -0.72483198654E-01  0.80383005762E-01  0.51100000000E-03 0.  1.
</event>
<event>
 8    1  0.2025822E+004  0.1043930E+01  0.7957747E-01            NaN
         13   -1    0    0    0    0  0.00000000000E+00  0.00000000000E+00  0.74505805969E-08  0.10566000000E+00  0.10566000000E+00 0.  1.
     999900   -1    0    0    0    0 -0.00000000000E+00 -0.00000000000E+00 -0.74505805969E-08  0.93827000000E+00  0.93827000000E+00 0. -1.
     999902    2    1    2    0    0 -0.13483068433E-01  0.99128877578E-03 -0.22278346254E-02  0.10302282105E+01  0.10301370912E+01 0.  0.
     999903    2    3    3    0    0  0.10472534721E+00 -0.21552361071E-01  0.75857837697E-01  0.13861236393E+00  0.45023030526E-01 0.  0.
         14    1    1    2    0    0  0.13483068433E-01 -0.99128877578E-03  0.22278346254E-02  0.13701789478E-01  0.00000000000E+00 0. -1.
     999901    1    3    3    0    0 -0.11820841564E+00  0.22543649847E-01 -0.78085672323E-01  0.89161584659E+00  0.88000000000E+00 0.  1.
        -11    1    4    4    0    0  0.36674876585E-01 -0.28528692241E-01  0.40328830018E-01  0.61527298860E-01  0.51100000000E-03 0.  1.
         11    1    4    4    0    0  0.68050470623E-01  0.69763311693E-02  0.35529007680E-01  0.77085065067E-01  0.51100000000E-03 0. -1.
</event>
<event>
 8    1  0.2025822E+004  0.1043930E+01  0.7957747E-01            NaN
         13   -1    0    0    0    0  0.00000000000E+00  0.00000000000E+00  0.74505805969E-08  0.10566000000E+00  0.10566000000E+00 0. -1.
     999900   -1    0    0    0    0 -0.00000000000E+00 -0.00000000000E+00 -0.74505805969E-08  0.93827000000E+00  0.93827000000E+00 0.  1.
     999902    2    1    2    0    0  0.39016045913E-03 -0.82358940764E-03  0.13829591899E-01  0.10300704135E+01  0.10299771690E+01 0.  0.
     999903    2    3    3    0    0 -0.59982427505E-01 -0.92062557972E-02 -0.11598544836E+00  0.13846115879E+00  0.45124511156E-01 0.  0.
         14    1    1    2    0    0 -0.39016045913E-03  0.82358940764E-03 -0.13829591899E-01  0.13859586459E-01  0.00000000000E+00 0.  1.
     999901    1    3    3    0    0  0.60372587964E-01  0.83826663896E-02  0.12981504026E+00  0.89160925475E+00  0.88000000000E+00 0. -1.
        -11    1    4    4    0    0  0.79056325415E-04  0.11823693218E-01 -0.15176286986E-01  0.19245435274E-01  0.51100000000E-03 0.  1.
         11    1    4    4    0    0 -0.60061483830E-01 -0.21029949015E-01 -0.10080916138E+00  0.11921572352E+00  0.51100000000E-03 0. -1.
</event>
<event>
 8    1  0.2025822E+004  0.1043930E+01  0.7957747E-01            NaN
         13   -1    0    0    0    0  0.00000000000E+00  0.00000000000E+00  0.74505805969E-08  0.10566000000E+00  0.10566000000E+00 0. -1.
     999900   -1    0    0    0    0 -0.00000000000E+00 -0.00000000000E+00 -0.74505805969E-08  0.93827000000E+00  0.93827000000E+00 0.  1.
     999902    2    1    2    0    0  0.75215998147E-02  0.11170632263E-01 -0.59524603479E-02  0.10292062344E+01  0.10291009103E+01 0.  0.
     999903    2    3    3    0    0 -0.26252684010E-01  0.13023900931E+00 -0.90094502525E-02  0.14054019711E+00  0.44932992838E-01 0.  0.
         14    1    1    2    0    0 -0.75215998147E-02 -0.11170632263E-01  0.59524603479E-02  0.14723765589E-01  0.00000000000E+00 0. -1.
     999901    1    3    3    0    0  0.33774283825E-01 -0.11906837705E+00  0.30569899046E-02  0.88866603730E+00  0.88000000000E+00 0.  1.
        -11    1    4    4    0    0  0.28602235381E-02  0.76234363651E-01 -0.18385406932E-01  0.78473838883E-01  0.51100000000E-03 0.  1.
         11    1    4    4    0    0 -0.29112907548E-01  0.54004645664E-01  0.93759566792E-02  0.62066358229E-01  0.51100000000E-03 0. -1.
</event>
<event>
 7    1  0.2025822E+004  0.1043930E+01  0.7957747E-01            NaN
         13   -1    0    0    0    0  0.00000000000E+00  0.00000000000E+00  0.74505805969E-08  0.10566000000E+00  0.10566000000E+00 0. -1.
     999900   -1    0    0    0    0 -0.00000000000E+00 -0.00000000000E+00 -0.74505805969E-08  0.93827000000E+00  0.93827000000E+00 0.  1.
     999902    2    1    2    0    0  0.21075754285E-02 -0.68299212561E-03  0.47590828419E-02  0.10386805027E+01  0.10386672371E+01 0.  0.
         14    1    1    2    0    0 -0.21075754285E-02  0.68299212561E-03 -0.47590828419E-02  0.52494973023E-02  0.00000000000E+00 0.  1.
     999901    1    3    3    0    0  0.10151843602E+00  0.10240009018E+00 -0.14965425066E-01  0.89186082730E+00  0.88000000000E+00 0. -1.
        -11    1    3    3    0    0 -0.36157767382E-01 -0.31145457976E-01 -0.47181516662E-02  0.47957749851E-01  0.51100000000E-03 0.  1.
         11    1    3    3    0    0 -0.63253093207E-01 -0.71937624334E-01  0.24442659575E-01  0.98861925549E-01  0.51100000000E-03 0. -1.
</event>
<event>
 8    1  0.2025822E+004  0.1043930E+01  0.7957747E-01            NaN
         13   -1    0    0    0    0  0.00000000000E+00  0.00000000000E+00  0.74505805969E-08  0.10566000000E+00  0.10566000000E+00 0.  1.
     999900   -1    0    0    0    0 -0.00000000000E+00 -0.00000000000E+00 -0.74505805969E-08  0.93827000000E+00  0.93827000000E+00 0. -1.
     999902    2    1    2    0    0 -0.63958006570E-02 -0.40168429674E-02 -0.11069942794E-01  0.10305290699E+01  0.10304419338E+01 0.  0.
     999903    2    3    3    0    0 -0.12260411963E+00 -0.30159040067E-01 -0.46544332869E-01  0.14179614029E+00  0.44703832384E-01 0.  0.
         14    1    1    2    0    0  0.63958006570E-02  0.40168429674E-02  0.11069942794E-01  0.13400930077E-01  0.00000000000E+00 0.  1.
     999901    1    3    3    0    0  0.11620831897E+00  0.26142197100E-01  0.35474390074E-01  0.88873292964E+00  0.88000000000E+00 0.  1.
        -11    1    4    4    0    0 -0.20927566851E-01 -0.24199981360E-01 -0.13350979919E-01  0.34671485949E-01  0.51100000000E-03 0. -1.
         11    1    4    4    0    0 -0.10167655278E+00 -0.59590587068E-02 -0.33193352949E-01  0.10712465434E+00  0.51100000000E-03 0.  1.
</event>
<event>
 8    1  0.2025822E+004  0.1043930E+01  0.7957747E-01            NaN
         13   -1    0    0    0    0  0.00000000000E+00  0.00000000000E+00  0.74505805969E-08  0.10566000000E+00  0.10566000000E+00 0.  1.
     999900   -1    0    0    0    0 -0.00000000000E+00 -0.00000000000E+00 -0.74505805969E-08  0.93827000000E+00  0.93827000000E+00 0. -1.
     999902    2    1    2    0    0  0.10682845578E-01  0.27438101946E-02  0.75259046089E-02  0.10305774375E+01  0.10304909334E+01 0.  0.
     999903    2    3    3    0    0 -0.88332257525E-01 -0.95274193344E-01  0.24366008424E-01  0.13945729482E+00  0.44439566562E-01 0.  0.
         14    1    1    2    0    0 -0.10682845578E-01 -0.27438101946E-02 -0.75259046089E-02  0.13352562459E-01  0.00000000000E+00 0. -1.
     999901    1    3    3    0    0  0.99015103103E-01  0.98018003539E-01 -0.16840103815E-01  0.89112014272E+00  0.88000000000E+00 0. -1.
        -11    1    4    4    0    0 -0.13245679733E-01 -0.92909219411E-02 -0.11436193195E-01  0.19819608924E-01  0.51100000000E-03 0.  1.
         11    1    4    4    0    0 -0.75086577792E-01 -0.85983271403E-01  0.35802201619E-01  0.11963768590E+00  0.51100000000E-03 0. -1.
</event>
<event>
 8    1  0.2025822E+004  0.1043930E+01  0.7957747E-01            NaN
         13   -1    0    0    0    0  0.00000000000E+00  0.00000000000E+00  0.74505805969E-08  0.10566000000E+00  0.10566000000E+00 0. -1.
     999900   -1    0    0    0    0 -0.00000000000E+00 -0.00000000000E+00 -0.74505805969E-08  0.93827000000E+00  0.93827000000E+00 0. -1.
     999902    2    1    2    0    0 -0.94371109540E-02 -0.59585039057E-02  0.71096390044E-02  0.10306970941E+01  0.10306121433E+01 0.  0.
     999903    2    3    3    0    0  0.12925439989E+00 -0.10209461362E-01 -0.23150507740E-01  0.13931104849E+00  0.45394815014E-01 0.  0.
         14    1    1    2    0    0  0.94371109540E-02  0.59585039057E-02 -0.71096390044E-02  0.13232905906E-01  0.00000000000E+00 0.  1.
     999901    1    3    3    0    0 -0.13869151084E+00  0.42509574562E-02  0.30260146744E-01  0.89138604561E+00  0.88000000000E+00 0. -1.
        -11    1    4    4    0    0  0.37310174008E-01 -0.88199016207E-02  0.13026763050E-01  0.40494412277E-01  0.51100000000E-03 0.  1.
         11    1    4    4    0    0  0.91944225882E-01 -0.13895597412E-02 -0.36177270790E-01  0.98816636211E-01  0.51100000000E-03 0. -1.
</event>
<event>
 8    1  0.2025822E+004  0.1043930E+01  0.7957747E-01            NaN
         13   -1    0    0    0    0  0.00000000000E+00  0.00000000000E+00  0.74505805969E-08  0.10566000000E+00  0.10566000000E+00 0.  1.
     999900   -1    0    0    0    0 -0.00000000000E+00 -0.00000000000E+00 -0.74505805969E-08  0.93827000000E+00  0.93827000000E+00 0. -1.
     999902    2    1    2    0    0 -0.16707732784E-03  0.12312475138E-01  0.20689577720E-02  0.10314437858E+01  0.10313682067E+01 0.  0.
     999903    2    3    3    0    0  0.80732463076E-01  0.48800042210E-01  0.96278233234E-01  0.14197682982E+00  0.44595373053E-01 0.  0.
         14    1    1    2    0    0  0.16707732784E-03 -0.12312475138E-01 -0.20689577720E-02  0.12486214203E-01  0.00000000000E+00 0. -1.
     999901    1    3    3    0    0 -0.80899540404E-01 -0.36487567073E-01 -0.94209275462E-01  0.88946695598E+00  0.88000000000E+00 0. -1.
        -11    1    4    4    0    0  0.67345044562E-02  0.25358100595E-01  0.30457233199E-01  0.40203121660E-01  0.51100000000E-03 0.  1.
         11    1    4    4    0    0  0.73997958620E-01  0.23441941616E-01  0.65821000035E-01  0.10177370816E+00  0.51100000000E-03 0. -1.
</event>
<event>
 8    1  0.2025822E+004  0.1043930E+01  0.7957747E-01            NaN
         13   -1    0    0    0    0  0.00000000000E+00  0.00000000000E+00  0.74505805969E-08  0.10566000000E+00  0.10566000000E+00 0.  1.
     999900   -1    0    0    0    0 -0.00000000000E+00 -0.00000000000E+00 -0.74505805969E-08  0.93827000000E+00  0.93827000000E+00 0. -1.
     999902    2    1    2    0    0  0.11872745466E-01  0.51585125923E-02 -0.33204124343E-02  0.10305659633E+01  0.10304793095E+01 0.  0.
     999903    2    3    3    0    0 -0.65262950965E-01  0.25144978756E-01 -0.11187651788E+00  0.14032228742E+00  0.47775164764E-01 0.  0.
         14    1    1    2    0    0 -0.11872745466E-01 -0.51585125923E-02  0.33204124343E-02  0.13364036658E-01  0.00000000000E+00 0. -1.
     999901    1    3    3    0    0  0.77135696431E-01 -0.19986466163E-01  0.10855610544E+00  0.89024367592E+00  0.88000000000E+00 0.  1.
        -11    1    4    4    0    0 -0.33667333549E-01  0.34213800896E-01 -0.85978173280E-01  0.98471218747E-01  0.51100000000E-03 0. -1.
         11    1    4    4    0    0 -0.31595617415E-01 -0.90688221406E-02 -0.25898344599E-01  0.41851068670E-01  0.51100000000E-03 0.  1.
</event>
<event>
 8    1  0.2025822E+004  0.1043930E+01  0.7957747E-01            NaN
         13   -1    0    0    0    0  0.00000000000E+00  0.00000000000E+00  0.74505805969E-08  0.10566000000E+00  0.10566000000E+00 0.  1.
     999900   -1    0    0    0    0 -0.00000000000E+00 -0.00000000000E+00 -0.74505805969E-08  0.93827000000E+00  0.93827000000E+00 0.  1.
     999902    2    1    2    0    0  0.10197149560E-01  0.23148410776E-02 -0.10627220016E-01  0.10290210043E+01  0.10289129939E+01 0.  0.
     999903    2    3    3    0    0  0.45036480412E-01  0.17200714489E-01  0.12131080887E+00  0.13837909437E+00  0.45916361624E-01 0.  0.
         14    1    1    2    0    0 -0.10197149560E-01 -0.23148410776E-02  0.10627220016E-01  0.14908995728E-01  0.00000000000E+00 0.  1.
     999901    1    3    3    0    0 -0.34839330852E-01 -0.14885873411E-01 -0.13193802888E+00  0.89064190990E+00  0.88000000000E+00 0.  1.
        -11    1    4    4    0    0  0.19371786892E-01  0.10702021035E-01  0.10597428326E-01  0.24543145473E-01  0.51100000000E-03 0.  1.
         11    1    4    4    0    0  0.25664693520E-01  0.64986934541E-02  0.11071338054E+00  0.11383594890E+00  0.51100000000E-03 0. -1.
</event>
