<event>
 8    1  0.2943605E+004  0.1043930E+01  0.7957747E-01            NaN
         13   -1    0    0    0    0  0.00000000000E+00  0.00000000000E+00  0.74505805969E-08  0.10566000000E+00  0.10566000000E+00 0.  1.
     999900   -1    0    0    0    0 -0.00000000000E+00 -0.00000000000E+00 -0.74505805969E-08  0.93827000000E+00  0.93827000000E+00 0.  1.
     999902    2    1    2    0    0 -0.92941582419E-02  0.19373643432E-02 -0.93466673680E-02  0.10306072770E+01  0.10305211615E+01 0.  0.
     999903    2    3    3    0    0 -0.12773130523E+00  0.26867052714E-01 -0.32493100098E-01  0.14202154419E+00  0.45576228476E-01 0.  0.
         14    1    1    2    0    0  0.92941582419E-02 -0.19373643432E-02  0.93466673680E-02  0.13322723029E-01  0.00000000000E+00 0.  1.
     999901    1    3    3    0    0  0.11843714699E+00 -0.24929688370E-01  0.23146432730E-01  0.88858573278E+00  0.88000000000E+00 0. -1.
        -11    1    4    4    0    0 -0.69930243970E-01  0.22794066435E-01  0.37936232339E-02  0.73650941505E-01  0.51100000000E-03 0.  1.
         11    1    4    4    0    0 -0.57801061265E-01  0.40729862789E-02 -0.36286723332E-01  0.68370602687E-01  0.51100000000E-03 0. -1.
</event>
<event>
 8    1  0.2943605E+004  0.1043930E+01  0.7957747E-01            NaN
         13   -1    0    0    0    0  0.00000000000E+00  0.00000000000E+00  0.74505805969E-08  0.10566000000E+00  0.10566000000E+00 0.  1.
     999900   -1    0    0    0    0 -0.00000000000E+00 -0.00000000000E+00 -0.74505805969E-08  0.93827000000E+00  0.93827000000E+00 0.  1.
     999902    2    1    2    0    0 -0.26297052000E-02  0.25191682643E-02  0.13521193736E-01  0.10299269918E+01  0.10298317941E+01 0.  0.
     999903    2    3    3    0    0  0.57571485352E-01  0.42888499226E-02  0.11717498858E+00  0.14179894682E+00  0.55173301616E-01 0.  0.
         14    1    1    2    0    0  0.26297052000E-02 -0.25191682643E-02 -0.13521193736E-01  0.14003008185E-01  0.00000000000E+00 0. -1.
     999901    1    3    3    0    0 -0.60201190552E-01 -0.17696816584E-02 -0.10365379485E+00  0.88812804499E+00  0.88000000000E+00 0.  1.
        -11    1    4    4    0    0  0.27476120200E-01  0.24545712951E-01  0.30484646995E-01  0.47822630928E-01  0.51100000000E-03 0.  1.
         11    1    4    4    0    0  0.30095365153E-01 -0.20256863028E-01  0.86690341587E-01  0.93976315894E-01  0.51100000000E-03 0. -1.
</event>
<event>
 8    1  0.2943605E+004  0.1043930E+01  0.7957747E-01            NaN
         13   -1    0    0    0    0  0.00000000000E+00  0.00000000000E+00  0.74505805969E-08  0.10566000000E+00  0.10566000000E+00 0.  1.
     999900   -1    0    0    0    0 -0.00000000000E+00 -0.00000000000E+00 -0.74505805969E-08  0.93827000000E+00  0.93827000000E+00 0. -1.
     999902    2    1    2    0    0  0.87154368598E-03 -0.13215060410E-01 -0.35509618762E-02  0.10302184450E+01  0.10301271949E+01 0.  0.
     999903    2    3    3    0    0  0.10902468132E+00 -0.76285282263E-01  0.90630467218E-02  0.14126733990E+00  0.46567124451E-01 0.  0.
         14    1    1    2    0    0 -0.87154368598E-03  0.13215060410E-01  0.35509618762E-02  0.13711554992E-01  0.00000000000E+00 0.  1.
     999901    1    3    3    0    0 -0.10815313763E+00  0.63070221853E-01 -0.12614008598E-01  0.88895110511E+00  0.88000000000E+00 0. -1.
        -11    1    4    4    0    0  0.38657312389E-01 -0.34693312544E-01 -0.18289333193E-01  0.55070632519E-01  0.51100000000E-03 0.  1.
         11    1    4    4    0    0  0.70367368928E-01 -0.41591969719E-01  0.27352379914E-01  0.86196707379E-01  0.51100000000E-03 0. -1.
</event>
<event>
 8    1  0.2943605E+004  0.1043930E+01  0.7957747E-01            NaN
         13   -1    0    0    0    0  0.00000000000E+00  0.00000000000E+00  0.74505805969E-08  0.10566000000E+00  0.10566000000E+00 0.  1.
     999900   -1    0    0    0    0 -0.00000000000E+00 -0.00000000000E+00 -0.74505805969E-08  0.93827000000E+00  0.93827000000E+00 0. -1.
     999902    2    1    2    0    0  0.42520716331E-03 -0.23494216942E-02 -0.13963446967E-01  0.10297638984E+01  0.10296664547E+01 0.  0.
     999903    2    3    3    0    0  0.12162078820E+00  0.51389387978E-01 -0.11445037481E-01  0.13982987224E+00  0.44597297756E-01 0.  0.
         14    1    1    2    0    0 -0.42520716331E-03  0.23494216942E-02  0.13963446967E-01  0.14166101603E-01  0.00000000000E+00 0.  1.
     999901    1    3    3    0    0 -0.12119558104E+00 -0.53738809672E-01 -0.25184094860E-02  0.88993402616E+00  0.88000000000E+00 0. -1.
        -11    1    4    4    0    0  0.47539205523E-01  0.36122456563E-01 -0.21633900301E-01  0.63506650779E-01  0.51100000000E-03 0.  1.
         11    1    4    4    0    0  0.74081582681E-01  0.15266931415E-01  0.10188862821E-01  0.76323221459E-01  0.51100000000E-03 0. -1.
</event>
<event>
 8    1  0.2943605E+004  0.1043930E+01  0.7957747E-01            NaN
         13   -1    0    0    0    0  0.00000000000E+00  0.00000000000E+00  0.74505805969E-08  0.10566000000E+00  0.10566000000E+00 0. -1.
     999900   -1    0    0    0    0 -0.00000000000E+00 -0.00000000000E+00 -0.74505805969E-08  0.93827000000E+00  0.93827000000E+00 0.  1.
     999902    2    1    2    0    0 -0.10085322866E-01  0.54580410870E-02 -0.64796516291E-02  0.10307584460E+01  0.10306742862E+01 0.  0.
     999903    2    3    3    0    0 -0.72114738710E-01 -0.86604277786E-02 -0.11348213489E+00  0.14199722327E+00  0.44827200768E-01 0.  0.
         14    1    1    2    0    0  0.10085322866E-01 -0.54580410870E-02  0.64796516291E-02  0.13171554011E-01  0.00000000000E+00 0.  1.
     999901    1    3    3    0    0  0.62029415844E-01  0.14118468866E-01  0.10700248326E+00  0.88876122272E+00  0.88000000000E+00 0. -1.
        -11    1    4    4    0    0 -0.43144405337E-01  0.87171695928E-02 -0.33963892968E-01  0.55598884018E-01  0.51100000000E-03 0.  1.
         11    1    4    4    0    0 -0.28970333374E-01 -0.17377597371E-01 -0.79518241918E-01  0.86398339248E-01  0.51100000000E-03 0. -1.
</event>
<event>
 7    1  0.2943605E+004  0.1043930E+01  0.7957747E-01            NaN
         13   -1    0    0    0    0  0.00000000000E+00  0.00000000000E+00  0.74505805969E-08  0.10566000000E+00  0.10566000000E+00 0. -1.
     999900   -1    0    0    0    0 -0.00000000000E+00 -0.00000000000E+00 -0.74505805969E-08  0.93827000000E+00  0.93827000000E+00 0.  1.
     999902    2    1    2    0    0  0.25834302492E-02  0.13849634965E-01 -0.23054796551E-03  0.10298395900E+01  0.10297431920E+01 0.  0.
         14    1    1    2    0    0 -0.25834302492E-02 -0.13849634965E-01  0.23054796551E-03  0.14090409961E-01  0.00000000000E+00 0.  1.
     999901    1    3    3    0    0  0.60809344292E-01 -0.95582811710E-01  0.59977218478E-01  0.88928685866E+00  0.88000000000E+00 0.  1.
        -11    1    3    3    0    0 -0.86400983450E-02  0.35640616829E-01 -0.83036002606E-02  0.37604730628E-01  0.51100000000E-03 0. -1.
         11    1    3    3    0    0 -0.49585815697E-01  0.73791829846E-01 -0.51904166183E-01  0.10294800075E+00  0.51100000000E-03 0.  1.
</event>
<event>
 8    1  0.2943605E+004  0.1043930E+01  0.7957747E-01            NaN
         13   -1    0    0    0    0  0.00000000000E+00  0.00000000000E+00  0.74505805969E-08  0.10566000000E+00  0.10566000000E+00 0. -1.
     999900   -1    0    0    0    0 -0.00000000000E+00 -0.00000000000E+00 -0.74505805969E-08  0.93827000000E+00  0.93827000000E+00 0.  1.
     999902    2    1    2    0    0  0.54784355491E-02 -0.12272889264E-01  0.32333750013E-02  0.10301064049E+01  0.10300136473E+01 0.  0.
     999903    2    3    3    0    0 -0.33409666960E-01 -0.95326716976E-01  0.87688676627E-01  0.14131907334E+00  0.45589337181E-01 0.  0.
         14    1    1    2    0    0 -0.54784355491E-02  0.12272889264E-01 -0.32333750013E-02  0.13823595077E-01  0.00000000000E+00 0. -1.
     999901    1    3    3    0    0  0.38888102509E-01  0.83053827712E-01 -0.84455301626E-01  0.88878733159E+00  0.88000000000E+00 0. -1.
        -11    1    4    4    0    0  0.10958287111E-01 -0.11162124925E-01  0.13514895107E-01  0.20678263951E-01  0.51100000000E-03 0. -1.
         11    1    4    4    0    0 -0.44367954071E-01 -0.84164592051E-01  0.74173781520E-01  0.12064080939E+00  0.51100000000E-03 0.  1.
</event>
<event>
 8    1  0.2943605E+004  0.1043930E+01  0.7957747E-01            NaN
         13   -1    0    0    0    0  0.00000000000E+00  0.00000000000E+00  0.74505805969E-08  0.10566000000E+00  0.10566000000E+00 0.  1.
     999900   -1    0    0    0    0 -0.00000000000E+00 -0.00000000000E+00 -0.74505805969E-08  0.93827000000E+00  0.93827000000E+00 0. -1.
     999902    2    1    2    0    0 -0.49739317290E-03 -0.10757021419E-01  0.81085438494E-02  0.10304500373E+01  0.10303618637E+01 0.  0.
     999903    2    3    3    0    0  0.37604773040E-01 -0.55306156485E-01 -0.11467549070E+00  0.13999379494E+00  0.44439898218E-01 0.  0.
         14    1    1    2    0    0  0.49739317290E-03  0.10757021419E-01 -0.81085438494E-02  0.13479962653E-01  0.00000000000E+00 0. -1.
     999901    1    3    3    0    0 -0.38102166213E-01  0.44549135066E-01  0.12278403455E+00  0.89045624241E+00  0.88000000000E+00 0.  1.
        -11    1    4    4    0    0  0.35140352621E-01 -0.12324178094E-01 -0.53353944709E-01  0.65066383679E-01  0.51100000000E-03 0.  1.
         11    1    4    4    0    0  0.24644204190E-02 -0.42981978391E-01 -0.61321545990E-01  0.74927411259E-01  0.51100000000E-03 0. -1.
</event>
<event>
 8    1  0.2943605E+004  0.1043930E+01  0.7957747E-01            NaN
         13   -1    0    0    0    0  0.00000000000E+00  0.00000000000E+00  0.74505805969E-08  0.10566000000E+00  0.10566000000E+00 0. -1.
     999900   -1    0    0    0    0 -0.00000000000E+00 -0.00000000000E+00 -0.74505805969E-08  0.93827000000E+00  0.93827000000E+00 0.  1.
     999902    2    1    2    0    0  0.41897626430E-02 -0.12797512255E-01  0.48273908755E-02  0.10296249613E+01  0.10295255833E+01 0.  0.
     999903    2    3    3    0    0 -0.10422070774E-01 -0.12119657686E+00 -0.54879359778E-01  0.14084559664E+00  0.45038962723E-01 0.  0.
         14    1    1    2    0    0 -0.41897626430E-02  0.12797512255E-01 -0.48273908755E-02  0.14305038749E-01  0.00000000000E+00 0. -1.
     999901    1    3    3    0    0  0.14611833417E-01  0.10839906460E+00  0.59706750654E-01  0.88877936461E+00  0.88000000000E+00 0. -1.
        -11    1    4    4    0    0 -0.17900789057E-01 -0.15832398683E-01 -0.13057817790E-01  0.27237305728E-01  0.51100000000E-03 0. -1.
         11    1    4    4    0    0  0.74787182829E-02 -0.10536417817E+00 -0.41821541988E-01  0.11360829091E+00  0.51100000000E-03 0.  1.
</event>
<event>
 8    1  0.2943605E+004  0.1043930E+01  0.7957747E-01            NaN
         13   -1    0    0    0    0  0.00000000000E+00  0.00000000000E+00  0.74505805969E-08  0.10566000000E+00  0.10566000000E+00 0. -1.
     999900   -1    0    0    0    0 -0.00000000000E+00 -0.00000000000E+00 -0.74505805969E-08  0.93827000000E+00  0.93827000000E+00 0. -1.
     999902    2    1    2    0    0  0.62048879539E-02  0.10766544281E-01 -0.47418184670E-02  0.10306294755E+01  0.10305436486E+01 0.  0.
     999903    2    3    3    0    0  0.66533947845E-01  0.95892048435E-01  0.66334155712E-01  0.14162005987E+00  0.45099556265E-01 0.  0.
         14    1    1    2    0    0 -0.62048879539E-02 -0.10766544281E-01  0.47418184670E-02  0.13300524525E-01  0.00000000000E+00 0. -1.
     999901    1    3    3    0    0 -0.60329059891E-01 -0.85125504153E-01 -0.71075974179E-01  0.88900941560E+00  0.88000000000E+00 0.  1.
        -11    1    4    4    0    0  0.18158128487E-01  0.33831850154E-01  0.46809466302E-01  0.60545016074E-01  0.51100000000E-03 0.  1.
         11    1    4    4    0    0  0.48375819358E-01  0.62060198281E-01  0.19524689410E-01  0.81075043798E-01  0.51100000000E-03 0. -1.
</event>
<event>
 8    1  0.2943605E+004  0.1043930E+01  0.7957747E-01            NaN
         13   -1    0    0    0    0  0.00000000000E+00  0.00000000000E+00  0.74505805969E-08  0.10566000000E+00  0.10566000000E+00 0. -1.
     999900   -1    0    0    0    0 -0.00000000000E+00 -0.00000000000E+00 -0.74505805969E-08  0.93827000000E+00  0.93827000000E+00 0. -1.
     999902    2    1    2    0    0  0.38569549081E-02  0.31872858796E-02  0.10498201665E-01  0.10323004200E+01  0.10322349103E+01 0.  0.
     999903    2    3    3    0    0 -0.12714812452E-01 -0.93443099472E-01  0.97915869379E-01  0.14255107134E+00  0.42895351355E-01 0.  0.
         14    1    1    2    0    0 -0.38569549081E-02 -0.31872858796E-02 -0.10498201665E-01  0.11629579986E-01  0.00000000000E+00 0.  1.
     999901    1    3    3    0    0  0.16571767360E-01  0.96630385352E-01 -0.87417667714E-01  0.88974934868E+00  0.88000000000E+00 0. -1.
        -11    1    4    4    0    0 -0.21016138318E-01 -0.20474779607E-01  0.36360136552E-01  0.46724889736E-01  0.51100000000E-03 0. -1.
         11    1    4    4    0    0  0.83013258657E-02 -0.72968319865E-01  0.61555732827E-01  0.95826181599E-01  0.51100000000E-03 0.  1.
</event>
<event>
 8    1  0.2943605E+004  0.1043930E+01  0.7957747E-01            NaN
         13   -1    0    0    0    0  0.00000000000E+00  0.00000000000E+00  0.74505805969E-08  0.10566000000E+00  0.10566000000E+00 0.  1.
     999900   -1    0    0    0    0 -0.00000000000E+00 -0.00000000000E+00 -0.74505805969E-08  0.93827000000E+00  0.93827000000E+00 0.  1.
     999902    2    1    2    0    0  0.92261768277E-02 -0.90702707360E-02 -0.43496372706E-02  0.10302804031E+01  0.10301899813E+01 0.  0.
     999903    2    3    3    0    0 -0.41127117960E-01  0.10261529540E+00  0.68346926797E-01  0.13882434118E+00  0.48780699254E-01 0.  0.
         14    1    1    2    0    0 -0.92261768277E-02  0.90702707360E-02  0.43496372706E-02  0.13649596861E-01  0.00000000000E+00 0.  1.
     999901    1    3    3    0    0  0.50353294788E-01 -0.11168556613E+00 -0.72696564068E-01  0.89145606196E+00  0.88000000000E+00 0. -1.
        -11    1    4    4    0    0 -0.19117409445E-01  0.94987396082E-01  0.60539722718E-01  0.11425147660E+00  0.51100000000E-03 0. -1.
         11    1    4    4    0    0 -0.22009708515E-01  0.76278993163E-02  0.78072040792E-02  0.24572864575E-01  0.51100000000E-03 0.  1.
</event>
<event>
 8    1  0.2943605E+004  0.1043930E+01  0.7957747E-01            NaN
         13   -1    0    0    0    0  0.00000000000E+00  0.00000000000E+00  0.74505805969E-08  0.10566000000E+00  0.10566000000E+00 0.  1.
     999900   -1    0    0    0    0 -0.00000000000E+00 -0.00000000000E+00 -0.74505805969E-08  0.93827000000E+00  0.93827000000E+00 0. -1.
     999902    2    1    2    0    0  0.97302618396E-02  0.10956890345E-01 -0.37383788909E-02  0.10288069408E+01  0.10286957833E+01 0.  0.
     999903    2    3    3    0    0  0.60938076099E-01  0.20007042428E-01 -0.11623433483E+00  0.14012280933E+00  0.44835814210E-01 0.  0.
         14    1    1    2    0    0 -0.97302618396E-02 -0.10956890345E-01  0.37383788909E-02  0.15123059156E-01  0.00000000000E+00 0. -1.
     999901    1    3    3    0    0 -0.51207814260E-01 -0.90501520827E-02  0.11249595594E+00  0.88868413151E+00  0.88000000000E+00 0.  1.
        -11    1    4    4    0    0 -0.67505318036E-02  0.19600586830E-02 -0.19120528414E-01  0.20378106819E-01  0.51100000000E-03 0. -1.
         11    1    4    4    0    0  0.67688607903E-01  0.18046983745E-01 -0.97113806420E-01  0.11974470252E+00  0.51100000000E-03 0.  1.
</event>
<event>
 8    1  0.2943605E+004  0.1043930E+01  0.7957747E-01            NaN
         13   -1    0    0    0    0  0.00000000000E+00  0.00000000000E+00  0.74505805969E-08  0.10566000000E+00  0.10566000000E+00 0. -1.
     999900   -1    0    0    0    0 -0.00000000000E+00 -0.00000000000E+00 -0.74505805969E-08  0.93827000000E+00  0.93827000000E+00 0. -1.
     999902    2    1    2    0    0  0.62043561965E-03 -0.70923565317E-02 -0.56562520853E-02  0.10348371650E+01  0.10347972160E+01 0.  0.
     999903    2    3    3    0    0 -0.12075186841E+00 -0.12056648222E-01  0.61526283152E-01  0.14395593077E+00  0.47026056541E-01 0.  0.
         14    1    1    2    0    0 -0.62043561965E-03  0.70923565317E-02  0.56562520853E-02  0.90928350465E-02  0.00000000000E+00 0. -1.
     999901    1    3    3    0    0  0.12137230403E+00  0.49642916899E-02 -0.67182535237E-01  0.89088123418E+00  0.88000000000E+00 0.  1.
        -11    1    4    4    0    0 -0.65876297390E-01 -0.36746678721E-02  0.73528253262E-02  0.66389117354E-01  0.51100000000E-03 0.  1.
         11    1    4    4    0    0 -0.54875571023E-01 -0.83819803495E-02  0.54173457826E-01  0.77566813416E-01  0.51100000000E-03 0. -1.
</event>
<event>
 8    1  0.2943605E+004  0.1043930E+01  0.7957747E-01            NaN
         13   -1    0    0    0    0  0.00000000000E+00  0.00000000000E+00  0.74505805969E-08  0.10566000000E+00  0.10566000000E+00 0. -1.
     999900   -1    0    0    0    0 -0.00000000000E+00 -0.00000000000E+00 -0.74505805969E-08  0.93827000000E+00  0.93827000000E+00 0. -1.
     999902    2    1    2    0    0 -0.56238173245E-02  0.72944408460E-02  0.11209212728E-01  0.10294219802E+01  0.10293197417E+01 0.  0.
     999903    2    3    3    0    0  0.11778787987E+00 -0.43519885118E-01  0.40190877123E-01  0.13888704007E+00  0.43661633595E-01 0.  0.
         14    1    1    2    0    0  0.56238173245E-02 -0.72944408460E-02 -0.11209212728E-01  0.14508019801E-01  0.00000000000E+00 0.  1.
     999901    1    3    3    0    0 -0.12341169720E+00  0.50814325964E-01 -0.28981664396E-01  0.89053494013E+00  0.88000000000E+00 0. -1.
        -11    1    4    4    0    0  0.24604344160E-01 -0.24377338165E-01 -0.22627411265E-02  0.34713246549E-01  0.51100000000E-03 0.  1.
         11    1    4    4    0    0  0.93183535714E-01 -0.19142546952E-01  0.42453618250E-01  0.10417379352E+00  0.51100000000E-03 0. -1.
</event>
<event>
 8    1  0.2943605E+004  0.1043930E+01  0.7957747E-01            NaN
         13   -1    0    0    0    0  0.00000000000E+00  0.00000000000E+00  0.74505805969E-08  0.10566000000E+00  0.10566000000E+00 0.  1.
     999900   -1    0    0    0    0 -0.00000000000E+00 -0.00000000000E+00 -0.74505805969E-08  0.93827000000E+00  0.93827000000E+00 0.  1.
     999902    2    1    2    0    0  0.95801141137E-02  0.11927133019E-01 -0.13282509302E-01  0.10236701841E+01  0.10234696799E+01 0.  0.
     999903    2    3    3    0    0  0.66979741794E-01 -0.14350758431E-01  0.10527052032E+00  0.13347915643E+00  0.45194830194E-01 0.  0.
         14    1    1    2    0    0 -0.95801141137E-02 -0.11927133019E-01  0.13282509302E-01  0.20259815938E-01  0.00000000000E+00 0.  1.
     999901    1    3    3    0    0 -0.57399627680E-01  0.26277891450E-01 -0.11855302962E+00  0.89019102763E+00  0.88000000000E+00 0.  1.
        -11    1    4    4    0    0  0.46772887471E-01 -0.22777152248E-01  0.96997118706E-01  0.11006908660E+00  0.51100000000E-03 0. -1.
         11    1    4    4    0    0  0.20206854322E-01  0.84263938172E-02  0.82734016108E-02  0.23410069833E-01  0.51100000000E-03 0.  1.
</event>
<event>
 8    1  0.2943605E+004  0.1043930E+01  0.7957747E-01            NaN
         13   -1    0    0    0    0  0.00000000000E+00  0.00000000000E+00  0.74505805969E-08  0.10566000000E+00  0.10566000000E+00 0.  1.
     999900   -1    0    0    0    0 -0.00000000000E+00 -0.00000000000E+00 -0.74505805969E-08  0.93827000000E+00  0.93827000000E+00 0.  1.
     999902    2    1    2    0    0 -0.38619147693E-02 -0.21974220146E-02 -0.13177685841E-01  0.10300233666E+01  0.10299294836E+01 0.  0.
     999903    2    3    3    0    0 -0.28306246231E-01  0.30432789488E-01  0.12423467349E+00  0.13842681401E+00  0.44725054358E-01 0.  0.
         14    1    1    2    0    0  0.38619147693E-02  0.21974220146E-02  0.13177685841E-01  0.13906633429E-01  0.00000000000E+00 0.  1.
     999901    1    3    3    0    0  0.24444331462E-01 -0.32630211502E-01 -0.13741235933E+00  0.89159655256E+00  0.88000000000E+00 0.  1.
        -11    1    4    4    0    0  0.11193394967E-01  0.67313666796E-02  0.15126541105E-01  0.19991917244E-01  0.51100000000E-03 0.  1.
         11    1    4    4    0    0 -0.39499641199E-01  0.23701422808E-01  0.10910813239E+00  0.11843489677E+00  0.51100000000E-03 0. -1.
</event>
<event>
 8    1  0.2943605E+004  0.1043930E+01  0.7957747E-01            NaN
         13   -1    0    0    0    0  0.00000000000E+00  0.00000000000E+00  0.74505805969E-08  0.10566000000E+00  0.10566000000E+00 0. -1.
     999900   -1    0    0    0    0 -0.00000000000E+00 -0.00000000000E+00 -0.74505805969E-08  0.93827000000E+00  0.93827000000E+00 0.  1.
     999902    2    1    2    0    0  0.40194441446E-02  0.12213368569E-01 -0.97124374610E-02  0.10278162250E+01  0.10276899039E+01 0.  0.
     999903    2    3    3    0    0  0.80922304985E-01 -0.68316358368E-01 -0.76407713970E-01  0.13829537262E+00  0.45518425601E-01 0.  0.
         14    1    1    2    0    0 -0.40194441446E-02 -0.12213368569E-01  0.97124374610E-02  0.16113774991E-01  0.00000000000E+00 0. -1.
     999901    1    3    3    0    0 -0.76902860840E-01  0.80529726937E-01  0.66695276509E-01  0.88952085239E+00  0.88000000000E+00 0. -1.
        -11    1    4    4    0    0  0.37971026309E-01 -0.43560131464E-02 -0.24919734785E-01  0.45629244923E-01  0.51100000000E-03 0. -1.
         11    1    4    4    0    0  0.42951278675E-01 -0.63960345221E-01 -0.51487979186E-01  0.92666127697E-01  0.51100000000E-03 0.  1.
</event>
<event>
 8    1  0.2943605E+004  0.1043930E+01  0.7957747E-01            NaN
         13   -1    0    0    0    0  0.00000000000E+00  0.00000000000E+00  0.74505805969E-08  0.10566000000E+00  0.10566000000E+00 0.  1.
     999900   -1    0    0    0    0 -0.00000000000E+00 -0.00000000000E+00 -0.74505805969E-08  0.93827000000E+00  0.93827000000E+00 0.  1.
     999902    2    1    2    0    0  0.30758233420E-02 -0.88185742444E-02 -0.99353477662E-02  0.10302940521E+01  0.10302038122E+01 0.  0.
     999903    2    3    3    0    0 -0.31293614873E-01 -0.97388785286E-01  0.84561943395E-01  0.14015042399E+00  0.45028360413E-01 0.  0.
         14    1    1    2    0    0 -0.30758233420E-02  0.88185742444E-02  0.99353477662E-02  0.13635947938E-01  0.00000000000E+00 0.  1.
     999901    1    3    3    0    0  0.34369438215E-01  0.88570211042E-01 -0.94497291161E-01  0.89014362808E+00  0.88000000000E+00 0.  1.
        -11    1    4    4    0    0  0.15080100740E-02 -0.59126552997E-01  0.31680316103E-01  0.67097890526E-01  0.51100000000E-03 0. -1.
         11    1    4    4    0    0 -0.32801624947E-01 -0.38262232289E-01  0.52881627292E-01  0.73052533460E-01  0.51100000000E-03 0.  1.
</event>
<event>
 7    1  0.2943605E+004  0.1043930E+01  0.7957747E-01            NaN
         13   -1    0    0    0    0  0.00000000000E+00  0.00000000000E+00  0.74505805969E-08  0.10566000000E+00  0.10566000000E+00 0. -1.
     999900   -1    0    0    0    0 -0.00000000000E+00 -0.00000000000E+00 -0.74505805969E-08  0.93827000000E+00  0.93827000000E+00 0. -1.
     999902    2    1    2    0    0 -0.10312693924E-01  0.11194251510E-04 -0.62268666917E-02  0.10318831892E+01  0.10318128660E+01 0.  0.
         14    1    1    2    0    0  0.10312693924E-01 -0.11194251510E-04  0.62268666917E-02  0.12046810785E-01  0.00000000000E+00 0. -1.
     999901    1    3    3    0    0 -0.58914122981E-01 -0.67704708510E-01  0.91924177800E-01  0.88932831727E+00  0.88000000000E+00 0.  1.
        -11    1    3    3    0    0  0.61423049678E-01  0.41533888963E-01 -0.67934101250E-01  0.10056419938E+00  0.51100000000E-03 0.  1.
         11    1    3    3    0    0 -0.12821620621E-01  0.26182013799E-01 -0.30216943242E-01  0.41990672557E-01  0.51100000000E-03 0. -1.
</event>
<event>
 8    1  0.2943605E+004  0.1043930E+01  0.7957747E-01            NaN
         13   -1    0    0    0    0  0.00000000000E+00  0.00000000000E+00  0.74505805969E-08  0.10566000000E+00  0.10566000000E+00 0.  1.
     999900   -1    0    0    0    0 -0.00000000000E+00 -0.00000000000E+00 -0.74505805969E-08  0.93827000000E+00  0.93827000000E+00 0.  1.
     999902    2    1    2    0    0  0.98174237672E-02  0.88420183807E-02  0.62345861790E-02  0.10293206481E+01  0.10292169662E+01 0.  0.
     999903    2    3    3    0    0  0.99346431618E-01  0.86432137530E-01 -0.16573243637E-02  0.14134657634E+00  0.51340822423E-01 0.  0.
         14    1    1    2    0    0 -0.98174237672E-02 -0.88420183807E-02 -0.62345861790E-02  0.14609351912E-01  0.00000000000E+00 0.  1.
     999901    1    3    3    0    0 -0.89529007850E-01 -0.77590119150E-01  0.78919105427E-02  0.88797407174E+00  0.88000000000E+00 0.  1.
        -11    1    4    4    0    0  0.89709064468E-01  0.62023777206E-01  0.15250678127E-01  0.11012497215E+00  0.51100000000E-03 0. -1.
         11    1    4    4    0    0  0.96373671492E-02  0.24408360324E-01 -0.16908002490E-01  0.31221604195E-01  0.51100000000E-03 0.  1.
</event>
<event>
 8    1  0.2943605E+004  0.1043930E+01  0.7957747E-01            NaN
         13   -1    0    0    0    0  0.00000000000E+00  0.00000000000E+00  0.74505805969E-08  0.10566000000E+00  0.10566000000E+00 0. -1.
     999900   -1    0    0    0    0 -0.00000000000E+00 -0.00000000000E+00 -0.74505805969E-08  0.93827000000E+00  0.93827000000E+00 0. -1.
     999902    2    1    2    0    0 -0.13524414359E-01  0.59205377454E-02  0.82338146551E-02  0.10270256143E+01  0.10268864856E+01 0.  0.
     999903    2    3    3    0    0 -0.65374229297E-01  0.38794142486E-01 -0.10558797830E+00  0.13757382939E+00  0.44709753115E-01 0.  0.
         14    1    1    2    0    0  0.13524414359E-01 -0.59205377454E-02 -0.82338146551E-02  0.16904385666E-01  0.00000000000E+00 0.  1.
     999901    1    3    3    0    0  0.51849814938E-01 -0.32873604741E-01  0.11382179295E+00  0.88945178495E+00  0.88000000000E+00 0.  1.
        -11    1    4    4    0    0 -0.57126862215E-01  0.45319481313E-01 -0.72412156460E-01  0.10276728710E+00  0.51100000000E-03 0.  1.
         11    1    4    4    0    0 -0.82473670826E-02 -0.65253388266E-02 -0.33175821836E-01  0.34806542289E-01  0.51100000000E-03 0. -1.
</event>
<event>
 8    1  0.2943605E+004  0.1043930E+01  0.7957747E-01            NaN
         13   -1    0    0    0    0  0.00000000000E+00  0.00000000000E+00  0.74505805969E-08  0.10566000000E+00  0.10566000000E+00 0. -1.
     999900   -1    0    0    0    0 -0.00000000000E+00 -0.00000000000E+00 -0.74505805969E-08  0.93827000000E+00  0.93827000000E+00 0.  1.
     999902    2    1    2    0    0  0.83468636492E-02 -0.65764597850E-02 -0.85882900401E-02  0.10302669593E+01  0.10301763581E+01 0.  0.
     999903    2    3    3    0    0 -0.96675238989E-01  0.69278168757E-01 -0.57322831647E-01  0.13944788547E+00  0.44880276658E-01 0.  0.
         14    1    1    2    0    0 -0.83468636492E-02  0.65764597850E-02  0.85882900401E-02  0.13663040727E-01  0.00000000000E+00 0. -1.
     999901    1    3    3    0    0  0.10502210264E+00 -0.75854628542E-01  0.48734541607E-01  0.89081907381E+00  0.88000000000E+00 0. -1.
        -11    1    4    4    0    0 -0.54884648415E-01  0.11974681222E-01 -0.24178550816E-01  0.61160289915E-01  0.51100000000E-03 0.  1.
         11    1    4    4    0    0 -0.41790590574E-01  0.57303487535E-01 -0.33144280832E-01  0.78287595550E-01  0.51100000000E-03 0. -1.
</event>
<event>
 8    1  0.2943605E+004  0.1043930E+01  0.7957747E-01            NaN
         13   -1    0    0    0    0  0.00000000000E+00  0.00000000000E+00  0.74505805969E-08  0.10566000000E+00  0.10566000000E+00 0. -1.
     999900   -1    0    0    0    0 -0.00000000000E+00 -0.00000000000E+00 -0.74505805969E-08  0.93827000000E+00  0.93827000000E+00 0.  1.
     999902    2    1    2    0    0 -0.79166772838E-02  0.22861641493E-02 -0.73065410161E-02  0.10329170137E+01  0.10328583017E+01 0.  0.
     999903    2    3    3    0    0  0.68796229353E-01  0.10527729697E+00  0.48882975033E-01  0.14182257134E+00  0.43679126158E-01 0.  0.
         14    1    1    2    0    0  0.79166772838E-02 -0.22861641493E-02  0.73065410161E-02  0.11012986305E-01  0.00000000000E+00 0. -1.
     999901    1    3    3    0    0 -0.76712906637E-01 -0.10299113282E+00 -0.56189516049E-01  0.89109444236E+00  0.88000000000E+00 0. -1.
        -11    1    4    4    0    0  0.49966078289E-01  0.37491279437E-01  0.27805478138E-01  0.68378437748E-01  0.51100000000E-03 0. -1.
         11    1    4    4    0    0  0.18830151064E-01  0.67786017536E-01  0.21077496895E-01  0.73444133591E-01  0.51100000000E-03 0.  1.
</event>
<event>
 8    1  0.2943605E+004  0.1043930E+01  0.7957747E-01            NaN
         13   -1    0    0    0    0  0.00000000000E+00  0.00000000000E+00  0.74505805969E-08  0.10566000000E+00  0.10566000000E+00 0.  1.
     999900   -1    0    0    0    0 -0.00000000000E+00 -0.00000000000E+00 -0.74505805969E-08  0.93827000000E+00  0.93827000000E+00 0.  1.
     999902    2    1    2    0    0 -0.98077987617E-02  0.30598176605E-02 -0.16717357996E-02  0.10335208645E+01  0.10334684452E+01 0.  0.
     999903    2    3    3    0    0  0.92167186349E-01  0.74956662521E-01 -0.63675250137E-01  0.14255931111E+00  0.46425512458E-01 0.  0.
         14    1    1    2    0    0  0.98077987617E-02 -0.30598176605E-02  0.16717357996E-02  0.10409135471E-01  0.00000000000E+00 0. -1.
     999901    1    3    3    0    0 -0.10197498511E+00 -0.71896844861E-01  0.62003514337E-01  0.89096155342E+00  0.88000000000E+00 0.  1.
        -11    1    4    4    0    0  0.66392119884E-01  0.66294244149E-01 -0.66812341892E-01  0.11518242288E+00  0.51100000000E-03 0.  1.
         11    1    4    4    0    0  0.25775066465E-01  0.86624183716E-02  0.31370917547E-02  0.27376888227E-01  0.51100000000E-03 0. -1.
</event>
<event>
 8    1  0.2943605E+004  0.1043930E+01  0.7957747E-01            NaN
         13   -1    0    0    0    0  0.00000000000E+00  0.00000000000E+00  0.74505805969E-08  0.10566000000E+00  0.10566000000E+00 0. -1.
     999900   -1    0    0    0    0 -0.00000000000E+00 -0.00000000000E+00 -0.74505805969E-08  0.93827000000E+00  0.93827000000E+00 0. -1.
     999902    2    1    2    0    0  0.78066975155E-03  0.53655390127E-02  0.12102396770E-01  0.10306685347E+01  0.10305832145E+01 0.  0.
     999903    2    3    3    0    0  0.78365735971E-01  0.94857818085E-01 -0.50322724260E-01  0.14054202333E+00  0.45612383402E-01 0.  0.
         14    1    1    2    0    0 -0.78066975155E-03 -0.53655390127E-02 -0.12102396770E-01  0.13261465294E-01  0.00000000000E+00 0.  1.
     999901    1    3    3    0    0 -0.77585066219E-01 -0.89492279072E-01  0.62425121030E-01  0.89012651137E+00  0.88000000000E+00 0.  1.
        -11    1    4    4    0    0  0.77209946359E-01  0.72508641522E-01 -0.29456666638E-01  0.10994014391E+00  0.51100000000E-03 0.  1.
         11    1    4    4    0    0  0.11557896119E-02  0.22349176563E-01 -0.20866057622E-01  0.30601879425E-01  0.51100000000E-03 0. -1.
</event>
<event>
 8    1  0.2943605E+004  0.1043930E+01  0.7957747E-01            NaN
         13   -1    0    0    0    0  0.00000000000E+00  0.00000000000E+00  0.74505805969E-08  0.10566000000E+00  0.10566000000E+00 0.  1.
     999900   -1    0    0    0    0 -0.00000000000E+00 -0.00000000000E+00 -0.74505805969E-08  0.93827000000E+00  0.93827000000E+00 0. -1.
     999902    2    1    2    0    0  0.58346983558E-02 -0.46753709220E-02  0.13583955656E-01  0.10284243027E+01  0.10283074052E+01 0.  0.
     999903    2    3    3    0    0 -0.15264184392E-01  0.93118297499E-01  0.92246180779E-01  0.13926936112E+00  0.44526221760E-01 0.  0.
         14    1    1    2    0    0 -0.58346983558E-02  0.46753709220E-02 -0.13583955656E-01  0.15505697321E-01  0.00000000000E+00 0. -1.
     999901    1    3    3    0    0  0.21098882747E-01 -0.97793668421E-01 -0.78662225123E-01  0.88915494156E+00  0.88000000000E+00 0. -1.
        -11    1    4    4    0    0  0.13495935860E-01  0.28812735165E-01  0.16560333914E-01  0.35872270248E-01  0.51100000000E-03 0. -1.
         11    1    4    4    0    0 -0.28760120252E-01  0.64305562334E-01  0.75685846865E-01  0.10339709087E+00  0.51100000000E-03 0.  1.
</event>
<event>
 8    1  0.2943605E+004  0.1043930E+01  0.7957747E-01            NaN
         13   -1    0    0    0    0  0.00000000000E+00  0.00000000000E+00  0.74505805969E-08  0.10566000000E+00  0.10566000000E+00 0. -1.
     999900   -1    0    0    0    0 -0.00000000000E+00 -0.00000000000E+00 -0.74505805969E-08  0.93827000000E+00  0.93827000000E+00 0. -1.
     999902    2    1    2    0    0 -0.13445670727E-01  0.89874037478E-03 -0.63271106046E-02  0.10290428873E+01  0.10289351961E+01 0.  0.
     999903    2    3    3    0    0  0.44947739080E-01  0.54924677889E-01  0.10932928776E+00  0.13791719768E+00  0.45069288484E-01 0.  0.
         14    1    1    2    0    0  0.13445670727E-01 -0.89874037478E-03  0.63271106046E-02  0.14887112687E-01  0.00000000000E+00 0. -1.
     999901    1    3    3    0    0 -0.58393409807E-01 -0.54025937514E-01 -0.11565639837E+00  0.89112568963E+00  0.88000000000E+00 0. -1.
        -11    1    4    4    0    0 -0.32044713281E-02  0.23269587308E-01  0.16701140972E-01  0.28825883520E-01  0.51100000000E-03 0.  1.
         11    1    4    4    0    0  0.48152210408E-01  0.31655090581E-01  0.92628146792E-01  0.10909131416E+00  0.51100000000E-03 0. -1.
</event>
<event>
 8    1  0.2943605E+004  0.1043930E+01  0.7957747E-01            NaN
         13   -1    0    0    0    0  0.00000000000E+00  0.00000000000E+00  0.74505805969E-08  0.10566000000E+00  0.10566000000E+00 0. -1.
     999900   -1    0    0    0    0 -0.00000000000E+00 -0.00000000000E+00 -0.74505805969E-08  0.93827000000E+00  0.93827000000E+00 0.  1.
     999902    2    1    2    0    0 -0.22607035698E-02 -0.91456342506E-03 -0.13900836682E-01  0.10298168690E+01  0.10297201577E+01 0.  0.
     999903    2    3    3    0    0  0.57624639704E-01  0.10572026512E+00 -0.56517394591E-01  0.14033757635E+00  0.44755400639E-01 0.  0.
         14    1    1    2    0    0  0.22607035698E-02  0.91456342506E-03  0.13900836682E-01  0.14113131026E-01  0.00000000000E+00 0. -1.
     999901    1    3    3    0    0 -0.59885343274E-01 -0.10663482855E+00  0.42616557909E-01  0.88947929262E+00  0.88000000000E+00 0. -1.
        -11    1    4    4    0    0  0.56758400450E-01  0.71251931334E-01 -0.27184889670E-01  0.95066466684E-01  0.51100000000E-03 0. -1.
         11    1    4    4    0    0  0.86623925416E-03  0.34468333787E-01 -0.29332504921E-01  0.45271109667E-01  0.51100000000E-03 0.  1.
</event>
<event>
 8    1  0.2943605E+004  0.1043930E+01  0.7957747E-01            NaN
         13   -1    0    0    0    0  0.00000000000E+00  0.00000000000E+00  0.74505805969E-08  0.10566000000E+00  0.10566000000E+00 0. -1.
     999900   -1    0    0    0    0 -0.00000000000E+00 -0.00000000000E+00 -0.74505805969E-08  0.93827000000E+00  0.93827000000E+00 0. -1.
     999902    2    1    2    0    0 -0.11148238131E-01  0.78821329971E-02 -0.19192504548E-02  0.10301425145E+01  0.10300502441E+01 0.  0.
     999903    2    3    3    0    0 -0.27173061841E-02  0.51888244198E-01 -0.12322084206E+00  0.14069229411E+00  0.43716953967E-01 0.  0.
         14    1    1    2    0    0  0.11148238131E-01 -0.78821329971E-02  0.19192504548E-02  0.13787485496E-01  0.00000000000E+00 0. -1.
     999901    1    3    3    0    0 -0.84309319465E-02 -0.44006111200E-01  0.12130159161E+00  0.88945022040E+00  0.88000000000E+00 0.  1.
        -11    1    4    4    0    0 -0.16741845318E-01  0.37205458353E-02 -0.39898508297E-01  0.43431370359E-01  0.51100000000E-03 0.  1.
         11    1    4    4    0    0  0.14024539134E-01  0.48167698362E-01 -0.83322333764E-01  0.97260923748E-01  0.51100000000E-03 0. -1.
</event>
<event>
 8    1  0.2943605E+004  0.1043930E+01  0.7957747E-01            NaN
         13   -1    0    0    0    0  0.00000000000E+00  0.00000000000E+00  0.74505805969E-08  0.10566000000E+00  0.10566000000E+00 0. -1.
     999900   -1    0    0    0    0 -0.00000000000E+00 -0.00000000000E+00 -0.74505805969E-08  0.93827000000E+00  0.93827000000E+00 0. -1.
     999902    2    1    2    0    0  0.34956927139E-03 -0.35123142649E-03  0.78101511836E-02  0.10361041439E+01  0.10360745885E+01 0.  0.
     999903    2    3    3    0    0  0.13239036201E+00 -0.34147923432E-01  0.20753358136E-01  0.14551753164E+00  0.45291958562E-01 0.  0.
         14    1    1    2    0    0 -0.34956927139E-03  0.35123142649E-03 -0.78101511836E-02  0.78258561002E-02  0.00000000000E+00 0.  1.
     999901    1    3    3    0    0 -0.13204079274E+00  0.33796692006E-01 -0.12943206952E-01  0.89058661226E+00  0.88000000000E+00 0.  1.
        -11    1    4    4    0    0  0.88663914838E-01 -0.29312315085E-01  0.34297311521E-01  0.99484010316E-01  0.51100000000E-03 0.  1.
         11    1    4    4    0    0  0.43726447176E-01 -0.48356083471E-02 -0.13543953385E-01  0.46033521319E-01  0.51100000000E-03 0. -1.
</event>
<event>
 8    1  0.2943605E+004  0.1043930E+01  0.7957747E-01            NaN
         13   -1    0    0    0    0  0.00000000000E+00  0.00000000000E+00  0.74505805969E-08  0.10566000000E+00  0.10566000000E+00 0.  1.
     999900   -1    0    0    0    0 -0.00000000000E+00 -0.00000000000E+00 -0.74505805969E-08  0.93827000000E+00  0.93827000000E+00 0.  1.
     999902    2    1    2    0    0 -0.96625909876E-02 -0.78726051711E-02 -0.46335735019E-02  0.10306328732E+01  0.10305470905E+01 0.  0.
     999903    2    3    3    0    0  0.63917408679E-01 -0.64575027724E-01  0.10044964395E+00  0.13952588546E+00  0.33495856532E-01 0.  0.
         14    1    1    2    0    0  0.96625909876E-02  0.78726051711E-02  0.46335735019E-02  0.13297126764E-01  0.00000000000E+00 0. -1.
     999901    1    3    3    0    0 -0.73579999667E-01  0.56702422553E-01 -0.10508321746E+00  0.89110698778E+00  0.88000000000E+00 0.  1.
        -11    1    4    4    0    0  0.57716459041E-01 -0.41867570924E-01  0.86720158438E-01  0.11227078934E+00  0.51100000000E-03 0. -1.
         11    1    4    4    0    0  0.62009496383E-02 -0.22707456800E-01  0.13729485516E-01  0.27255096116E-01  0.51100000000E-03 0.  1.
</event>
<event>
 8    1  0.2943605E+004  0.1043930E+01  0.7957747E-01            NaN
         13   -1    0    0    0    0  0.00000000000E+00  0.00000000000E+00  0.74505805969E-08  0.10566000000E+00  0.10566000000E+00 0. -1.
     999900   -1    0    0    0    0 -0.00000000000E+00 -0.00000000000E+00 -0.74505805969E-08  0.93827000000E+00  0.93827000000E+00 0. -1.
     999902    2    1    2    0    0 -0.10665686173E-01  0.66088162675E-02  0.16014681385E-02  0.10312809679E+01  0.10312033925E+01 0.  0.
     999903    2    3    3    0    0  0.11984375206E+00 -0.47925941789E-01  0.31189993632E-01  0.13949498784E+00  0.42738918160E-01 0.  0.
         14    1    1    2    0    0  0.10665686173E-01 -0.66088162675E-02 -0.16014681385E-02  0.12649032145E-01  0.00000000000E+00 0. -1.
     999901    1    3    3    0    0 -0.13050943824E+00  0.54534758057E-01 -0.29588525494E-01  0.89178598001E+00  0.88000000000E+00 0. -1.
        -11    1    4    4    0    0  0.15726616995E-01 -0.19510301749E-01 -0.52009016158E-02  0.25598610413E-01  0.51100000000E-03 0.  1.
         11    1    4    4    0    0  0.10411713507E+00 -0.28415640040E-01  0.36390895248E-01  0.11389637743E+00  0.51100000000E-03 0. -1.
</event>
<event>
 8    1  0.2943605E+004  0.1043930E+01  0.7957747E-01            NaN
         13   -1    0    0    0    0  0.00000000000E+00  0.00000000000E+00  0.74505805969E-08  0.10566000000E+00  0.10566000000E+00 0. -1.
     999900   -1    0    0    0    0 -0.00000000000E+00 -0.00000000000E+00 -0.74505805969E-08  0.93827000000E+00  0.93827000000E+00 0.  1.
     999902    2    1    2    0    0 -0.91573196465E-02 -0.99014573470E-02  0.15579260840E-02  0.10303534579E+01  0.10302640078E+01 0.  0.
     999903    2    3    3    0    0 -0.61908470736E-01 -0.60454291141E-02  0.11822192898E+00  0.14107957298E+00  0.45363150877E-01 0.  0.
         14    1    1    2    0    0  0.91573196465E-02  0.99014573470E-02 -0.15579260840E-02  0.13576542063E-01  0.00000000000E+00 0. -1.
     999901    1    3    3    0    0  0.52751151090E-01 -0.38560282328E-02 -0.11666400290E+00  0.88927388496E+00  0.88000000000E+00 0.  1.
        -11    1    4    4    0    0 -0.38455570437E-01  0.14075881013E-01  0.91408232295E-01  0.10016330354E+00  0.51100000000E-03 0.  1.
         11    1    4    4    0    0 -0.23452900299E-01 -0.20121310127E-01  0.26813696688E-01  0.40916269439E-01  0.51100000000E-03 0. -1.
</event>
<event>
 8    1  0.2943605E+004  0.1043930E+01  0.7957747E-01            NaN
         13   -1    0    0    0    0  0.00000000000E+00  0.00000000000E+00  0.74505805969E-08  0.10566000000E+00  0.10566000000E+00 0.  1.
     999900   -1    0    0    0    0 -0.00000000000E+00 -0.00000000000E+00 -0.74505805969E-08  0.93827000000E+00  0.93827000000E+00 0. -1.
     999902    2    1    2    0    0  0.29652411345E-02 -0.16800138017E-02 -0.12939262982E-01  0.10305494310E+01  0.10304625612E+01 0.  0.
     999903    2    3    3    0    0 -0.85668211409E-01 -0.35955031476E-01  0.93258386250E-01  0.13908512632E+00  0.44896982332E-01 0.  0.
         14    1    1    2    0    0 -0.29652411345E-02  0.16800138017E-02  0.12939262982E-01  0.13380569041E-01  0.00000000000E+00 0.  1.
     999901    1    3    3    0    0  0.88633452543E-01  0.34275017674E-01 -0.10619764923E+00  0.89146430464E+00  0.88000000000E+00 0. -1.
        -11    1    4    4    0    0 -0.16483636790E-01 -0.96212199404E-02 -0.11335041791E-02  0.19126528898E-01  0.51100000000E-03 0. -1.
         11    1    4    4    0    0 -0.69184574619E-01 -0.26333811536E-01  0.94391890429E-01  0.11995859742E+00  0.51100000000E-03 0.  1.
</event>
<event>
 8    1  0.2943605E+004  0.1043930E+01  0.7957747E-01            NaN
         13   -1    0    0    0    0  0.00000000000E+00  0.00000000000E+00  0.74505805969E-08  0.10566000000E+00  0.10566000000E+00 0. -1.
     999900   -1    0    0    0    0 -0.00000000000E+00 -0.00000000000E+00 -0.74505805969E-08  0.93827000000E+00  0.93827000000E+00 0. -1.
     999902    2    1    2    0    0  0.26594846078E-02  0.15038360543E-02 -0.15956234231E-01  0.10276838992E+01  0.10275554782E+01 0.  0.
     999903    2    3    3    0    0  0.39077037258E-01 -0.36796368241E-01 -0.12087042486E+00  0.13987754011E+00  0.45553035757E-01 0.  0.
         14    1    1    2    0    0 -0.26594846078E-02 -0.15038360543E-02  0.15956234231E-01  0.16246100827E-01  0.00000000000E+00 0. -1.
     999901    1    3    3    0    0 -0.36417552650E-01  0.38300204295E-01  0.10491419063E+00  0.88780635906E+00  0.88000000000E+00 0.  1.
        -11    1    4    4    0    0  0.42574675321E-01 -0.42920822503E-01 -0.91509055102E-01  0.10967665326E+00  0.51100000000E-03 0.  1.
         11    1    4    4    0    0 -0.34976380631E-02  0.61244542627E-02 -0.29361369755E-01  0.30200886857E-01  0.51100000000E-03 0. -1.
</event>
<event>
 8    1  0.2943605E+004  0.1043930E+01  0.7957747E-01            NaN
         13   -1    0    0    0    0  0.00000000000E+00  0.00000000000E+00  0.74505805969E-08  0.10566000000E+00  0.10566000000E+00 0.  1.
     999900   -1    0    0    0    0 -0.00000000000E+00 -0.00000000000E+00 -0.74505805969E-08  0.93827000000E+00  0.93827000000E+00 0. -1.
     999902    2    1    2    0    0 -0.18660299750E-02 -0.13776883034E-01 -0.44095997413E-02  0.10293447628E+01  0.10292414253E+01 0.  0.
     999903    2    3    3    0    0  0.91065130127E-01 -0.95498497568E-01  0.14764949690E-01  0.14047903271E+00  0.45864299068E-01 0.  0.
         14    1    1    2    0    0  0.18660299750E-02  0.13776883034E-01  0.44095997413E-02  0.14585237190E-01  0.00000000000E+00 0.  1.
     999901    1    3    3    0    0 -0.92931160102E-01  0.81721614534E-01 -0.19174549432E-01  0.88886573010E+00  0.88000000000E+00 0. -1.
        -11    1    4    4    0    0  0.68355314448E-01 -0.39465373217E-01  0.37452963860E-02  0.79020586320E-01  0.51100000000E-03 0. -1.
         11    1    4    4    0    0  0.22709815680E-01 -0.56033124351E-01  0.11019653304E-01  0.61458446390E-01  0.51100000000E-03 0.  1.
</event>
<event>
 8    1  0.2943605E+004  0.1043930E+01  0.7957747E-01            NaN
         13   -1    0    0    0    0  0.00000000000E+00  0.00000000000E+00  0.74505805969E-08  0.10566000000E+00  0.10566000000E+00 0. -1.
     999900   -1    0    0    0    0 -0.00000000000E+00 -0.00000000000E+00 -0.74505805969E-08  0.93827000000E+00  0.93827000000E+00 0. -1.
     999902    2    1    2    0    0 -0.32463327365E-02  0.11385399323E-01  0.75496593745E-02  0.10298885132E+01  0.10297927881E+01 0.  0.
     999903    2    3    3    0    0 -0.44895294185E-01 -0.11756801250E+00 -0.36698605710E-01  0.13841696160E+00  0.44436950783E-01 0.  0.
         14    1    1    2    0    0  0.32463327365E-02 -0.11385399323E-01 -0.75496593745E-02  0.14041486768E-01  0.00000000000E+00 0.  1.
     999901    1    3    3    0    0  0.41648961448E-01  0.12895341182E+00  0.44248265084E-01  0.89147155163E+00  0.88000000000E+00 0.  1.
        -11    1    4    4    0    0 -0.34918273525E-01 -0.66483281616E-01 -0.42086811705E-01  0.86086429830E-01  0.51100000000E-03 0. -1.
         11    1    4    4    0    0 -0.99770206599E-02 -0.51084730880E-01  0.53882059947E-02  0.52330531769E-01  0.51100000000E-03 0.  1.
</event>
<event>
 8    1  0.2943605E+004  0.1043930E+01  0.7957747E-01            NaN
         13   -1    0    0    0    0  0.00000000000E+00  0.00000000000E+00  0.74505805969E-08  0.10566000000E+00  0.10566000000E+00 0.  1.
     999900   -1    0    0    0    0 -0.00000000000E+00 -0.00000000000E+00 -0.74505805969E-08  0.93827000000E+00  0.93827000000E+00 0.  1.
     999902    2    1    2    0    0 -0.67929418537E-02  0.13129754987E-01 -0.96159375343E-03  0.10291158450E+01  0.10290092144E+01 0.  0.
     999903    2    3    3    0    0 -0.15830185719E-01 -0.76089973329E-01 -0.10522780595E+00  0.13843449084E+00  0.45287286145E-01 0.  0.
         14    1    1    2    0    0  0.67929418537E-02 -0.13129754987E-01  0.96159375343E-03  0.14814154974E-01  0.00000000000E+00 0. -1.
     999901    1    3    3    0    0  0.90372438653E-02  0.89219728316E-01  0.10426621220E+00  0.89068135419E+00  0.88000000000E+00 0. -1.
        -11    1    4    4    0    0 -0.23009797781E-01 -0.13807292402E-01 -0.25649069157E-01  0.37124493088E-01  0.51100000000E-03 0.  1.
         11    1    4    4    0    0  0.71796120621E-02 -0.62282680927E-01 -0.79578736794E-01  0.10130999775E+00  0.51100000000E-03 0. -1.
</event>
<event>
 8    1  0.2943605E+004  0.1043930E+01  0.7957747E-01            NaN
         13   -1    0    0    0    0  0.00000000000E+00  0.00000000000E+00  0.74505805969E-08  0.10566000000E+00  0.10566000000E+00 0. -1.
     999900   -1    0    0    0    0 -0.00000000000E+00 -0.00000000000E+00 -0.74505805969E-08  0.93827000000E+00  0.93827000000E+00 0.  1.
     999902    2    1    2    0    0 -0.14416439013E-02 -0.48474119182E-02  0.13144486441E-01  0.10298462057E+01  0.10297498988E+01 0.  0.
     999903    2    3    3    0    0 -0.21755051162E-01  0.61692754965E-02  0.13197556207E+00  0.14155862471E+00  0.45934225099E-01 0.  0.
         14    1    1    2    0    0  0.14416439013E-02  0.48474119182E-02 -0.13144486441E-01  0.14083794348E-01  0.00000000000E+00 0.  1.
     999901    1    3    3    0    0  0.20313407261E-01 -0.11016687415E-01 -0.11883107563E+00  0.88828758094E+00  0.88000000000E+00 0.  1.
        -11    1    4    4    0    0 -0.15464348398E-02 -0.18909539666E-01  0.50090085033E-01  0.53565286247E-01  0.51100000000E-03 0.  1.
         11    1    4    4    0    0 -0.20208616322E-01  0.25078815163E-01  0.81885477037E-01  0.87993338465E-01  0.51100000000E-03 0. -1.
</event>
<event>
 8    1  0.2943605E+004  0.1043930E+01  0.7957747E-01            NaN
         13   -1    0    0    0    0  0.00000000000E+00  0.00000000000E+00  0.74505805969E-08  0.10566000000E+00  0.10566000000E+00 0.  1.
     999900   -1    0    0    0    0 -0.00000000000E+00 -0.00000000000E+00 -0.74505805969E-08  0.93827000000E+00  0.93827000000E+00 0. -1.
     999902    2    1    2    0    0  0.26495985731E-02 -0.47205927694E-02  0.10334309068E-01  0.10322637104E+01  0.10321977841E+01 0.  0.
     999903    2    3    3    0    0  0.64435419089E-01 -0.57273655195E-01  0.10555561730E+00  0.14341816167E+00  0.44660787517E-01 0.  0.
         14    1    1    2    0    0 -0.26495985731E-02  0.47205927694E-02 -0.10334309068E-01  0.11666289581E-01  0.00000000000E+00 0. -1.
     999901    1    3    3    0    0 -0.61785820516E-01  0.52553062426E-01 -0.95221308229E-01  0.88884554875E+00  0.88000000000E+00 0. -1.
        -11    1    4    4    0    0  0.26140035944E-01 -0.18345054819E-01  0.10193015403E-01  0.33526127117E-01  0.51100000000E-03 0. -1.
         11    1    4    4    0    0  0.38295383145E-01 -0.38928600377E-01  0.95362601894E-01  0.10989203455E+00  0.51100000000E-03 0.  1.
</event>
<event>
 8    1  0.2943605E+004  0.1043930E+01  0.7957747E-01            NaN
         13   -1    0    0    0    0  0.00000000000E+00  0.00000000000E+00  0.74505805969E-08  0.10566000000E+00  0.10566000000E+00 0.  1.
     999900   -1    0    0    0    0 -0.00000000000E+00 -0.00000000000E+00 -0.74505805969E-08  0.93827000000E+00  0.93827000000E+00 0. -1.
     999902    2    1    2    0    0  0.68804501565E-02 -0.59334787290E-02  0.10460841871E-01  0.10300744604E+01  0.10299812707E+01 0.  0.
     999903    2    3    3    0    0  0.17772102061E-01 -0.13210969496E+00  0.12042959493E-01  0.14100665159E+00  0.44373683682E-01 0.  0.
         14    1    1    2    0    0 -0.68804501565E-02  0.59334787290E-02 -0.10460841871E-01  0.13855539572E-01  0.00000000000E+00 0. -1.
     999901    1    3    3    0    0 -0.10891651905E-01  0.12617621623E+00 -0.15821176212E-02  0.88906780884E+00  0.88000000000E+00 0.  1.
        -11    1    4    4    0    0  0.30050569679E-01 -0.58508909039E-01  0.82288915990E-02  0.66289553875E-01  0.51100000000E-03 0. -1.
         11    1    4    4    0    0 -0.12278467617E-01 -0.73600785922E-01  0.38140678936E-02  0.74717097710E-01  0.51100000000E-03 0.  1.
</event>
<event>
 8    1  0.2943605E+004  0.1043930E+01  0.7957747E-01            NaN
         13   -1    0    0    0    0  0.00000000000E+00  0.00000000000E+00  0.74505805969E-08  0.10566000000E+00  0.10566000000E+00 0.  1.
     999900   -1    0    0    0    0 -0.00000000000E+00 -0.00000000000E+00 -0.74505805969E-08  0.93827000000E+00  0.93827000000E+00 0.  1.
     999902    2    1    2    0    0 -0.93558027316E-02  0.92892326738E-02 -0.43053322409E-02  0.10300607255E+01  0.10299673497E+01 0.  0.
     999903    2    3    3    0    0  0.67840152158E-01 -0.33177657658E-01  0.10731299102E+00  0.13864538894E+00  0.44759609261E-01 0.  0.
         14    1    1    2    0    0  0.93558027316E-02 -0.92892326738E-02  0.43053322409E-02  0.13869274463E-01  0.00000000000E+00 0.  1.
     999901    1    3    3    0    0 -0.77195954889E-01  0.42466890332E-01 -0.11161832326E+00  0.89141533659E+00  0.88000000000E+00 0.  1.
        -11    1    4    4    0    0  0.60373714661E-01 -0.75660876725E-02  0.79349139936E-01  0.99993890984E-01  0.51100000000E-03 0. -1.
         11    1    4    4    0    0  0.74664374964E-02 -0.25611569986E-01  0.27963851085E-01  0.38651497960E-01  0.51100000000E-03 0.  1.
</event>
<event>
 8    1  0.2943605E+004  0.1043930E+01  0.7957747E-01            NaN
         13   -1    0    0    0    0  0.00000000000E+00  0.00000000000E+00  0.74505805969E-08  0.10566000000E+00  0.10566000000E+00 0. -1.
     999900   -1    0    0    0    0 -0.00000000000E+00 -0.00000000000E+00 -0.74505805969E-08  0.93827000000E+00  0.93827000000E+00 0. -1.
     999902    2    1    2    0    0  0.17437941699E-02 -0.11302815954E-01  0.62512417376E-02  0.10308964859E+01  0.10308140919E+01 0.  0.
     999903    2    3    3    0    0  0.79118202492E-01  0.68412964732E-01 -0.80796203111E-01  0.13965091794E+00  0.45103533507E-01 0.  0.
         14    1    1    2    0    0 -0.17437941699E-02  0.11302815954E-01 -0.62512417376E-02  0.13033514102E-01  0.00000000000E+00 0. -1.
     999901    1    3    3    0    0 -0.77374408322E-01 -0.79715780685E-01  0.87047444848E-01  0.89124556796E+00  0.88000000000E+00 0.  1.
        -11    1    4    4    0    0  0.40335109623E-01  0.42376671713E-01 -0.70858635802E-01  0.91890754499E-01  0.51100000000E-03 0. -1.
         11    1    4    4    0    0  0.38783092870E-01  0.26036293019E-01 -0.99375673090E-02  0.47760163439E-01  0.51100000000E-03 0.  1.
</event>
<event>
 8    1  0.2943605E+004  0.1043930E+01  0.7957747E-01            NaN
         13   -1    0    0    0    0  0.00000000000E+00  0.00000000000E+00  0.74505805969E-08  0.10566000000E+00  0.10566000000E+00 0.  1.
     999900   -1    0    0    0    0 -0.00000000000E+00 -0.00000000000E+00 -0.74505805969E-08  0.93827000000E+00  0.93827000000E+00 0.  1.
     999902    2    1    2    0    0 -0.14167258684E-02 -0.15826553151E-01  0.66271160353E-02  0.10267135670E+01  0.10265692101E+01 0.  0.
     999903    2    3    3    0    0  0.22778419259E-01  0.85161238031E-03 -0.12660992725E+00  0.13619929093E+00  0.44727972720E-01 0.  0.
         14    1    1    2    0    0  0.14167258684E-02  0.15826553151E-01 -0.66271160353E-02  0.17216432957E-01  0.00000000000E+00 0.  1.
     999901    1    3    3    0    0 -0.24195145128E-01 -0.16678165531E-01  0.13323704329E+00  0.89051427611E+00  0.88000000000E+00 0. -1.
        -11    1    4    4    0    0  0.64026043212E-02 -0.21486456628E-01 -0.60314157350E-01  0.64348425454E-01  0.51100000000E-03 0. -1.
         11    1    4    4    0    0  0.16375814938E-01  0.22338069008E-01 -0.66295769903E-01  0.71850865478E-01  0.51100000000E-03 0.  1.
</event>
<event>
 7    1  0.2943605E+004  0.1043930E+01  0.7957747E-01            NaN
         13   -1    0    0    0    0  0.00000000000E+00  0.00000000000E+00  0.74505805969E-08  0.10566000000E+00  0.10566000000E+00 0. -1.
     999900   -1    0    0    0    0 -0.00000000000E+00 -0.00000000000E+00 -0.74505805969E-08  0.93827000000E+00  0.93827000000E+00 0. -1.
     999903    2    1    2    0    0  0.32923995891E-01  0.71411097495E-01 -0.79404881228E-01  0.12045347453E+00  0.44948526244E-01 0.  0.
         14    1    1    2    0    0  0.11244677670E-01  0.22406392500E-01  0.25485539213E-01  0.35749152574E-01  0.00000000000E+00 0. -1.
     999901    1    1    2    0    0 -0.44168673561E-01 -0.93817489995E-01  0.53919342015E-01  0.88772737290E+00  0.88000000000E+00 0.  1.
        -11    1    3    3    0    0  0.46197701702E-02  0.50037233055E-01 -0.65019756053E-01  0.82176010894E-01  0.51100000000E-03 0. -1.
         11    1    3    3    0    0  0.28304225721E-01  0.21373864440E-01 -0.14385125175E-01  0.38277463632E-01  0.51100000000E-03 0.  1.
</event>
<event>
 8    1  0.2943605E+004  0.1043930E+01  0.7957747E-01            NaN
         13   -1    0    0    0    0  0.00000000000E+00  0.00000000000E+00  0.74505805969E-08  0.10566000000E+00  0.10566000000E+00 0. -1.
     999900   -1    0    0    0    0 -0.00000000000E+00 -0.00000000000E+00 -0.74505805969E-08  0.93827000000E+00  0.93827000000E+00 0.  1.
     999902    2    1    2    0    0  0.12581680827E-01  0.71695343508E-02 -0.37758126564E-02  0.10289647845E+01  0.10288559520E+01 0.  0.
     999903    2    3    3    0    0 -0.11896224782E+00  0.38186751574E-01  0.35943087941E-01  0.13776140475E+00  0.45563742881E-01 0.  0.
         14    1    1    2    0    0 -0.12581680827E-01 -0.71695343508E-02  0.37758126564E-02  0.14965215550E-01  0.00000000000E+00 0.  1.
     999901    1    3    3    0    0  0.13154392865E+00 -0.31017217223E-01 -0.39718900598E-01  0.89120337970E+00  0.88000000000E+00 0.  1.
        -11    1    4    4    0    0 -0.10100916208E+00  0.23115649418E-01  0.44540652713E-01  0.11278880679E+00  0.51100000000E-03 0.  1.
         11    1    4    4    0    0 -0.17953085742E-01  0.15071102155E-01 -0.85975647717E-02  0.24972597960E-01  0.51100000000E-03 0. -1.
</event>
<event>
 8    1  0.2943605E+004  0.1043930E+01  0.7957747E-01            NaN
         13   -1    0    0    0    0  0.00000000000E+00  0.00000000000E+00  0.74505805969E-08  0.10566000000E+00  0.10566000000E+00 0.  1.
     999900   -1    0    0    0    0 -0.00000000000E+00 -0.00000000000E+00 -0.74505805969E-08  0.93827000000E+00  0.93827000000E+00 0. -1.
     999902    2    1    2    0    0  0.14290748310E-01  0.10568061353E-01  0.43129277347E-02  0.10256403649E+01  0.10254772778E+01 0.  0.
     999903    2    3    3    0    0  0.44418877734E-03  0.12444012263E+00 -0.38455586157E-01  0.13716542468E+00  0.43011396127E-01 0.  0.
         14    1    1    2    0    0 -0.14290748310E-01 -0.10568061353E-01 -0.43129277347E-02  0.18289635143E-01  0.00000000000E+00 0. -1.
     999901    1    3    3    0    0  0.13846559533E-01 -0.11387206127E+00  0.42768513892E-01  0.88847494018E+00  0.88000000000E+00 0.  1.
        -11    1    4    4    0    0 -0.12494968500E-01  0.68545063038E-01 -0.30459850748E-02  0.69743021520E-01  0.51100000000E-03 0. -1.
         11    1    4    4    0    0  0.12939157277E-01  0.55895059589E-01 -0.35409601083E-01  0.67422403156E-01  0.51100000000E-03 0.  1.
</event>
<event>
 8    1  0.2943605E+004  0.1043930E+01  0.7957747E-01            NaN
         13   -1    0    0    0    0  0.00000000000E+00  0.00000000000E+00  0.74505805969E-08  0.10566000000E+00  0.10566000000E+00 0. -1.
     999900   -1    0    0    0    0 -0.00000000000E+00 -0.00000000000E+00 -0.74505805969E-08  0.93827000000E+00  0.93827000000E+00 0. -1.
     999902    2    1    2    0    0 -0.32718485846E-02 -0.14284934205E-02  0.13034150275E-01  0.10304157608E+01  0.10303271352E+01 0.  0.
     999903    2    3    3    0    0 -0.51321988337E-01 -0.84390768132E-01 -0.87528638714E-01  0.13951485194E+00  0.45248017455E-01 0.  0.
         14    1    1    2    0    0  0.32718485846E-02  0.14284934205E-02 -0.13034150275E-01  0.13514239158E-01  0.00000000000E+00 0.  1.
     999901    1    3    3    0    0  0.48050139752E-01  0.82962274711E-01  0.10056278899E+00  0.89090090890E+00  0.88000000000E+00 0.  1.
        -11    1    4    4    0    0 -0.37560845314E-04 -0.40939492749E-01 -0.26865996090E-01  0.48970259794E-01  0.51100000000E-03 0.  1.
         11    1    4    4    0    0 -0.51284427492E-01 -0.43451275382E-01 -0.60662642624E-01  0.90544592145E-01  0.51100000000E-03 0. -1.
</event>
<event>
 8    1  0.2943605E+004  0.1043930E+01  0.7957747E-01            NaN
         13   -1    0    0    0    0  0.00000000000E+00  0.00000000000E+00  0.74505805969E-08  0.10566000000E+00  0.10566000000E+00 0.  1.
     999900   -1    0    0    0    0 -0.00000000000E+00 -0.00000000000E+00 -0.74505805969E-08  0.93827000000E+00  0.93827000000E+00 0.  1.
     999902    2    1    2    0    0  0.81524859566E-02  0.17786980744E-02 -0.12511484113E-01  0.10288912491E+01  0.10287813365E+01 0.  0.
     999903    2    3    3    0    0  0.86540795891E-01 -0.59748460521E-01 -0.81760983456E-01  0.14056371291E+00  0.44878848960E-01 0.  0.
         14    1    1    2    0    0 -0.81524859566E-02 -0.17786980744E-02  0.12511484113E-01  0.15038750906E-01  0.00000000000E+00 0.  1.
     999901    1    3    3    0    0 -0.78388309934E-01  0.61527158595E-01  0.69249499343E-01  0.88832753618E+00  0.88000000000E+00 0. -1.
        -11    1    4    4    0    0  0.54863390211E-01 -0.51688871791E-01 -0.76598875464E-01  0.10746804128E+00  0.51100000000E-03 0.  1.
         11    1    4    4    0    0  0.31677405680E-01 -0.80595887297E-02 -0.51621079916E-02  0.33095671636E-01  0.51100000000E-03 0. -1.
</event>
<event>
 8    1  0.2943605E+004  0.1043930E+01  0.7957747E-01            NaN
         13   -1    0    0    0    0  0.00000000000E+00  0.00000000000E+00  0.74505805969E-08  0.10566000000E+00  0.10566000000E+00 0.  1.
     999900   -1    0    0    0    0 -0.00000000000E+00 -0.00000000000E+00 -0.74505805969E-08  0.93827000000E+00  0.93827000000E+00 0.  1.
     999902    2    1    2    0    0 -0.33603814032E-02  0.14472588812E-01  0.56876335515E-02  0.10280209722E+01  0.10278978656E+01 0.  0.
     999903    2    3    3    0    0  0.61399661866E-01 -0.11126929521E+00 -0.20234088409E-01  0.13635016957E+00  0.45068568575E-01 0.  0.
         14    1    1    2    0    0  0.33603814032E-02 -0.14472588812E-01 -0.56876335515E-02  0.15909027799E-01  0.00000000000E+00 0. -1.
     999901    1    3    3    0    0 -0.64760043269E-01  0.12574188402E+00  0.25921721960E-01  0.89167080263E+00  0.88000000000E+00 0. -1.
        -11    1    4    4    0    0  0.12747842159E-01 -0.38666366669E-01  0.13158129434E-01  0.42790102621E-01  0.51100000000E-03 0. -1.
         11    1    4    4    0    0  0.48651819707E-01 -0.72602928540E-01 -0.33392217842E-01  0.93560066946E-01  0.51100000000E-03 0.  1.
</event>
<event>
 8    1  0.2943605E+004  0.1043930E+01  0.7957747E-01            NaN
         13   -1    0    0    0    0  0.00000000000E+00  0.00000000000E+00  0.74505805969E-08  0.10566000000E+00  0.10566000000E+00 0. -1.
     999900   -1    0    0    0    0 -0.00000000000E+00 -0.00000000000E+00 -0.74505805969E-08  0.93827000000E+00  0.93827000000E+00 0. -1.
     999902    2    1    2    0    0 -0.15003868754E-01 -0.20849802578E-02 -0.14285234363E-01  0.10231085894E+01  0.10228966979E+01 0.  0.
     999903    2    3    3    0    0  0.12938066841E-01 -0.34951595120E-02  0.12332780701E+00  0.13197443025E+00  0.45032127928E-01 0.  0.
         14    1    1    2    0    0  0.15003868754E-01  0.20849802578E-02  0.14285234363E-01  0.20821410641E-01  0.00000000000E+00 0. -1.
     999901    1    3    3    0    0 -0.27941935595E-01  0.14101792542E-02 -0.13761304137E+00  0.89113415911E+00  0.88000000000E+00 0. -1.
        -11    1    4    4    0    0  0.29466690816E-01 -0.20632968151E-02  0.90306796414E-01  0.95016428374E-01  0.51100000000E-03 0.  1.
         11    1    4    4    0    0 -0.16528623975E-01 -0.14318626969E-02  0.33021010593E-01  0.36958001879E-01  0.51100000000E-03 0. -1.
</event>
<event>
 8    1  0.2943605E+004  0.1043930E+01  0.7957747E-01            NaN
         13   -1    0    0    0    0  0.00000000000E+00  0.00000000000E+00  0.74505805969E-08  0.10566000000E+00  0.10566000000E+00 0.  1.
     999900   -1    0    0    0    0 -0.00000000000E+00 -0.00000000000E+00 -0.74505805969E-08  0.93827000000E+00  0.93827000000E+00 0.  1.
     999902    2    1    2    0    0  0.51631179561E-02  0.13104847899E-01 -0.40675180310E-02  0.10292691839E+01  0.10291647650E+01 0.  0.
     999903    2    3    3    0    0 -0.37228572074E-01 -0.11058430359E+00  0.57714940171E-01  0.13746587952E+00  0.44170113573E-01 0.  0.
         14    1    1    2    0    0 -0.51631179561E-02 -0.13104847899E-01  0.40675180310E-02  0.14660816090E-01  0.00000000000E+00 0.  1.
     999901    1    3    3    0    0  0.42391690030E-01  0.12368915149E+00 -0.61782458201E-01  0.89180330439E+00  0.88000000000E+00 0. -1.
        -11    1    4    4    0    0  0.67475542221E-02 -0.77011383285E-02  0.13973648324E-01  0.17330925770E-01  0.51100000000E-03 0.  1.
         11    1    4    4    0    0 -0.43976126296E-01 -0.10288316527E+00  0.43741291846E-01  0.12013495375E+00  0.51100000000E-03 0. -1.
</event>
<event>
 8    1  0.2943605E+004  0.1043930E+01  0.7957747E-01            NaN
         13   -1    0    0    0    0  0.00000000000E+00  0.00000000000E+00  0.74505805969E-08  0.10566000000E+00  0.10566000000E+00 0.  1.
     999900   -1    0    0    0    0 -0.00000000000E+00 -0.00000000000E+00 -0.74505805969E-08  0.93827000000E+00  0.93827000000E+00 0.  1.
     999902    2    1    2    0    0  0.10758364529E-01  0.92344055696E-02  0.32399241081E-02  0.10293864873E+01  0.10292837444E+01 0.  0.
     999903    2    3    3    0    0 -0.82676570580E-01  0.95860180043E-01  0.37956076912E-01  0.13953294700E+00  0.44768181607E-01 0.  0.
         14    1    1    2    0    0 -0.10758364529E-01 -0.92344055696E-02 -0.32399241081E-02  0.14543512705E-01  0.00000000000E+00 0. -1.
     999901    1    3    3    0    0  0.93434935110E-01 -0.86625774474E-01 -0.34716152804E-01  0.88985354029E+00  0.88000000000E+00 0.  1.
        -11    1    4    4    0    0 -0.26868806457E-01  0.59290865500E-01  0.32019356533E-01  0.72545432702E-01  0.51100000000E-03 0.  1.
         11    1    4    4    0    0 -0.55807764123E-01  0.36569314544E-01  0.59367203797E-02  0.66987514303E-01  0.51100000000E-03 0. -1.
</event>
<event>
 8    1  0.2943605E+004  0.1043930E+01  0.7957747E-01            NaN
         13   -1    0    0    0    0  0.00000000000E+00  0.00000000000E+00  0.74505805969E-08  0.10566000000E+00  0.10566000000E+00 0.  1.
     999900   -1    0    0    0    0 -0.00000000000E+00 -0.00000000000E+00 -0.74505805969E-08  0.93827000000E+00  0.93827000000E+00 0. -1.
     999902    2    1    2    0    0  0.16213521404E-01 -0.46000959797E-02 -0.10381479612E-01  0.10241357009E+01  0.10239443928E+01 0.  0.
     999903    2    3    3    0    0 -0.11309851365E+00  0.53005850791E-01 -0.23192668399E-02  0.13278557505E+00  0.45008176310E-01 0.  0.
         14    1    1    2    0    0 -0.16213521404E-01  0.46000959797E-02  0.10381479612E-01  0.19794299136E-01  0.00000000000E+00 0.  1.
     999901    1    3    3    0    0  0.12931203505E+00 -0.57605946771E-01 -0.80622127719E-02  0.89135012581E+00  0.88000000000E+00 0. -1.
        -11    1    4    4    0    0 -0.21527160315E-01  0.18936060382E-01 -0.17961719237E-01  0.33836038376E-01  0.51100000000E-03 0. -1.
         11    1    4    4    0    0 -0.91571353335E-01  0.34069790409E-01  0.15642452397E-01  0.98949536675E-01  0.51100000000E-03 0.  1.
</event>
<event>
 8    1  0.2943605E+004  0.1043930E+01  0.7957747E-01            NaN
         13   -1    0    0    0    0  0.00000000000E+00  0.00000000000E+00  0.74505805969E-08  0.10566000000E+00  0.10566000000E+00 0. -1.
     999900   -1    0    0    0    0 -0.00000000000E+00 -0.00000000000E+00 -0.74505805969E-08  0.93827000000E+00  0.93827000000E+00 0.  1.
     999902    2    1    2    0    0  0.12531721672E-01 -0.43560504699E-03  0.54130630905E-02  0.10302722164E+01  0.10301816854E+01 0.  0.
     999903    2    3    3    0    0 -0.65461710373E-01 -0.10428540510E+00 -0.49628162955E-01  0.13903863708E+00  0.41329248715E-01 0.  0.
         14    1    1    2    0    0 -0.12531721672E-01  0.43560504699E-03 -0.54130630905E-02  0.13657783563E-01  0.00000000000E+00 0.  1.
     999901    1    3    3    0    0  0.77993432045E-01  0.10384980006E+00  0.55041226045E-01  0.89123357936E+00  0.88000000000E+00 0. -1.
        -11    1    4    4    0    0 -0.38304533193E-01 -0.25653643093E-01 -0.11445794651E-01  0.47503831459E-01  0.51100000000E-03 0.  1.
         11    1    4    4    0    0 -0.27157177180E-01 -0.78631762011E-01 -0.38182368304E-01  0.91534805619E-01  0.51100000000E-03 0. -1.
</event>
<event>
 8    1  0.2943605E+004  0.1043930E+01  0.7957747E-01            NaN
         13   -1    0    0    0    0  0.00000000000E+00  0.00000000000E+00  0.74505805969E-08  0.10566000000E+00  0.10566000000E+00 0.  1.
     999900   -1    0    0    0    0 -0.00000000000E+00 -0.00000000000E+00 -0.74505805969E-08  0.93827000000E+00  0.93827000000E+00 0. -1.
     999902    2    1    2    0    0 -0.65326904407E-02 -0.11006707028E-01  0.59699494863E-02  0.10298068296E+01  0.10297099798E+01 0.  0.
     999903    2    3    3    0    0  0.31030670331E-01 -0.12723604492E+00  0.27503757492E-01  0.14110892262E+00  0.44758884481E-01 0.  0.
         14    1    1    2    0    0  0.65326904407E-02  0.11006707028E-01 -0.59699494863E-02  0.14123170354E-01  0.00000000000E+00 0.  1.
     999901    1    3    3    0    0 -0.37563360772E-01  0.11622933789E+00 -0.21533808006E-01  0.88869790702E+00  0.88000000000E+00 0.  1.
        -11    1    4    4    0    0  0.36297531335E-01 -0.54574763335E-01  0.13536385788E-01  0.66928397824E-01  0.51100000000E-03 0. -1.
         11    1    4    4    0    0 -0.52668610034E-02 -0.72661281583E-01  0.13967371704E-01  0.74180524799E-01  0.51100000000E-03 0.  1.
</event>
<event>
 8    1  0.2943605E+004  0.1043930E+01  0.7957747E-01            NaN
         13   -1    0    0    0    0  0.00000000000E+00  0.00000000000E+00  0.74505805969E-08  0.10566000000E+00  0.10566000000E+00 0. -1.
     999900   -1    0    0    0    0 -0.00000000000E+00 -0.00000000000E+00 -0.74505805969E-08  0.93827000000E+00  0.93827000000E+00 0.  1.
     999902    2    1    2    0    0 -0.10361857232E-01 -0.97399902879E-03 -0.83986628473E-02  0.10305563581E+01  0.10304695789E+01 0.  0.
     999903    2    3    3    0    0  0.10638721129E+00 -0.14441827891E-01 -0.77766877411E-01  0.14003758987E+00  0.45122436063E-01 0.  0.
         14    1    1    2    0    0  0.10361857232E-01  0.97399902879E-03  0.83986628473E-02  0.13373641876E-01  0.00000000000E+00 0. -1.
     999901    1    3    3    0    0 -0.11674906852E+00  0.13467828862E-01  0.69368214564E-01  0.89051876825E+00  0.88000000000E+00 0.  1.
        -11    1    4    4    0    0  0.12415113874E-01  0.84185343002E-02 -0.26798307227E-01  0.30715096671E-01  0.51100000000E-03 0.  1.
         11    1    4    4    0    0  0.93972097416E-01 -0.22860362191E-01 -0.50968570184E-01  0.10932249320E+00  0.51100000000E-03 0. -1.
</event>
<event>
 8    1  0.2943605E+004  0.1043930E+01  0.7957747E-01            NaN
         13   -1    0    0    0    0  0.00000000000E+00  0.00000000000E+00  0.74505805969E-08  0.10566000000E+00  0.10566000000E+00 0. -1.
     999900   -1    0    0    0    0 -0.00000000000E+00 -0.00000000000E+00 -0.74505805969E-08  0.93827000000E+00  0.93827000000E+00 0. -1.
     999902    2    1    2    0    0 -0.26187099599E-03  0.10074765413E-01 -0.91456353098E-02  0.10303207340E+01  0.10302308493E+01 0.  0.
     999903    2    3    3    0    0  0.71288618023E-01 -0.10277091401E-01 -0.11288999395E+00  0.14110953163E+00  0.44497904629E-01 0.  0.
         14    1    1    2    0    0  0.26187099599E-03 -0.10074765413E-01  0.91456353098E-02  0.13609265952E-01  0.00000000000E+00 0. -1.
     999901    1    3    3    0    0 -0.71550489019E-01  0.20351856814E-01  0.10374435864E+00  0.88921120242E+00  0.88000000000E+00 0.  1.
        -11    1    4    4    0    0  0.43331535400E-01 -0.26393109019E-01 -0.54990017571E-01  0.74822331674E-01  0.51100000000E-03 0. -1.
         11    1    4    4    0    0  0.27957082623E-01  0.16116017618E-01 -0.57899976377E-01  0.66287199956E-01  0.51100000000E-03 0.  1.
</event>
<event>
 8    1  0.2943605E+004  0.1043930E+01  0.7957747E-01            NaN
         13   -1    0    0    0    0  0.00000000000E+00  0.00000000000E+00  0.74505805969E-08  0.10566000000E+00  0.10566000000E+00 0. -1.
     999900   -1    0    0    0    0 -0.00000000000E+00 -0.00000000000E+00 -0.74505805969E-08  0.93827000000E+00  0.93827000000E+00 0. -1.
     999902    2    1    2    0    0 -0.17292382757E-02 -0.13145302118E-01 -0.29758357084E-02  0.10303415920E+01  0.10302519844E+01 0.  0.
     999903    2    3    3    0    0  0.10629426641E+00  0.39355799184E-01 -0.67777895744E-01  0.13982222100E+00  0.45924506910E-01 0.  0.
         14    1    1    2    0    0  0.17292382757E-02  0.13145302118E-01  0.29758357084E-02  0.13588407962E-01  0.00000000000E+00 0. -1.
     999901    1    3    3    0    0 -0.10802350468E+00 -0.52501101302E-01  0.64802060036E-01  0.89051937103E+00  0.88000000000E+00 0.  1.
        -11    1    4    4    0    0  0.18573183305E-01  0.22496885086E-01 -0.32775803594E-01  0.43881515458E-01  0.51100000000E-03 0.  1.
         11    1    4    4    0    0  0.87721083100E-01  0.16858914099E-01 -0.35002092150E-01  0.95940705546E-01  0.51100000000E-03 0. -1.
</event>
<event>
 8    1  0.2943605E+004  0.1043930E+01  0.7957747E-01            NaN
         13   -1    0    0    0    0  0.00000000000E+00  0.00000000000E+00  0.74505805969E-08  0.10566000000E+00  0.10566000000E+00 0. -1.
     999900   -1    0    0    0    0 -0.00000000000E+00 -0.00000000000E+00 -0.74505805969E-08  0.93827000000E+00  0.93827000000E+00 0.  1.
     999902    2    1    2    0    0 -0.91335754497E-02  0.87536306077E-02 -0.54501771405E-02  0.10301549254E+01  0.10300628222E+01 0.  0.
     999903    2    3    3    0    0 -0.98994374360E-01  0.63806869381E-01  0.63590990765E-01  0.14118220077E+00  0.44915442463E-01 0.  0.
         14    1    1    2    0    0  0.91335754497E-02 -0.87536306077E-02  0.54501771405E-02  0.13775074598E-01  0.00000000000E+00 0. -1.
     999901    1    3    3    0    0  0.89860798911E-01 -0.55053238773E-01 -0.69041167906E-01  0.88897272464E+00  0.88000000000E+00 0.  1.
        -11    1    4    4    0    0 -0.49703465906E-01  0.53063110389E-01  0.22483583604E-01  0.76104539023E-01  0.51100000000E-03 0.  1.
         11    1    4    4    0    0 -0.49290908454E-01  0.10743758992E-01  0.41107407161E-01  0.65077661744E-01  0.51100000000E-03 0. -1.
</event>
<event>
 8    1  0.2943605E+004  0.1043930E+01  0.7957747E-01            NaN
         13   -1    0    0    0    0  0.00000000000E+00  0.00000000000E+00  0.74505805969E-08  0.10566000000E+00  0.10566000000E+00 0. -1.
     999900   -1    0    0    0    0 -0.00000000000E+00 -0.00000000000E+00 -0.74505805969E-08  0.93827000000E+00  0.93827000000E+00 0. -1.
     999902    2    1    2    0    0 -0.12057931782E-02 -0.32283234684E-03  0.14460784252E-01  0.10294154404E+01  0.10293131091E+01 0.  0.
     999903    2    3    3    0    0 -0.73172601195E-01 -0.10463032477E+00  0.35507534746E-01  0.14008859381E+00  0.45412494590E-01 0.  0.
         14    1    1    2    0    0  0.12057931782E-02  0.32283234684E-03 -0.14460784252E-01  0.14514559556E-01  0.00000000000E+00 0.  1.
     999901    1    3    3    0    0  0.71966808017E-01  0.10430749243E+00 -0.21046750494E-01  0.88932684663E+00  0.88000000000E+00 0. -1.
        -11    1    4    4    0    0 -0.15796041855E-01 -0.61639864510E-01  0.20330094496E-01  0.66802407878E-01  0.51100000000E-03 0.  1.
         11    1    4    4    0    0 -0.57376559340E-01 -0.42990460264E-01  0.15177440250E-01  0.73286185935E-01  0.51100000000E-03 0. -1.
</event>
<event>
 8    1  0.2943605E+004  0.1043930E+01  0.7957747E-01            NaN
         13   -1    0    0    0    0  0.00000000000E+00  0.00000000000E+00  0.74505805969E-08  0.10566000000E+00  0.10566000000E+00 0. -1.
     999900   -1    0    0    0    0 -0.00000000000E+00 -0.00000000000E+00 -0.74505805969E-08  0.93827000000E+00  0.93827000000E+00 0.  1.
     999902    2    1    2    0    0  0.21176144926E-02  0.13464411503E-02 -0.13668529194E-01  0.10300330260E+01  0.10299392744E+01 0.  0.
     999903    2    3    3    0    0 -0.37459637717E-01 -0.18468992483E-01  0.12379026134E+00  0.13826291587E+00  0.45257893886E-01 0.  0.
         14    1    1    2    0    0 -0.21176144926E-02 -0.13464411503E-02  0.13668529194E-01  0.13896973960E-01  0.00000000000E+00 0. -1.
     999901    1    3    3    0    0  0.39577252210E-01  0.19815433633E-01 -0.13745879054E+00  0.89177011017E+00  0.88000000000E+00 0.  1.
        -11    1    4    4    0    0  0.10273947568E-01 -0.28290923939E-02  0.14706426883E-01  0.18168595848E-01  0.51100000000E-03 0. -1.
         11    1    4    4    0    0 -0.47733585286E-01 -0.15639900089E-01  0.10908383446E+00  0.12009432002E+00  0.51100000000E-03 0.  1.
</event>
<event>
 8    1  0.2943605E+004  0.1043930E+01  0.7957747E-01            NaN
         13   -1    0    0    0    0  0.00000000000E+00  0.00000000000E+00  0.74505805969E-08  0.10566000000E+00  0.10566000000E+00 0. -1.
     999900   -1    0    0    0    0 -0.00000000000E+00 -0.00000000000E+00 -0.74505805969E-08  0.93827000000E+00  0.93827000000E+00 0.  1.
     999902    2    1    2    0    0 -0.62493734559E-02  0.70128516049E-02 -0.10974378589E-01  0.10294845252E+01  0.10293831725E+01 0.  0.
     999903    2    3    3    0    0  0.11946492385E+00  0.25118203020E-01  0.47236700486E-01  0.13846240539E+00  0.45141330080E-01 0.  0.
         14    1    1    2    0    0  0.62493734559E-02 -0.70128516049E-02  0.10974378589E-01  0.14445474780E-01  0.00000000000E+00 0.  1.
     999901    1    3    3    0    0 -0.12571429730E+00 -0.18105351415E-01 -0.58211079074E-01  0.89102211983E+00  0.88000000000E+00 0. -1.
        -11    1    4    4    0    0  0.71363866944E-01  0.51095968602E-02  0.48346729691E-01  0.86351472936E-01  0.51100000000E-03 0.  1.
         11    1    4    4    0    0  0.48101056902E-01  0.20008606159E-01 -0.11100292055E-02  0.52110932456E-01  0.51100000000E-03 0. -1.
</event>
<event>
 7    1  0.2943605E+004  0.1043930E+01  0.7957747E-01            NaN
         13   -1    0    0    0    0  0.00000000000E+00  0.00000000000E+00  0.74505805969E-08  0.10566000000E+00  0.10566000000E+00 0.  1.
     999900   -1    0    0    0    0 -0.00000000000E+00 -0.00000000000E+00 -0.74505805969E-08  0.93827000000E+00  0.93827000000E+00 0.  1.
     999903    2    1    2    0    0  0.75773714606E-01 -0.15842242146E-01  0.79125008882E-01  0.11925206194E+00  0.44358254991E-01 0.  0.
         14    1    1    2    0    0 -0.14462162698E-01 -0.20100326787E-02 -0.38784955481E-01  0.41442335274E-01  0.00000000000E+00 0. -1.
     999901    1    1    2    0    0 -0.61311551908E-01  0.17852274825E-01 -0.40340053402E-01  0.88323560278E+00  0.88000000000E+00 0.  1.
        -11    1    3    3    0    0  0.19074619400E-01 -0.22878608633E-01  0.40532457712E-01  0.50303211502E-01  0.51100000000E-03 0. -1.
         11    1    3    3    0    0  0.56699095206E-01  0.70363664862E-02  0.38592551171E-01  0.68948850442E-01  0.51100000000E-03 0.  1.
</event>
<event>
 8    1  0.2943605E+004  0.1043930E+01  0.7957747E-01            NaN
         13   -1    0    0    0    0  0.00000000000E+00  0.00000000000E+00  0.74505805969E-08  0.10566000000E+00  0.10566000000E+00 0.  1.
     999900   -1    0    0    0    0 -0.00000000000E+00 -0.00000000000E+00 -0.74505805969E-08  0.93827000000E+00  0.93827000000E+00 0. -1.
     999902    2    1    2    0    0  0.30477017621E-03 -0.71806057274E-02  0.11597250867E-01  0.10302863124E+01  0.10301959694E+01 0.  0.
     999903    2    3    3    0    0  0.20942953988E-01  0.12006786083E+00 -0.49394470653E-01  0.13880546743E+00  0.44409971078E-01 0.  0.
         14    1    1    2    0    0 -0.30477017621E-03  0.71806057274E-02 -0.11597250867E-01  0.13643687593E-01  0.00000000000E+00 0.  1.
     999901    1    3    3    0    0 -0.20638183812E-01 -0.12724846655E+00  0.60991721520E-01  0.89148084498E+00  0.88000000000E+00 0.  1.
        -11    1    4    4    0    0  0.33971211441E-01  0.68217905458E-01 -0.27222929930E-01  0.80926354588E-01  0.51100000000E-03 0.  1.
         11    1    4    4    0    0 -0.13028257453E-01  0.51849955369E-01 -0.22171540723E-01  0.57879112839E-01  0.51100000000E-03 0. -1.
</event>
<event>
 8    1  0.2943605E+004  0.1043930E+01  0.7957747E-01            NaN
         13   -1    0    0    0    0  0.00000000000E+00  0.00000000000E+00  0.74505805969E-08  0.10566000000E+00  0.10566000000E+00 0. -1.
     999900   -1    0    0    0    0 -0.00000000000E+00 -0.00000000000E+00 -0.74505805969E-08  0.93827000000E+00  0.93827000000E+00 0.  1.
     999902    2    1    2    0    0  0.63269787247E-02  0.11195537882E-01  0.49738315871E-02  0.10301419715E+01  0.10300496938E+01 0.  0.
     999903    2    3    3    0    0  0.11043436132E+00  0.44006743336E-01  0.62116511827E-01  0.14155871251E+00  0.45255567909E-01 0.  0.
         14    1    1    2    0    0 -0.63269787247E-02 -0.11195537882E-01 -0.49738315871E-02  0.13788028464E-01  0.00000000000E+00 0.  1.
     999901    1    3    3    0    0 -0.10410738260E+00 -0.32811205454E-01 -0.57142680240E-01  0.88858325903E+00  0.88000000000E+00 0. -1.
        -11    1    4    4    0    0  0.73209059227E-01  0.24230997789E-01  0.62715511678E-01  0.99399215957E-01  0.51100000000E-03 0. -1.
         11    1    4    4    0    0  0.37225302094E-01  0.19775745547E-01 -0.59899985010E-03  0.42159496555E-01  0.51100000000E-03 0.  1.
</event>
<event>
 8    1  0.2943605E+004  0.1043930E+01  0.7957747E-01            NaN
         13   -1    0    0    0    0  0.00000000000E+00  0.00000000000E+00  0.74505805969E-08  0.10566000000E+00  0.10566000000E+00 0. -1.
     999900   -1    0    0    0    0 -0.00000000000E+00 -0.00000000000E+00 -0.74505805969E-08  0.93827000000E+00  0.93827000000E+00 0. -1.
     999902    2    1    2    0    0  0.23455474254E-02 -0.14742145121E-01 -0.82102000170E-02  0.10268935737E+01  0.10267522447E+01 0.  0.
     999903    2    3    3    0    0  0.10407077534E+00 -0.43583218835E-01 -0.63780309718E-01  0.13882383176E+00  0.49738366614E-01 0.  0.
         14    1    1    2    0    0 -0.23455474254E-02  0.14742145121E-01  0.82102000170E-02  0.17036426263E-01  0.00000000000E+00 0. -1.
     999901    1    3    3    0    0 -0.10172522791E+00  0.28841073714E-01  0.55570109701E-01  0.88806974198E+00  0.88000000000E+00 0.  1.
        -11    1    4    4    0    0  0.55631991894E-01 -0.18829835492E-01 -0.60507206557E-01  0.84325941400E-01  0.51100000000E-03 0. -1.
         11    1    4    4    0    0  0.48438783441E-01 -0.24753383343E-01 -0.32731031617E-02  0.54497890358E-01  0.51100000000E-03 0.  1.
</event>
<event>
 8    1  0.2943605E+004  0.1043930E+01  0.7957747E-01            NaN
         13   -1    0    0    0    0  0.00000000000E+00  0.00000000000E+00  0.74505805969E-08  0.10566000000E+00  0.10566000000E+00 0.  1.
     999900   -1    0    0    0    0 -0.00000000000E+00 -0.00000000000E+00 -0.74505805969E-08  0.93827000000E+00  0.93827000000E+00 0.  1.
     999902    2    1    2    0    0 -0.12510770768E-02 -0.12498658196E-02  0.13227416072E-01  0.10305848925E+01  0.10304984856E+01 0.  0.
     999903    2    3    3    0    0 -0.56959552379E-01  0.11983608826E+00 -0.84076626564E-02  0.14028532542E+00  0.44768349094E-01 0.  0.
         14    1    1    2    0    0  0.12510770768E-02  0.12498658196E-02 -0.13227416072E-01  0.13345107507E-01  0.00000000000E+00 0. -1.
     999901    1    3    3    0    0  0.55708475303E-01 -0.12108595408E+00  0.21635078729E-01  0.89029956707E+00  0.88000000000E+00 0.  1.
        -11    1    4    4    0    0 -0.80291368881E-03  0.37585680240E-01 -0.14986074793E-01  0.40474332462E-01  0.51100000000E-03 0. -1.
         11    1    4    4    0    0 -0.56156638691E-01  0.82250408020E-01  0.65784121361E-02  0.99810992960E-01  0.51100000000E-03 0.  1.
</event>
<event>
 8    1  0.2943605E+004  0.1043930E+01  0.7957747E-01            NaN
         13   -1    0    0    0    0  0.00000000000E+00  0.00000000000E+00  0.74505805969E-08  0.10566000000E+00  0.10566000000E+00 0. -1.
     999900   -1    0    0    0    0 -0.00000000000E+00 -0.00000000000E+00 -0.74505805969E-08  0.93827000000E+00  0.93827000000E+00 0. -1.
     999902    2    1    2    0    0 -0.16595299799E-01 -0.11085106596E-01 -0.24055458819E-04  0.10239729425E+01  0.10237784443E+01 0.  0.
     999903    2    3    3    0    0 -0.60939046804E-01 -0.11252146871E+00 -0.18730960239E-01  0.13683955249E+00  0.44716505986E-01 0.  0.
         14    1    1    2    0    0  0.16595299799E-01  0.11085106596E-01  0.24055458819E-04  0.19957057457E-01  0.00000000000E+00 0. -1.
     999901    1    3    3    0    0  0.44343747005E-01  0.10143636212E+00  0.18706904781E-01  0.88713339005E+00  0.88000000000E+00 0. -1.
        -11    1    4    4    0    0 -0.46259686430E-02 -0.34081961281E-01 -0.20906542793E-01  0.40253252331E-01  0.51100000000E-03 0. -1.
         11    1    4    4    0    0 -0.56313078161E-01 -0.78439507433E-01  0.21755825534E-02  0.96586300161E-01  0.51100000000E-03 0.  1.
</event>
<event>
 8    1  0.2943605E+004  0.1043930E+01  0.7957747E-01            NaN
         13   -1    0    0    0    0  0.00000000000E+00  0.00000000000E+00  0.74505805969E-08  0.10566000000E+00  0.10566000000E+00 0.  1.
     999900   -1    0    0    0    0 -0.00000000000E+00 -0.00000000000E+00 -0.74505805969E-08  0.93827000000E+00  0.93827000000E+00 0. -1.
     999902    2    1    2    0    0 -0.12090664533E-01  0.44394341507E-02 -0.54967354895E-03  0.10310383405E+01  0.10309577414E+01 0.  0.
     999903    2    3    3    0    0  0.61044888066E-01 -0.96740671038E-01 -0.66592577400E-01  0.13977637680E+00  0.44918018144E-01 0.  0.
         14    1    1    2    0    0  0.12090664533E-01 -0.44394341507E-02  0.54967354895E-03  0.12891659530E-01  0.00000000000E+00 0. -1.
     999901    1    3    3    0    0 -0.73135552599E-01  0.10118010519E+00  0.66042903851E-01  0.89126196367E+00  0.88000000000E+00 0. -1.
        -11    1    4    4    0    0  0.21943489618E-01 -0.63378974718E-01 -0.55811134809E-01  0.87255687853E-01  0.51100000000E-03 0.  1.
         11    1    4    4    0    0  0.39101398448E-01 -0.33361696320E-01 -0.10781442591E-01  0.52520688945E-01  0.51100000000E-03 0. -1.
</event>
<event>
 8    1  0.2943605E+004  0.1043930E+01  0.7957747E-01            NaN
         13   -1    0    0    0    0  0.00000000000E+00  0.00000000000E+00  0.74505805969E-08  0.10566000000E+00  0.10566000000E+00 0. -1.
     999900   -1    0    0    0    0 -0.00000000000E+00 -0.00000000000E+00 -0.74505805969E-08  0.93827000000E+00  0.93827000000E+00 0. -1.
     999902    2    1    2    0    0 -0.23241994764E-02  0.91140931433E-02  0.95549082742E-02  0.10305223578E+01  0.10304351338E+01 0.  0.
     999903    2    3    3    0    0  0.18006909202E-01  0.11317729356E+00 -0.68256823582E-01  0.14074869598E+00  0.44920517572E-01 0.  0.
         14    1    1    2    0    0  0.23241994764E-02 -0.91140931433E-02 -0.95549082742E-02  0.13407642192E-01  0.00000000000E+00 0.  1.
     999901    1    3    3    0    0 -0.20331108678E-01 -0.10406320042E+00  0.77811731856E-01  0.88977366182E+00  0.88000000000E+00 0.  1.
        -11    1    4    4    0    0  0.15006371119E-01  0.10288437352E+00 -0.41555930512E-01  0.11197116580E+00  0.51100000000E-03 0.  1.
         11    1    4    4    0    0  0.30005380829E-02  0.10292920039E-01 -0.26700893069E-01  0.28777530183E-01  0.51100000000E-03 0. -1.
</event>
<event>
 8    1  0.2943605E+004  0.1043930E+01  0.7957747E-01            NaN
         13   -1    0    0    0    0  0.00000000000E+00  0.00000000000E+00  0.74505805969E-08  0.10566000000E+00  0.10566000000E+00 0.  1.
     999900   -1    0    0    0    0 -0.00000000000E+00 -0.00000000000E+00 -0.74505805969E-08  0.93827000000E+00  0.93827000000E+00 0.  1.
     999902    2    1    2    0    0 -0.43387706624E-03 -0.10520971980E-01 -0.90216831276E-02  0.10300638590E+01  0.10299705256E+01 0.  0.
     999903    2    3    3    0    0  0.23114638627E-01  0.10171868777E+00 -0.81273869633E-01  0.13968604463E+00  0.45008568284E-01 0.  0.
         14    1    1    2    0    0  0.43387706624E-03  0.10520971980E-01  0.90216831276E-02  0.13866141033E-01  0.00000000000E+00 0.  1.
     999901    1    3    3    0    0 -0.23548515693E-01 -0.11223965975E+00  0.72252186506E-01  0.89037781434E+00  0.88000000000E+00 0. -1.
        -11    1    4    4    0    0  0.17537604491E-01  0.15659012935E-01 -0.39303850519E-02  0.23842845993E-01  0.51100000000E-03 0. -1.
         11    1    4    4    0    0  0.55770341354E-02  0.86059674831E-01 -0.77343484581E-01  0.11584319864E+00  0.51100000000E-03 0.  1.
</event>
<event>
 8    1  0.2943605E+004  0.1043930E+01  0.7957747E-01            NaN
         13   -1    0    0    0    0  0.00000000000E+00  0.00000000000E+00  0.74505805969E-08  0.10566000000E+00  0.10566000000E+00 0. -1.
     999900   -1    0    0    0    0 -0.00000000000E+00 -0.00000000000E+00 -0.74505805969E-08  0.93827000000E+00  0.93827000000E+00 0. -1.
     999902    2    1    2    0    0  0.98218548388E-02 -0.17999788462E-01 -0.67662962611E-02  0.10223373165E+01  0.10221092626E+01 0.  0.
     999903    2    3    3    0    0  0.35074969537E-01  0.38507616599E-01 -0.11465270952E+00  0.13359084823E+00  0.44589022270E-01 0.  0.
         14    1    1    2    0    0 -0.98218548388E-02  0.17999788462E-01  0.67662962611E-02  0.21592683535E-01  0.00000000000E+00 0. -1.
     999901    1    3    3    0    0 -0.25253114698E-01 -0.56507405061E-01  0.10788641326E+00  0.88874646823E+00  0.88000000000E+00 0.  1.
        -11    1    4    4    0    0  0.42369000755E-01  0.20447693430E-01 -0.94474605554E-01  0.10554123652E+00  0.51100000000E-03 0. -1.
         11    1    4    4    0    0 -0.72940312184E-02  0.18059923169E-01 -0.20178103967E-01  0.28049611709E-01  0.51100000000E-03 0.  1.
</event>
<event>
 8    1  0.2943605E+004  0.1043930E+01  0.7957747E-01            NaN
         13   -1    0    0    0    0  0.00000000000E+00  0.00000000000E+00  0.74505805969E-08  0.10566000000E+00  0.10566000000E+00 0. -1.
     999900   -1    0    0    0    0 -0.00000000000E+00 -0.00000000000E+00 -0.74505805969E-08  0.93827000000E+00  0.93827000000E+00 0.  1.
     999902    2    1    2    0    0  0.73332758990E-02 -0.76656983988E-02 -0.90235409688E-02  0.10300028984E+01  0.10299087370E+01 0.  0.
     999903    2    3    3    0    0  0.12554319916E+00  0.41501882406E-02 -0.46534740805E-01  0.14122829748E+00  0.44739590834E-01 0.  0.
         14    1    1    2    0    0 -0.73332758990E-02  0.76656983988E-02  0.90235409688E-02  0.13927101600E-01  0.00000000000E+00 0. -1.
     999901    1    3    3    0    0 -0.11820992326E+00 -0.11815886639E-01  0.37511199836E-01  0.88877460092E+00  0.88000000000E+00 0. -1.
        -11    1    4    4    0    0  0.91058653263E-01  0.75712683724E-02 -0.11752781291E-01  0.92127039613E-01  0.51100000000E-03 0. -1.
         11    1    4    4    0    0  0.34484545899E-01 -0.34210801318E-02 -0.34781959513E-01  0.49101257863E-01  0.51100000000E-03 0.  1.
</event>
<event>
 8    1  0.2943605E+004  0.1043930E+01  0.7957747E-01            NaN
         13   -1    0    0    0    0  0.00000000000E+00  0.00000000000E+00  0.74505805969E-08  0.10566000000E+00  0.10566000000E+00 0. -1.
     999900   -1    0    0    0    0 -0.00000000000E+00 -0.00000000000E+00 -0.74505805969E-08  0.93827000000E+00  0.93827000000E+00 0.  1.
     999902    2    1    2    0    0  0.11163874106E-01  0.55820861256E-02  0.56772727381E-02  0.10302178449E+01  0.10301265868E+01 0.  0.
     999903    2    3    3    0    0 -0.54644439237E-01 -0.41642689623E-01  0.11303548284E+00  0.14000062492E+00  0.45858764257E-01 0.  0.
         14    1    1    2    0    0 -0.11163874106E-01 -0.55820861256E-02 -0.56772727381E-02  0.13712155057E-01  0.00000000000E+00 0. -1.
     999901    1    3    3    0    0  0.65808313343E-01  0.47224775749E-01 -0.10735821010E+00  0.89021722002E+00  0.88000000000E+00 0.  1.
        -11    1    4    4    0    0  0.21582459078E-02 -0.99009173045E-02  0.43903850183E-01  0.45061018306E-01  0.51100000000E-03 0. -1.
         11    1    4    4    0    0 -0.56802685145E-01 -0.31741772319E-01  0.69131632654E-01  0.94939606614E-01  0.51100000000E-03 0.  1.
</event>
<event>
 8    1  0.2943605E+004  0.1043930E+01  0.7957747E-01            NaN
         13   -1    0    0    0    0  0.00000000000E+00  0.00000000000E+00  0.74505805969E-08  0.10566000000E+00  0.10566000000E+00 0.  1.
     999900   -1    0    0    0    0 -0.00000000000E+00 -0.00000000000E+00 -0.74505805969E-08  0.93827000000E+00  0.93827000000E+00 0. -1.
     999902    2    1    2    0    0  0.42242311231E-05 -0.11706734345E-02  0.20250472201E-01  0.10236457175E+01  0.10234447238E+01 0.  0.
     999903    2    3    3    0    0  0.41661577799E-01 -0.11806480080E+00 -0.12626535612E-01  0.13433111071E+00  0.47015249126E-01 0.  0.
         14    1    1    2    0    0 -0.42242311231E-05  0.11706734345E-02 -0.20250472201E-01  0.20284282548E-01  0.00000000000E+00 0. -1.
     999901    1    3    3    0    0 -0.41657353568E-01  0.11689412737E+00  0.32877007813E-01  0.88931460674E+00  0.88000000000E+00 0.  1.
        -11    1    4    4    0    0  0.50811556989E-01 -0.11055461523E+00 -0.93191386410E-02  0.12202968794E+00  0.51100000000E-03 0.  1.
         11    1    4    4    0    0 -0.91499791898E-02 -0.75101855677E-02 -0.33073969710E-02  0.12301422770E-01  0.51100000000E-03 0. -1.
</event>
<event>
 8    1  0.2943605E+004  0.1043930E+01  0.7957747E-01            NaN
         13   -1    0    0    0    0  0.00000000000E+00  0.00000000000E+00  0.74505805969E-08  0.10566000000E+00  0.10566000000E+00 0. -1.
     999900   -1    0    0    0    0 -0.00000000000E+00 -0.00000000000E+00 -0.74505805969E-08  0.93827000000E+00  0.93827000000E+00 0. -1.
     999902    2    1    2    0    0  0.22454628034E-02 -0.70221182821E-03  0.14427671409E-01  0.10293117612E+01  0.10292079521E+01 0.  0.
     999903    2    3    3    0    0 -0.79100154048E-01 -0.10379957808E+00  0.20404916477E-01  0.13954667768E+00  0.45008086547E-01 0.  0.
         14    1    1    2    0    0 -0.22454628034E-02  0.70221182821E-03 -0.14427671409E-01  0.14618238845E-01  0.00000000000E+00 0.  1.
     999901    1    3    3    0    0  0.81345616851E-01  0.10309736626E+00 -0.59772450679E-02  0.88976508347E+00  0.88000000000E+00 0.  1.
        -11    1    4    4    0    0 -0.55546060639E-01 -0.55417900326E-01  0.31586651829E-01  0.84584196064E-01  0.51100000000E-03 0.  1.
         11    1    4    4    0    0 -0.23554093409E-01 -0.48381677758E-01 -0.11181735353E-01  0.54962481617E-01  0.51100000000E-03 0. -1.
</event>
<event>
 8    1  0.2943605E+004  0.1043930E+01  0.7957747E-01            NaN
         13   -1    0    0    0    0  0.00000000000E+00  0.00000000000E+00  0.74505805969E-08  0.10566000000E+00  0.10566000000E+00 0.  1.
     999900   -1    0    0    0    0 -0.00000000000E+00 -0.00000000000E+00 -0.74505805969E-08  0.93827000000E+00  0.93827000000E+00 0. -1.
     999902    2    1    2    0    0 -0.84634799691E-02 -0.35661384864E-02  0.69408930180E-02  0.10324181004E+01  0.10323539171E+01 0.  0.
     999903    2    3    3    0    0 -0.12258835691E+00  0.34152742392E-02 -0.57302629967E-01  0.14269878627E+00  0.45163955240E-01 0.  0.
         14    1    1    2    0    0  0.84634799691E-02  0.35661384864E-02 -0.69408930180E-02  0.11511899616E-01  0.00000000000E+00 0. -1.
     999901    1    3    3    0    0  0.11412487694E+00 -0.69814127256E-02  0.64243522985E-01  0.88971931411E+00  0.88000000000E+00 0.  1.
        -11    1    4    4    0    0 -0.49783165014E-01  0.36226484928E-02 -0.48085089853E-01  0.69310346183E-01  0.51100000000E-03 0.  1.
         11    1    4    4    0    0 -0.72805191900E-01 -0.20737425361E-03 -0.92175401146E-02  0.73388440087E-01  0.51100000000E-03 0. -1.
</event>
<event>
 8    1  0.2943605E+004  0.1043930E+01  0.7957747E-01            NaN
         13   -1    0    0    0    0  0.00000000000E+00  0.00000000000E+00  0.74505805969E-08  0.10566000000E+00  0.10566000000E+00 0.  1.
     999900   -1    0    0    0    0 -0.00000000000E+00 -0.00000000000E+00 -0.74505805969E-08  0.93827000000E+00  0.93827000000E+00 0.  1.
     999902    2    1    2    0    0 -0.89892478193E-02 -0.10115812622E-01  0.11986249260E-02  0.10303442375E+01  0.10302546650E+01 0.  0.
     999903    2    3    3    0    0  0.76886492894E-01 -0.10865968588E+00  0.95586381271E-02  0.14065022963E+00  0.44414630555E-01 0.  0.
         14    1    1    2    0    0  0.89892478193E-02  0.10115812622E-01 -0.11986249260E-02  0.13585762513E-01  0.00000000000E+00 0. -1.
     999901    1    3    3    0    0 -0.85875740713E-01  0.98543873255E-01 -0.83600132011E-02  0.88969400786E+00  0.88000000000E+00 0.  1.
        -11    1    4    4    0    0  0.10031585172E-01 -0.28707770624E-01  0.19225501676E-01  0.35981242765E-01  0.51100000000E-03 0. -1.
         11    1    4    4    0    0  0.66854907722E-01 -0.79951915252E-01 -0.96668635488E-02  0.10466898686E+00  0.51100000000E-03 0.  1.
</event>
<event>
 8    1  0.2943605E+004  0.1043930E+01  0.7957747E-01            NaN
         13   -1    0    0    0    0  0.00000000000E+00  0.00000000000E+00  0.74505805969E-08  0.10566000000E+00  0.10566000000E+00 0. -1.
     999900   -1    0    0    0    0 -0.00000000000E+00 -0.00000000000E+00 -0.74505805969E-08  0.93827000000E+00  0.93827000000E+00 0. -1.
     999902    2    1    2    0    0  0.11129046481E-02  0.43742487613E-02  0.12176573051E-01  0.10309437942E+01  0.10308620011E+01 0.  0.
     999903    2    3    3    0    0  0.10584387034E+00  0.50814191831E-01 -0.62408131673E-01  0.14038884272E+00  0.45047145102E-01 0.  0.
         14    1    1    2    0    0 -0.11129046481E-02 -0.43742487613E-02 -0.12176573051E-01  0.12986205768E-01  0.00000000000E+00 0.  1.
     999901    1    3    3    0    0 -0.10473096569E+00 -0.46439943070E-01  0.74584704725E-01  0.89055495151E+00  0.88000000000E+00 0. -1.
        -11    1    4    4    0    0  0.10482605779E-01  0.22997949639E-01 -0.53774973369E-02  0.25845102247E-01  0.51100000000E-03 0. -1.
         11    1    4    4    0    0  0.95361264556E-01  0.27816242192E-01 -0.57030634336E-01  0.11454374047E+00  0.51100000000E-03 0.  1.
</event>
<event>
 7    1  0.2943605E+004  0.1043930E+01  0.7957747E-01            NaN
         13   -1    0    0    0    0  0.00000000000E+00  0.00000000000E+00  0.74505805969E-08  0.10566000000E+00  0.10566000000E+00 0.  1.
     999900   -1    0    0    0    0 -0.00000000000E+00 -0.00000000000E+00 -0.74505805969E-08  0.93827000000E+00  0.93827000000E+00 0. -1.
     999902    2    1    2    0    0  0.26900339326E-02 -0.13526054263E-01 -0.65824189817E-03  0.10301233455E+01  0.10300308166E+01 0.  0.
         14    1    1    2    0    0 -0.26900339326E-02  0.13526054263E-01  0.65824189817E-03  0.13806654514E-01  0.00000000000E+00 0.  1.
     999901    1    3    3    0    0 -0.29429478660E-01 -0.12515060142E+00  0.71966863048E-01  0.89224884232E+00  0.88000000000E+00 0. -1.
        -11    1    3    3    0    0  0.99183036148E-03  0.26083630049E-01 -0.18026546680E-01  0.31726282325E-01  0.51100000000E-03 0.  1.
         11    1    3    3    0    0  0.31127682231E-01  0.85540917109E-01 -0.54598558267E-01  0.10614822084E+00  0.51100000000E-03 0. -1.
</event>
<event>
 8    1  0.2943605E+004  0.1043930E+01  0.7957747E-01            NaN
         13   -1    0    0    0    0  0.00000000000E+00  0.00000000000E+00  0.74505805969E-08  0.10566000000E+00  0.10566000000E+00 0. -1.
     999900   -1    0    0    0    0 -0.00000000000E+00 -0.00000000000E+00 -0.74505805969E-08  0.93827000000E+00  0.93827000000E+00 0.  1.
     999902    2    1    2    0    0 -0.11993129512E-01 -0.39605505163E-03  0.88686102960E-02  0.10290087312E+01  0.10289005416E+01 0.  0.
     999903    2    3    3    0    0 -0.14510036095E-01 -0.13144566009E-01 -0.12898357697E+00  0.13818210107E+00  0.45543486525E-01 0.  0.
         14    1    1    2    0    0  0.11993129512E-01  0.39605505163E-03 -0.88686102960E-02  0.14921268836E-01  0.00000000000E+00 0.  1.
     999901    1    3    3    0    0  0.25169065831E-02  0.12748510957E-01  0.13785218727E+00  0.89082663009E+00  0.88000000000E+00 0. -1.
        -11    1    4    4    0    0  0.10472608100E-01  0.10538555023E-01 -0.45918757393E-01  0.48265205520E-01  0.51100000000E-03 0.  1.
         11    1    4    4    0    0 -0.24982644195E-01 -0.23683121032E-01 -0.83064819578E-01  0.89916895550E-01  0.51100000000E-03 0. -1.
</event>
<event>
 8    1  0.2943605E+004  0.1043930E+01  0.7957747E-01            NaN
         13   -1    0    0    0    0  0.00000000000E+00  0.00000000000E+00  0.74505805969E-08  0.10566000000E+00  0.10566000000E+00 0.  1.
     999900   -1    0    0    0    0 -0.00000000000E+00 -0.00000000000E+00 -0.74505805969E-08  0.93827000000E+00  0.93827000000E+00 0. -1.
     999902    2    1    2    0    0  0.23726327411E-02 -0.10054390659E-01  0.10555963013E-01  0.10291601485E+01  0.10290541593E+01 0.  0.
     999903    2    3    3    0    0 -0.11267787320E+00 -0.67258882421E-01  0.16319277683E-01  0.13981084223E+00  0.45394850021E-01 0.  0.
         14    1    1    2    0    0 -0.23726327411E-02  0.10054390659E-01 -0.10555963013E-01  0.14769851481E-01  0.00000000000E+00 0. -1.
     999901    1    3    3    0    0  0.11505050594E+00  0.57204491761E-01 -0.57633146702E-02  0.88934930629E+00  0.88000000000E+00 0. -1.
        -11    1    4    4    0    0 -0.94833813507E-01 -0.70388677046E-01  0.23318054054E-01  0.12038276790E+00  0.51100000000E-03 0. -1.
         11    1    4    4    0    0 -0.17844059693E-01  0.31297946253E-02 -0.69987763713E-02  0.19428074336E-01  0.51100000000E-03 0.  1.
</event>
<event>
 8    1  0.2943605E+004  0.1043930E+01  0.7957747E-01            NaN
         13   -1    0    0    0    0  0.00000000000E+00  0.00000000000E+00  0.74505805969E-08  0.10566000000E+00  0.10566000000E+00 0.  1.
     999900   -1    0    0    0    0 -0.00000000000E+00 -0.00000000000E+00 -0.74505805969E-08  0.93827000000E+00  0.93827000000E+00 0.  1.
     999902    2    1    2    0    0  0.10011177216E-01  0.52654663615E-02 -0.40788855795E-02  0.10319056034E+01  0.10318355432E+01 0.  0.
     999903    2    3    3    0    0  0.36089658933E-01  0.12545641696E+00 -0.36874713977E-01  0.14274784568E+00  0.44445774576E-01 0.  0.
         14    1    1    2    0    0 -0.10011177216E-01 -0.52654663615E-02  0.40788855795E-02  0.12024396568E-01  0.00000000000E+00 0.  1.
     999901    1    3    3    0    0 -0.26078481717E-01 -0.12019095059E+00  0.32795828397E-01  0.88915775775E+00  0.88000000000E+00 0.  1.
        -11    1    4    4    0    0  0.15785825710E-01  0.90050715918E-01 -0.43752116430E-01  0.10135498283E+00  0.51100000000E-03 0.  1.
         11    1    4    4    0    0  0.20303833224E-01  0.35405701037E-01  0.68774024534E-02  0.41392862851E-01  0.51100000000E-03 0. -1.
</event>
<event>
 8    1  0.2943605E+004  0.1043930E+01  0.7957747E-01            NaN
         13   -1    0    0    0    0  0.00000000000E+00  0.00000000000E+00  0.74505805969E-08  0.10566000000E+00  0.10566000000E+00 0.  1.
     999900   -1    0    0    0    0 -0.00000000000E+00 -0.00000000000E+00 -0.74505805969E-08  0.93827000000E+00  0.93827000000E+00 0.  1.
     999902    2    1    2    0    0 -0.68328973251E-02  0.13971967176E-02 -0.11792035325E-01  0.10302298999E+01  0.10301388033E+01 0.  0.
     999903    2    3    3    0    0  0.50349475907E-01 -0.10527234561E+00 -0.64051854625E-01  0.14041008459E+00  0.44665594140E-01 0.  0.
         14    1    1    2    0    0  0.68328973251E-02 -0.13971967176E-02  0.11792035325E-01  0.13700100059E-01  0.00000000000E+00 0. -1.
     999901    1    3    3    0    0 -0.57182373232E-01  0.10666954233E+00  0.52259819300E-01  0.88981981535E+00  0.88000000000E+00 0.  1.
        -11    1    4    4    0    0  0.43193062426E-01 -0.45481347192E-01 -0.20136287259E-01  0.65878105390E-01  0.51100000000E-03 0. -1.
         11    1    4    4    0    0  0.71564134813E-02 -0.59790998421E-01 -0.43915567366E-01  0.74531979205E-01  0.51100000000E-03 0.  1.
</event>
<event>
 8    1  0.2943605E+004  0.1043930E+01  0.7957747E-01            NaN
         13   -1    0    0    0    0  0.00000000000E+00  0.00000000000E+00  0.74505805969E-08  0.10566000000E+00  0.10566000000E+00 0.  1.
     999900   -1    0    0    0    0 -0.00000000000E+00 -0.00000000000E+00 -0.74505805969E-08  0.93827000000E+00  0.93827000000E+00 0. -1.
     999902    2    1    2    0    0  0.14644426976E-02 -0.37151872967E-03  0.13975519984E-01  0.10298730523E+01  0.10297771148E+01 0.  0.
     999903    2    3    3    0    0  0.42356894279E-01 -0.52020100163E-01  0.11623556471E+00  0.14150551280E+00  0.44865424725E-01 0.  0.
         14    1    1    2    0    0 -0.14644426976E-02  0.37151872967E-03 -0.13975519984E-01  0.14056947656E-01  0.00000000000E+00 0. -1.
     999901    1    3    3    0    0 -0.40892451581E-01  0.51648581434E-01 -0.10226004473E+00  0.88836753954E+00  0.88000000000E+00 0. -1.
        -11    1    4    4    0    0  0.33591702452E-01 -0.17953229940E-01  0.89659065184E-01  0.97415245365E-01  0.51100000000E-03 0.  1.
         11    1    4    4    0    0  0.87651918265E-02 -0.34066870224E-01  0.26576499529E-01  0.44090267439E-01  0.51100000000E-03 0. -1.
</event>
<event>
 8    1  0.2943605E+004  0.1043930E+01  0.7957747E-01            NaN
         13   -1    0    0    0    0  0.00000000000E+00  0.00000000000E+00  0.74505805969E-08  0.10566000000E+00  0.10566000000E+00 0.  1.
     999900   -1    0    0    0    0 -0.00000000000E+00 -0.00000000000E+00 -0.74505805969E-08  0.93827000000E+00  0.93827000000E+00 0.  1.
     999902    2    1    2    0    0 -0.12143295035E-01  0.65309701522E-02  0.12217994965E-01  0.10255073893E+01  0.10253419005E+01 0.  0.
     999903    2    3    3    0    0 -0.82552716929E-01  0.43280268614E-03  0.10153556969E+00  0.13816737354E+00  0.44335232137E-01 0.  0.
         14    1    1    2    0    0  0.12143295035E-01 -0.65309701522E-02 -0.12217994965E-01  0.18422610738E-01  0.00000000000E+00 0. -1.
     999901    1    3    3    0    0  0.70409421894E-01  0.60981674660E-02 -0.89317574728E-01  0.88734001572E+00  0.88000000000E+00 0. -1.
        -11    1    4    4    0    0 -0.78060122095E-01  0.48743453237E-02  0.66797323695E-01  0.10285565360E+00  0.51100000000E-03 0.  1.
         11    1    4    4    0    0 -0.44925948345E-02 -0.44415426375E-02  0.34738245998E-01  0.35311719944E-01  0.51100000000E-03 0. -1.
</event>
<event>
 8    1  0.2943605E+004  0.1043930E+01  0.7957747E-01            NaN
         13   -1    0    0    0    0  0.00000000000E+00  0.00000000000E+00  0.74505805969E-08  0.10566000000E+00  0.10566000000E+00 0. -1.
     999900   -1    0    0    0    0 -0.00000000000E+00 -0.00000000000E+00 -0.74505805969E-08  0.93827000000E+00  0.93827000000E+00 0. -1.
     999902    2    1    2    0    0 -0.19886690328E-02  0.99663095428E-02  0.87653668828E-02  0.10305093522E+01  0.10304219578E+01 0.  0.
     999903    2    3    3    0    0  0.60420614126E-01  0.61577301841E-01 -0.10303909962E+00  0.13974627940E+00  0.38334734153E-01 0.  0.
         14    1    1    2    0    0  0.19886690328E-02 -0.99663095428E-02 -0.87653668828E-02  0.13420647787E-01  0.00000000000E+00 0.  1.
     999901    1    3    3    0    0 -0.62409283159E-01 -0.51610992298E-01  0.11180446651E+00  0.89076307281E+00  0.88000000000E+00 0.  1.
        -11    1    4    4    0    0  0.31009186599E-03  0.19900894545E-01 -0.13169332511E-01  0.23871200230E-01  0.51100000000E-03 0.  1.
         11    1    4    4    0    0  0.60110522260E-01  0.41676407296E-01 -0.89869767113E-01  0.11587507917E+00  0.51100000000E-03 0. -1.
</event>
<event>
 8    1  0.2943605E+004  0.1043930E+01  0.7957747E-01            NaN
         13   -1    0    0    0    0  0.00000000000E+00  0.00000000000E+00  0.74505805969E-08  0.10566000000E+00  0.10566000000E+00 0. -1.
     999900   -1    0    0    0    0 -0.00000000000E+00 -0.00000000000E+00 -0.74505805969E-08  0.93827000000E+00  0.93827000000E+00 0.  1.
     999902    2    1    2    0    0  0.63774917074E-02 -0.96576358534E-02 -0.71419601040E-02  0.10303303704E+01  0.10302406138E+01 0.  0.
     999903    2    3    3    0    0 -0.63499070402E-01 -0.11800019370E+00  0.66563608551E-02  0.14082981536E+00  0.42808318114E-01 0.  0.
         14    1    1    2    0    0 -0.63774917074E-02  0.96576358534E-02  0.71419601040E-02  0.13599629586E-01  0.00000000000E+00 0. -1.
     999901    1    3    3    0    0  0.69876562110E-01  0.10834255785E+00 -0.13798320959E-01  0.88950055505E+00  0.88000000000E+00 0.  1.
        -11    1    4    4    0    0 -0.60761960658E-01 -0.87215320360E-01  0.18183585805E-01  0.10783984367E+00  0.51100000000E-03 0.  1.
         11    1    4    4    0    0 -0.27371097445E-02 -0.30784873342E-01 -0.11527224950E-01  0.32989971696E-01  0.51100000000E-03 0. -1.
</event>
<event>
 8    1  0.2943605E+004  0.1043930E+01  0.7957747E-01            NaN
         13   -1    0    0    0    0  0.00000000000E+00  0.00000000000E+00  0.74505805969E-08  0.10566000000E+00  0.10566000000E+00 0. -1.
     999900   -1    0    0    0    0 -0.00000000000E+00 -0.00000000000E+00 -0.74505805969E-08  0.93827000000E+00  0.93827000000E+00 0. -1.
     999902    2    1    2    0    0 -0.88950136777E-02  0.10337664017E-01  0.28585246683E-02  0.10299958790E+01  0.10299016220E+01 0.  0.
     999903    2    3    3    0    0 -0.18903785683E-01  0.99517870883E-01 -0.86623597466E-01  0.14091751628E+00  0.45748650463E-01 0.  0.
         14    1    1    2    0    0  0.88950136777E-02 -0.10337664017E-01 -0.28585246683E-02  0.13934121032E-01  0.00000000000E+00 0. -1.
     999901    1    3    3    0    0  0.10008772006E-01 -0.89180206867E-01  0.89482122134E-01  0.88907836269E+00  0.88000000000E+00 0.  1.
        -11    1    4    4    0    0 -0.62790396050E-04  0.87258193352E-01 -0.77309014141E-01  0.11658019145E+00  0.51100000000E-03 0. -1.
         11    1    4    4    0    0 -0.18840995287E-01  0.12259677531E-01 -0.93145833247E-02  0.24337324835E-01  0.51100000000E-03 0.  1.
</event>
<event>
 8    1  0.2943605E+004  0.1043930E+01  0.7957747E-01            NaN
         13   -1    0    0    0    0  0.00000000000E+00  0.00000000000E+00  0.74505805969E-08  0.10566000000E+00  0.10566000000E+00 0.  1.
     999900   -1    0    0    0    0 -0.00000000000E+00 -0.00000000000E+00 -0.74505805969E-08  0.93827000000E+00  0.93827000000E+00 0. -1.
     999902    2    1    2    0    0 -0.75006373185E-02 -0.10181903016E-01  0.87323473957E-02  0.10285617015E+01  0.10284468820E+01 0.  0.
     999903    2    3    3    0    0 -0.73440172770E-01 -0.81933532854E-01  0.75605770015E-01  0.14066059583E+00  0.44301331538E-01 0.  0.
         14    1    1    2    0    0  0.75006373185E-02  0.10181903016E-01 -0.87323473957E-02  0.15368298548E-01  0.00000000000E+00 0. -1.
     999901    1    3    3    0    0  0.65939535451E-01  0.71751629838E-01 -0.66873422620E-01  0.88790110563E+00  0.88000000000E+00 0. -1.
        -11    1    4    4    0    0  0.59375865763E-02 -0.54023010543E-02  0.78696122147E-02  0.11253075510E-01  0.51100000000E-03 0.  1.
         11    1    4    4    0    0 -0.79377759346E-01 -0.76531231800E-01  0.67736157801E-01  0.12940752032E+00  0.51100000000E-03 0. -1.
</event>
<event>
 8    1  0.2943605E+004  0.1043930E+01  0.7957747E-01            NaN
         13   -1    0    0    0    0  0.00000000000E+00  0.00000000000E+00  0.74505805969E-08  0.10566000000E+00  0.10566000000E+00 0.  1.
     999900   -1    0    0    0    0 -0.00000000000E+00 -0.00000000000E+00 -0.74505805969E-08  0.93827000000E+00  0.93827000000E+00 0.  1.
     999902    2    1    2    0    0 -0.13239677315E-01  0.45957627345E-02 -0.92543442179E-03  0.10298848400E+01  0.10297890644E+01 0.  0.
     999903    2    3    3    0    0  0.11246692669E+00 -0.65886135599E-01 -0.80983309347E-02  0.13813302547E+00  0.45003969803E-01 0.  0.
         14    1    1    2    0    0  0.13239677315E-01 -0.45957627345E-02  0.92543442179E-03  0.14045159998E-01  0.00000000000E+00 0.  1.
     999901    1    3    3    0    0 -0.12570660400E+00  0.70481898333E-01  0.71728965129E-02  0.89175181454E+00  0.88000000000E+00 0. -1.
        -11    1    4    4    0    0  0.87637800877E-01 -0.41319286351E-01 -0.23895949345E-01  0.99794514294E-01  0.51100000000E-03 0.  1.
         11    1    4    4    0    0  0.24829125810E-01 -0.24566849248E-01  0.15797618411E-01  0.38338511172E-01  0.51100000000E-03 0. -1.
</event>
<event>
 8    1  0.2943605E+004  0.1043930E+01  0.7957747E-01            NaN
         13   -1    0    0    0    0  0.00000000000E+00  0.00000000000E+00  0.74505805969E-08  0.10566000000E+00  0.10566000000E+00 0.  1.
     999900   -1    0    0    0    0 -0.00000000000E+00 -0.00000000000E+00 -0.74505805969E-08  0.93827000000E+00  0.93827000000E+00 0.  1.
     999902    2    1    2    0    0 -0.72704498739E-02 -0.79031685053E-02 -0.83825443420E-02  0.10303069841E+01  0.10302169164E+01 0.  0.
     999903    2    3    3    0    0  0.12074927975E+00  0.24672880162E-01  0.45692815169E-01  0.13880578124E+00  0.44610222716E-01 0.  0.
         14    1    1    2    0    0  0.72704498739E-02  0.79031685053E-02  0.83825443420E-02  0.13623015945E-01  0.00000000000E+00 0.  1.
     999901    1    3    3    0    0 -0.12801972962E+00 -0.32576048667E-01 -0.54075359511E-01  0.89150120282E+00  0.88000000000E+00 0.  1.
        -11    1    4    4    0    0  0.92349184840E-01  0.45230618960E-02  0.47469115540E-01  0.10393463369E+00  0.51100000000E-03 0.  1.
         11    1    4    4    0    0  0.28400094911E-01  0.20149818266E-01 -0.17763003705E-02  0.34871147545E-01  0.51100000000E-03 0. -1.
</event>
<event>
 8    1  0.2943605E+004  0.1043930E+01  0.7957747E-01            NaN
         13   -1    0    0    0    0  0.00000000000E+00  0.00000000000E+00  0.74505805969E-08  0.10566000000E+00  0.10566000000E+00 0. -1.
     999900   -1    0    0    0    0 -0.00000000000E+00 -0.00000000000E+00 -0.74505805969E-08  0.93827000000E+00  0.93827000000E+00 0.  1.
     999902    2    1    2    0    0  0.74238871420E-02 -0.87895309870E-02  0.11027750528E-01  0.10279932112E+01  0.10278696712E+01 0.  0.
     999903    2    3    3    0    0 -0.57290572973E-01  0.65471811249E-01 -0.94319064684E-01  0.13625296889E+00  0.45825950598E-01 0.  0.
         14    1    1    2    0    0 -0.74238871420E-02  0.87895309870E-02 -0.11027750528E-01  0.15936788792E-01  0.00000000000E+00 0.  1.
     999901    1    3    3    0    0  0.64714460115E-01 -0.74261342236E-01  0.10534681521E+00  0.89174024232E+00  0.88000000000E+00 0. -1.
        -11    1    4    4    0    0 -0.26309952271E-01  0.59153610522E-01 -0.75485732134E-01  0.99447071868E-01  0.51100000000E-03 0. -1.
         11    1    4    4    0    0 -0.30980620702E-01  0.63182007270E-02 -0.18833332549E-01  0.36805897020E-01  0.51100000000E-03 0.  1.
</event>
<event>
 8    1  0.2943605E+004  0.1043930E+01  0.7957747E-01            NaN
         13   -1    0    0    0    0  0.00000000000E+00  0.00000000000E+00  0.74505805969E-08  0.10566000000E+00  0.10566000000E+00 0.  1.
     999900   -1    0    0    0    0 -0.00000000000E+00 -0.00000000000E+00 -0.74505805969E-08  0.93827000000E+00  0.93827000000E+00 0. -1.
     999902    2    1    2    0    0 -0.81123277237E-02 -0.71275341958E-02 -0.83612963629E-02  0.10302726620E+01  0.10301821369E+01 0.  0.
     999903    2    3    3    0    0  0.49732479558E-01 -0.74024739670E-01 -0.99634001110E-01  0.14114277020E+00  0.45181476257E-01 0.  0.
         14    1    1    2    0    0  0.81123277237E-02  0.71275341958E-02  0.83612963629E-02  0.13657338016E-01  0.00000000000E+00 0.  1.
     999901    1    3    3    0    0 -0.57844807282E-01  0.66897205474E-01  0.91272704747E-01  0.88912989178E+00  0.88000000000E+00 0.  1.
        -11    1    4    4    0    0  0.31613797639E-01 -0.15017019578E-01 -0.19758714674E-01  0.40194663883E-01  0.51100000000E-03 0. -1.
         11    1    4    4    0    0  0.18118681919E-01 -0.59007720092E-01 -0.79875286436E-01  0.10094810632E+00  0.51100000000E-03 0.  1.
</event>
<event>
 8    1  0.2943605E+004  0.1043930E+01  0.7957747E-01            NaN
         13   -1    0    0    0    0  0.00000000000E+00  0.00000000000E+00  0.74505805969E-08  0.10566000000E+00  0.10566000000E+00 0.  1.
     999900   -1    0    0    0    0 -0.00000000000E+00 -0.00000000000E+00 -0.74505805969E-08  0.93827000000E+00  0.93827000000E+00 0. -1.
     999902    2    1    2    0    0  0.58051184311E-03 -0.88170375834E-02 -0.95539445569E-02  0.10309163532E+01  0.10308342119E+01 0.  0.
     999903    2    3    3    0    0  0.11283150808E+00  0.57234011205E-01  0.39688210885E-01  0.13996864597E+00  0.44826181147E-01 0.  0.
         14    1    1    2    0    0 -0.58051184311E-03  0.88170375834E-02  0.95539445569E-02  0.13013646773E-01  0.00000000000E+00 0.  1.
     999901    1    3    3    0    0 -0.11225099624E+00 -0.66051048788E-01 -0.49242155442E-01  0.89094770726E+00  0.88000000000E+00 0.  1.
        -11    1    4    4    0    0  0.89361442407E-01  0.32247689137E-01  0.11720327681E-01  0.95723602344E-01  0.51100000000E-03 0.  1.
         11    1    4    4    0    0  0.23470065671E-01  0.24986322068E-01  0.27967883204E-01  0.44245043621E-01  0.51100000000E-03 0. -1.
</event>
<event>
 8    1  0.2943605E+004  0.1043930E+01  0.7957747E-01            NaN
         13   -1    0    0    0    0  0.00000000000E+00  0.00000000000E+00  0.74505805969E-08  0.10566000000E+00  0.10566000000E+00 0.  1.
     999900   -1    0    0    0    0 -0.00000000000E+00 -0.00000000000E+00 -0.74505805969E-08  0.93827000000E+00  0.93827000000E+00 0. -1.
     999902    2    1    2    0    0 -0.51155869192E-02  0.12236306439E-01 -0.34589503190E-02  0.10302237692E+01  0.10301325905E+01 0.  0.
     999903    2    3    3    0    0 -0.10080809330E+00 -0.16227854417E-01 -0.85142813608E-01  0.14081974531E+00  0.46425068953E-01 0.  0.
         14    1    1    2    0    0  0.51155869192E-02 -0.12236306439E-01  0.34589503190E-02  0.13706230777E-01  0.00000000000E+00 0. -1.
     999901    1    3    3    0    0  0.95692506377E-01  0.28464160856E-01  0.81683863289E-01  0.88940402391E+00  0.88000000000E+00 0. -1.
        -11    1    4    4    0    0 -0.25247661846E-01 -0.16940016762E-01 -0.52621042146E-02  0.30860321748E-01  0.51100000000E-03 0. -1.
         11    1    4    4    0    0 -0.75560431450E-01  0.71216234488E-03 -0.79880709394E-01  0.10995942356E+00  0.51100000000E-03 0.  1.
</event>
<event>
 8    1  0.2943605E+004  0.1043930E+01  0.7957747E-01            NaN
         13   -1    0    0    0    0  0.00000000000E+00  0.00000000000E+00  0.74505805969E-08  0.10566000000E+00  0.10566000000E+00 0. -1.
     999900   -1    0    0    0    0 -0.00000000000E+00 -0.00000000000E+00 -0.74505805969E-08  0.93827000000E+00  0.93827000000E+00 0.  1.
     999902    2    1    2    0    0 -0.30541456661E-02 -0.15511686750E-01  0.44848568247E-02  0.10274966749E+01  0.10273652529E+01 0.  0.
     999903    2    3    3    0    0  0.80049619979E-02  0.68526836236E-01 -0.10853354636E+00  0.13622907390E+00  0.44931316360E-01 0.  0.
         14    1    1    2    0    0  0.30541456661E-02  0.15511686750E-01 -0.44848568247E-02  0.16433325054E-01  0.00000000000E+00 0.  1.
     999901    1    3    3    0    0 -0.11059107664E-01 -0.84038522986E-01  0.11301840319E+00  0.89126760104E+00  0.88000000000E+00 0. -1.
        -11    1    4    4    0    0  0.10906196831E-01  0.63985277678E-01 -0.63274984743E-01  0.90647921675E-01  0.51100000000E-03 0. -1.
         11    1    4    4    0    0 -0.29012348336E-02  0.45415585581E-02 -0.45258561619E-01  0.45581152229E-01  0.51100000000E-03 0.  1.
</event>
<event>
 7    1  0.2943605E+004  0.1043930E+01  0.7957747E-01            NaN
         13   -1    0    0    0    0  0.00000000000E+00  0.00000000000E+00  0.74505805969E-08  0.10566000000E+00  0.10566000000E+00 0.  1.
     999900   -1    0    0    0    0 -0.00000000000E+00 -0.00000000000E+00 -0.74505805969E-08  0.93827000000E+00  0.93827000000E+00 0. -1.
     999903    2    1    2    0    0 -0.63826750603E-01 -0.86497789027E-01 -0.42883092347E-01  0.12229373467E+00  0.39510458513E-01 0.  0.
         14    1    1    2    0    0  0.19295296023E-01 -0.21990085577E-01 -0.13182256650E-01  0.32088069476E-01  0.00000000000E+00 0.  1.
     999901    1    1    2    0    0  0.44531454580E-01  0.10848787460E+00  0.56065348996E-01  0.88954819585E+00  0.88000000000E+00 0.  1.
        -11    1    3    3    0    0 -0.13916267647E-01 -0.43099910434E-01 -0.31523563079E-01  0.55183882927E-01  0.51100000000E-03 0.  1.
         11    1    3    3    0    0 -0.49910482956E-01 -0.43397878593E-01 -0.11359529268E-01  0.67109851746E-01  0.51100000000E-03 0. -1.
</event>
<event>
 8    1  0.2943605E+004  0.1043930E+01  0.7957747E-01            NaN
         13   -1    0    0    0    0  0.00000000000E+00  0.00000000000E+00  0.74505805969E-08  0.10566000000E+00  0.10566000000E+00 0.  1.
     999900   -1    0    0    0    0 -0.00000000000E+00 -0.00000000000E+00 -0.74505805969E-08  0.93827000000E+00  0.93827000000E+00 0.  1.
     999902    2    1    2    0    0  0.11461277369E-01 -0.16371666569E-01 -0.69178603211E-02  0.10227817344E+01  0.10225630676E+01 0.  0.
     999903    2    3    3    0    0  0.12438161496E+00 -0.24236389747E-01 -0.14220940989E-01  0.13550151291E+00  0.45828333058E-01 0.  0.
         14    1    1    2    0    0 -0.11461277369E-01  0.16371666569E-01  0.69178603211E-02  0.21148265570E-01  0.00000000000E+00 0. -1.
     999901    1    3    3    0    0 -0.11292033759E+00  0.78647231775E-02  0.73030806679E-02  0.88728022152E+00  0.88000000000E+00 0.  1.
        -11    1    4    4    0    0  0.17047187842E-01 -0.17668138940E-01 -0.13372668843E-01  0.27961744221E-01  0.51100000000E-03 0. -1.
         11    1    4    4    0    0  0.10733442712E+00 -0.65682508067E-02 -0.84827214626E-03  0.10753976869E+00  0.51100000000E-03 0.  1.
</event>
<event>
 8    1  0.2943605E+004  0.1043930E+01  0.7957747E-01            NaN
         13   -1    0    0    0    0  0.00000000000E+00  0.00000000000E+00  0.74505805969E-08  0.10566000000E+00  0.10566000000E+00 0. -1.
     999900   -1    0    0    0    0 -0.00000000000E+00 -0.00000000000E+00 -0.74505805969E-08  0.93827000000E+00  0.93827000000E+00 0. -1.
     999902    2    1    2    0    0 -0.65001727653E-02  0.72578041019E-02 -0.91683503916E-02  0.10305514121E+01  0.10304645682E+01 0.  0.
     999903    2    3    3    0    0  0.21387354983E-01  0.11624141456E+00  0.62227458157E-01  0.14052191646E+00  0.43642491292E-01 0.  0.
         14    1    1    2    0    0  0.65001727653E-02 -0.72578041019E-02  0.91683503916E-02  0.13378587940E-01  0.00000000000E+00 0.  1.
     999901    1    3    3    0    0 -0.27887527749E-01 -0.10898361046E+00 -0.71395808549E-01  0.89002949560E+00  0.88000000000E+00 0. -1.
        -11    1    4    4    0    0  0.30455588175E-01  0.10851190224E+00  0.49552851393E-01  0.12311832513E+00  0.51100000000E-03 0.  1.
         11    1    4    4    0    0 -0.90682331921E-02  0.77295123164E-02  0.12674606764E-01  0.17403591339E-01  0.51100000000E-03 0. -1.
</event>
<event>
 8    1  0.2943605E+004  0.1043930E+01  0.7957747E-01            NaN
         13   -1    0    0    0    0  0.00000000000E+00  0.00000000000E+00  0.74505805969E-08  0.10566000000E+00  0.10566000000E+00 0.  1.
     999900   -1    0    0    0    0 -0.00000000000E+00 -0.00000000000E+00 -0.74505805969E-08  0.93827000000E+00  0.93827000000E+00 0. -1.
     999902    2    1    2    0    0 -0.79614770364E-02  0.84480446152E-02 -0.73530818128E-02  0.10301887342E+01  0.10300970855E+01 0.  0.
     999903    2    3    3    0    0 -0.23304952100E-01 -0.12876133159E+00 -0.16732231191E-01  0.13937461013E+00  0.44974582630E-01 0.  0.
         14    1    1    2    0    0  0.79614770364E-02 -0.84480446152E-02  0.73530818128E-02  0.13741265828E-01  0.00000000000E+00 0.  1.
     999901    1    3    3    0    0  0.15343475063E-01  0.13720937621E+00  0.93791493781E-02  0.89081412404E+00  0.88000000000E+00 0. -1.
        -11    1    4    4    0    0 -0.33212244735E-01 -0.58809248101E-01 -0.46939142917E-02  0.67704319027E-01  0.51100000000E-03 0. -1.
         11    1    4    4    0    0  0.99072926355E-02 -0.69952083492E-01 -0.12038316899E-01  0.71670291104E-01  0.51100000000E-03 0.  1.
</event>
<event>
 8    1  0.2943605E+004  0.1043930E+01  0.7957747E-01            NaN
         13   -1    0    0    0    0  0.00000000000E+00  0.00000000000E+00  0.74505805969E-08  0.10566000000E+00  0.10566000000E+00 0. -1.
     999900   -1    0    0    0    0 -0.00000000000E+00 -0.00000000000E+00 -0.74505805969E-08  0.93827000000E+00  0.93827000000E+00 0.  1.
     999902    2    1    2    0    0  0.24645570815E-02  0.81381452943E-02 -0.16775147836E-01  0.10251228462E+01  0.10249503113E+01 0.  0.
     999903    2    3    3    0    0 -0.40319378575E-01 -0.52776952170E-01 -0.11105754378E+00  0.13696166460E+00  0.44873829472E-01 0.  0.
         14    1    1    2    0    0 -0.24645570815E-02 -0.81381452943E-02  0.16775147836E-01  0.18807153835E-01  0.00000000000E+00 0.  1.
     999901    1    3    3    0    0  0.42783935656E-01  0.60915097464E-01  0.94282395943E-01  0.88816118156E+00  0.88000000000E+00 0. -1.
        -11    1    4    4    0    0 -0.24199429418E-01 -0.38469088956E-02 -0.58199700167E-01  0.63149642222E-01  0.51100000000E-03 0.  1.
         11    1    4    4    0    0 -0.16119949157E-01 -0.48930043274E-01 -0.52857843612E-01  0.73812022381E-01  0.51100000000E-03 0. -1.
</event>
<event>
 8    1  0.2943605E+004  0.1043930E+01  0.7957747E-01            NaN
         13   -1    0    0    0    0  0.00000000000E+00  0.00000000000E+00  0.74505805969E-08  0.10566000000E+00  0.10566000000E+00 0. -1.
     999900   -1    0    0    0    0 -0.00000000000E+00 -0.00000000000E+00 -0.74505805969E-08  0.93827000000E+00  0.93827000000E+00 0.  1.
     999902    2    1    2    0    0  0.12173339143E-02  0.81511645933E-02 -0.83094082999E-02  0.10322265965E+01  0.10321602477E+01 0.  0.
     999903    2    3    3    0    0  0.98805532344E-01  0.79337394721E-01 -0.48253764673E-01  0.14307729107E+00  0.45669792979E-01 0.  0.
         14    1    1    2    0    0 -0.12173339143E-02 -0.81511645933E-02  0.83094082999E-02  0.11703403453E-01  0.00000000000E+00 0. -1.
     999901    1    3    3    0    0 -0.97588198430E-01 -0.71186230127E-01  0.39944356373E-01  0.88914930548E+00  0.88000000000E+00 0.  1.
        -11    1    4    4    0    0  0.27628921149E-01  0.49547374040E-01 -0.28191682834E-01  0.63350861558E-01  0.51100000000E-03 0. -1.
         11    1    4    4    0    0  0.71176611195E-01  0.29790020681E-01 -0.20062081839E-01  0.79726429508E-01  0.51100000000E-03 0.  1.
</event>
<event>
 8    1  0.2943605E+004  0.1043930E+01  0.7957747E-01            NaN
         13   -1    0    0    0    0  0.00000000000E+00  0.00000000000E+00  0.74505805969E-08  0.10566000000E+00  0.10566000000E+00 0.  1.
     999900   -1    0    0    0    0 -0.00000000000E+00 -0.00000000000E+00 -0.74505805969E-08  0.93827000000E+00  0.93827000000E+00 0.  1.
     999902    2    1    2    0    0  0.44891697309E-02  0.86556715202E-02 -0.10777202778E-01  0.10293965423E+01  0.10292939424E+01 0.  0.
     999903    2    3    3    0    0  0.49488140065E-01 -0.75455121424E-01 -0.96895920954E-01  0.14006197841E+00  0.45672606053E-01 0.  0.
         14    1    1    2    0    0 -0.44891697309E-02 -0.86556715202E-02  0.10777202778E-01  0.14533457746E-01  0.00000000000E+00 0.  1.
     999901    1    3    3    0    0 -0.44998970334E-01  0.84110792944E-01  0.86118718176E-01  0.88933456384E+00  0.88000000000E+00 0. -1.
        -11    1    4    4    0    0 -0.36656258044E-03 -0.39438793518E-01 -0.33745901025E-01  0.51909534377E-01  0.51100000000E-03 0.  1.
         11    1    4    4    0    0  0.49854702645E-01 -0.36016327906E-01 -0.63150019929E-01  0.88152444037E-01  0.51100000000E-03 0. -1.
</event>
<event>
 8    1  0.2943605E+004  0.1043930E+01  0.7957747E-01            NaN
         13   -1    0    0    0    0  0.00000000000E+00  0.00000000000E+00  0.74505805969E-08  0.10566000000E+00  0.10566000000E+00 0. -1.
     999900   -1    0    0    0    0 -0.00000000000E+00 -0.00000000000E+00 -0.74505805969E-08  0.93827000000E+00  0.93827000000E+00 0.  1.
     999902    2    1    2    0    0  0.70739667782E-02  0.97312532804E-02 -0.59126806512E-02  0.10305248484E+01  0.10304376571E+01 0.  0.
     999903    2    3    3    0    0 -0.16260699187E-01  0.13379167628E+00 -0.11481469743E-02  0.14150392855E+00  0.43097802399E-01 0.  0.
         14    1    1    2    0    0 -0.70739667782E-02 -0.97312532804E-02  0.59126806512E-02  0.13405151579E-01  0.00000000000E+00 0. -1.
     999901    1    3    3    0    0  0.23334665965E-01 -0.12406042300E+00 -0.47645336769E-02  0.88902091987E+00  0.88000000000E+00 0. -1.
        -11    1    4    4    0    0  0.10448633733E-01  0.40031619823E-01  0.12118024140E-01  0.43113943946E-01  0.51100000000E-03 0. -1.
         11    1    4    4    0    0 -0.26709332919E-01  0.93760056462E-01 -0.13266171115E-01  0.98389984601E-01  0.51100000000E-03 0.  1.
</event>
<event>
 8    1  0.2943605E+004  0.1043930E+01  0.7957747E-01            NaN
         13   -1    0    0    0    0  0.00000000000E+00  0.00000000000E+00  0.74505805969E-08  0.10566000000E+00  0.10566000000E+00 0.  1.
     999900   -1    0    0    0    0 -0.00000000000E+00 -0.00000000000E+00 -0.74505805969E-08  0.93827000000E+00  0.93827000000E+00 0.  1.
     999902    2    1    2    0    0  0.12789914649E-01 -0.30746791432E-02 -0.20777969529E-02  0.10306126125E+01  0.10305265665E+01 0.  0.
     999903    2    3    3    0    0 -0.15028522166E-01 -0.11647089120E+00  0.62128603263E-01  0.14058169838E+00  0.45955691695E-01 0.  0.
         14    1    1    2    0    0 -0.12789914649E-01  0.30746791432E-02  0.20777969529E-02  0.13317387459E-01  0.00000000000E+00 0. -1.
     999901    1    3    3    0    0  0.27818436815E-01  0.11339621206E+00 -0.64206400216E-01  0.89003091416E+00  0.88000000000E+00 0.  1.
        -11    1    4    4    0    0 -0.18568508326E-01 -0.10312185652E+00  0.68683541276E-01  0.12528605970E+00  0.51100000000E-03 0. -1.
         11    1    4    4    0    0  0.35399861601E-02 -0.13349034688E-01 -0.65549380131E-02  0.15295638675E-01  0.51100000000E-03 0.  1.
</event>
<event>
 8    1  0.2943605E+004  0.1043930E+01  0.7957747E-01            NaN
         13   -1    0    0    0    0  0.00000000000E+00  0.00000000000E+00  0.74505805969E-08  0.10566000000E+00  0.10566000000E+00 0.  1.
     999900   -1    0    0    0    0 -0.00000000000E+00 -0.00000000000E+00 -0.74505805969E-08  0.93827000000E+00  0.93827000000E+00 0. -1.
     999902    2    1    2    0    0  0.90712307305E-02 -0.52340897986E-02 -0.67303303938E-02  0.10314808928E+01  0.10314057649E+01 0.  0.
     999903    2    3    3    0    0 -0.10899994305E-01 -0.12601663880E+00 -0.44524585531E-01  0.14220271377E+00  0.47330433725E-01 0.  0.
         14    1    1    2    0    0 -0.90712307305E-02  0.52340897986E-02  0.67303303938E-02  0.12449107205E-01  0.00000000000E+00 0.  1.
     999901    1    3    3    0    0  0.19971225036E-01  0.12078254900E+00  0.37794255137E-01  0.88927817903E+00  0.88000000000E+00 0.  1.
        -11    1    4    4    0    0 -0.12912972188E-01 -0.29591095456E-01 -0.31088603949E-01  0.44823433576E-01  0.51100000000E-03 0.  1.
         11    1    4    4    0    0  0.20129778828E-02 -0.96425543342E-01 -0.13435981581E-01  0.97379280193E-01  0.51100000000E-03 0. -1.
</event>
<event>
 8    1  0.2943605E+004  0.1043930E+01  0.7957747E-01            NaN
         13   -1    0    0    0    0  0.00000000000E+00  0.00000000000E+00  0.74505805969E-08  0.10566000000E+00  0.10566000000E+00 0. -1.
     999900   -1    0    0    0    0 -0.00000000000E+00 -0.00000000000E+00 -0.74505805969E-08  0.93827000000E+00  0.93827000000E+00 0.  1.
     999902    2    1    2    0    0  0.11431956162E-02 -0.27169734161E-02  0.14995880893E-01  0.10286471572E+01  0.10285336206E+01 0.  0.
     999903    2    3    3    0    0  0.55648399684E-01  0.11829751386E+00  0.10742158013E-01  0.13868456384E+00  0.45021862637E-01 0.  0.
         14    1    1    2    0    0 -0.11431956162E-02  0.27169734161E-02 -0.14995880893E-01  0.15282842815E-01  0.00000000000E+00 0.  1.
     999901    1    3    3    0    0 -0.54505204068E-01 -0.12101448727E+00  0.42537228804E-02  0.88996259335E+00  0.88000000000E+00 0.  1.
        -11    1    4    4    0    0  0.42376726671E-01  0.10885672236E+00  0.22013106853E-01  0.11887140514E+00  0.51100000000E-03 0. -1.
         11    1    4    4    0    0  0.13271673013E-01  0.94407914987E-02 -0.11270948840E-01  0.19813158694E-01  0.51100000000E-03 0.  1.
</event>
<event>
 8    1  0.2943605E+004  0.1043930E+01  0.7957747E-01            NaN
         13   -1    0    0    0    0  0.00000000000E+00  0.00000000000E+00  0.74505805969E-08  0.10566000000E+00  0.10566000000E+00 0.  1.
     999900   -1    0    0    0    0 -0.00000000000E+00 -0.00000000000E+00 -0.74505805969E-08  0.93827000000E+00  0.93827000000E+00 0.  1.
     999902    2    1    2    0    0  0.79979082719E-02  0.10879519429E-01  0.18969429837E-02  0.10302944262E+01  0.10302041913E+01 0.  0.
     999903    2    3    3    0    0  0.55519924978E-01 -0.98144440360E-01  0.68273614398E-01  0.13981678563E+00  0.46611735402E-01 0.  0.
         14    1    1    2    0    0 -0.79979082719E-02 -0.10879519429E-01 -0.18969429837E-02  0.13635573784E-01  0.00000000000E+00 0. -1.
     999901    1    3    3    0    0 -0.47522016706E-01  0.10902395979E+00 -0.66376671415E-01  0.89047764059E+00  0.88000000000E+00 0.  1.
        -11    1    4    4    0    0  0.22460863749E-01 -0.63184763000E-01  0.61930923471E-01  0.91282556267E-01  0.51100000000E-03 0. -1.
         11    1    4    4    0    0  0.33059061229E-01 -0.34959677360E-01  0.63426909276E-02  0.48534229361E-01  0.51100000000E-03 0.  1.
</event>
<event>
 8    1  0.2943605E+004  0.1043930E+01  0.7957747E-01            NaN
         13   -1    0    0    0    0  0.00000000000E+00  0.00000000000E+00  0.74505805969E-08  0.10566000000E+00  0.10566000000E+00 0. -1.
     999900   -1    0    0    0    0 -0.00000000000E+00 -0.00000000000E+00 -0.74505805969E-08  0.93827000000E+00  0.93827000000E+00 0. -1.
     999902    2    1    2    0    0 -0.47871550520E-02 -0.11480727269E-01 -0.12735545715E-02  0.10314261649E+01  0.10313503709E+01 0.  0.
     999903    2    3    3    0    0 -0.57571455451E-01  0.52730068647E-01  0.10802493728E+00  0.14077731766E+00  0.45320342796E-01 0.  0.
         14    1    1    2    0    0  0.47871550520E-02  0.11480727269E-01  0.12735545715E-02  0.12503835146E-01  0.00000000000E+00 0. -1.
     999901    1    3    3    0    0  0.52784300399E-01 -0.64210795915E-01 -0.10929849185E+00  0.89064884719E+00  0.88000000000E+00 0. -1.
        -11    1    4    4    0    0 -0.59379814908E-01  0.37339282642E-01  0.67337692690E-01  0.97235849482E-01  0.51100000000E-03 0.  1.
         11    1    4    4    0    0  0.18083594570E-02  0.15390786005E-01  0.40687244593E-01  0.43541468181E-01  0.51100000000E-03 0. -1.
</event>
<event>
 8    1  0.2943605E+004  0.1043930E+01  0.7957747E-01            NaN
         13   -1    0    0    0    0  0.00000000000E+00  0.00000000000E+00  0.74505805969E-08  0.10566000000E+00  0.10566000000E+00 0.  1.
     999900   -1    0    0    0    0 -0.00000000000E+00 -0.00000000000E+00 -0.74505805969E-08  0.93827000000E+00  0.93827000000E+00 0.  1.
     999902    2    1    2    0    0 -0.95703685781E-02 -0.49861917153E-02  0.78126665633E-02  0.10306073943E+01  0.10305212805E+01 0.  0.
     999903    2    3    3    0    0  0.70308435896E-01 -0.37381669986E-01  0.10704486577E+00  0.14084499922E+00  0.45144712987E-01 0.  0.
         14    1    1    2    0    0  0.95703685781E-02  0.49861917153E-02 -0.78126665633E-02  0.13322605652E-01  0.00000000000E+00 0. -1.
     999901    1    3    3    0    0 -0.79878804474E-01  0.32395478270E-01 -0.99232199203E-01  0.88976239512E+00  0.88000000000E+00 0.  1.
        -11    1    4    4    0    0  0.37562859794E-01 -0.39685640012E-01  0.85853045072E-01  0.10176897822E+00  0.51100000000E-03 0. -1.
         11    1    4    4    0    0  0.32745576102E-01  0.23039700261E-02  0.21191820693E-01  0.39076021003E-01  0.51100000000E-03 0.  1.
</event>
<event>
 8    1  0.2943605E+004  0.1043930E+01  0.7957747E-01            NaN
         13   -1    0    0    0    0  0.00000000000E+00  0.00000000000E+00  0.74505805969E-08  0.10566000000E+00  0.10566000000E+00 0.  1.
     999900   -1    0    0    0    0 -0.00000000000E+00 -0.00000000000E+00 -0.74505805969E-08  0.93827000000E+00  0.93827000000E+00 0. -1.
     999902    2    1    2    0    0 -0.21223151761E-02 -0.10088937573E-01  0.84548681333E-02  0.10305967454E+01  0.10305104929E+01 0.  0.
     999903    2    3    3    0    0 -0.86940738931E-01  0.63216304457E-02  0.10170660430E+00  0.14146269586E+00  0.45484127607E-01 0.  0.
         14    1    1    2    0    0  0.21223151761E-02  0.10088937573E-01 -0.84548681333E-02  0.13333254599E-01  0.00000000000E+00 0.  1.
     999901    1    3    3    0    0  0.84818423755E-01 -0.16410568019E-01 -0.93251736170E-01  0.88913404954E+00  0.88000000000E+00 0.  1.
        -11    1    4    4    0    0 -0.52710769902E-02  0.35203946979E-02  0.36129440175E-01  0.36684806117E-01  0.51100000000E-03 0.  1.
         11    1    4    4    0    0 -0.81669661941E-01  0.28012357477E-02  0.65577164128E-01  0.10477788974E+00  0.51100000000E-03 0. -1.
</event>
<event>
 8    1  0.2943605E+004  0.1043930E+01  0.7957747E-01            NaN
         13   -1    0    0    0    0  0.00000000000E+00  0.00000000000E+00  0.74505805969E-08  0.10566000000E+00  0.10566000000E+00 0.  1.
     999900   -1    0    0    0    0 -0.00000000000E+00 -0.00000000000E+00 -0.74505805969E-08  0.93827000000E+00  0.93827000000E+00 0. -1.
     999902    2    1    2    0    0 -0.68111467043E-02  0.51471377090E-02  0.11455673752E-01  0.10296430407E+01  0.10295439155E+01 0.  0.
     999903    2    3    3    0    0 -0.62389235829E-01 -0.11175858958E+00 -0.31079415228E-01  0.13915715820E+00  0.44904181719E-01 0.  0.
         14    1    1    2    0    0  0.68111467043E-02 -0.51471377090E-02 -0.11455673752E-01  0.14286959339E-01  0.00000000000E+00 0. -1.
     999901    1    3    3    0    0  0.55578089125E-01  0.11690572729E+00  0.42535088980E-01  0.89048588246E+00  0.88000000000E+00 0. -1.
        -11    1    4    4    0    0 -0.53075105810E-01 -0.91018956671E-01 -0.42617038895E-01  0.11365689797E+00  0.51100000000E-03 0. -1.
         11    1    4    4    0    0 -0.93141300190E-02 -0.20739632908E-01  0.11537623667E-01  0.25500260235E-01  0.51100000000E-03 0.  1.
</event>
<event>
 8    1  0.2943605E+004  0.1043930E+01  0.7957747E-01            NaN
         13   -1    0    0    0    0  0.00000000000E+00  0.00000000000E+00  0.74505805969E-08  0.10566000000E+00  0.10566000000E+00 0.  1.
     999900   -1    0    0    0    0 -0.00000000000E+00 -0.00000000000E+00 -0.74505805969E-08  0.93827000000E+00  0.93827000000E+00 0. -1.
     999902    2    1    2    0    0  0.70701344294E-02  0.11565111269E-01 -0.23600372303E-02  0.10301710620E+01  0.10300791759E+01 0.  0.
     999903    2    3    3    0    0 -0.21091650163E-01  0.93389432527E-02  0.13041834562E+00  0.13976208804E+00  0.44636563608E-01 0.  0.
         14    1    1    2    0    0 -0.70701344294E-02 -0.11565111269E-01  0.23600372303E-02  0.13758938013E-01  0.00000000000E+00 0. -1.
     999901    1    3    3    0    0  0.28161784592E-01  0.22261680167E-02 -0.13277838285E+00  0.89040897395E+00  0.88000000000E+00 0. -1.
        -11    1    4    4    0    0  0.14041425578E-01  0.45027620246E-02  0.36465588066E-01  0.39337472366E-01  0.51100000000E-03 0. -1.
         11    1    4    4    0    0 -0.35133075741E-01  0.48361812281E-02  0.93952757555E-01  0.10042461567E+00  0.51100000000E-03 0.  1.
</event>
<event>
 8    1  0.2943605E+004  0.1043930E+01  0.7957747E-01            NaN
         13   -1    0    0    0    0  0.00000000000E+00  0.00000000000E+00  0.74505805969E-08  0.10566000000E+00  0.10566000000E+00 0. -1.
     999900   -1    0    0    0    0 -0.00000000000E+00 -0.00000000000E+00 -0.74505805969E-08  0.93827000000E+00  0.93827000000E+00 0. -1.
     999902    2    1    2    0    0  0.87054390071E-02 -0.93782737144E-02 -0.15312179605E-02  0.10310427460E+01  0.10309622024E+01 0.  0.
     999903    2    3    3    0    0 -0.38767775634E-01  0.12622765992E+00  0.42739485495E-02  0.13937219292E+00  0.44384445081E-01 0.  0.
         14    1    1    2    0    0 -0.87054390071E-02  0.93782737144E-02  0.15312179605E-02  0.12887253959E-01  0.00000000000E+00 0. -1.
     999901    1    3    3    0    0  0.47473214641E-01 -0.13560593364E+00 -0.58051665100E-02  0.89167055312E+00  0.88000000000E+00 0.  1.
        -11    1    4    4    0    0 -0.43014208078E-01  0.73953622509E-01  0.11877025834E-01  0.86375258277E-01  0.51100000000E-03 0. -1.
         11    1    4    4    0    0  0.42464324443E-02  0.52274037416E-01 -0.76030772842E-02  0.52996934642E-01  0.51100000000E-03 0.  1.
</event>
<event>
 8    1  0.2943605E+004  0.1043930E+01  0.7957747E-01            NaN
         13   -1    0    0    0    0  0.00000000000E+00  0.00000000000E+00  0.74505805969E-08  0.10566000000E+00  0.10566000000E+00 0.  1.
     999900   -1    0    0    0    0 -0.00000000000E+00 -0.00000000000E+00 -0.74505805969E-08  0.93827000000E+00  0.93827000000E+00 0.  1.
     999902    2    1    2    0    0 -0.56281277390E-02 -0.12791985932E-01  0.64102759404E-02  0.10285546183E+01  0.10284396921E+01 0.  0.
     999903    2    3    3    0    0 -0.10101918111E+00  0.76843604107E-01 -0.30400856711E-01  0.13811144121E+00  0.45174590882E-01 0.  0.
         14    1    1    2    0    0  0.56281277390E-02  0.12791985932E-01 -0.64102759404E-02  0.15375381737E-01  0.00000000000E+00 0. -1.
     999901    1    3    3    0    0  0.95391053371E-01 -0.89635590039E-01  0.36811132651E-01  0.89044317705E+00  0.88000000000E+00 0. -1.
        -11    1    4    4    0    0 -0.49398174037E-01  0.13572598195E-01 -0.75343445452E-03  0.51236937890E-01  0.51100000000E-03 0.  1.
         11    1    4    4    0    0 -0.51621007073E-01  0.63271005912E-01 -0.29647422256E-01  0.86874503324E-01  0.51100000000E-03 0. -1.
</event>
<event>
 8    1  0.2943605E+004  0.1043930E+01  0.7957747E-01            NaN
         13   -1    0    0    0    0  0.00000000000E+00  0.00000000000E+00  0.74505805969E-08  0.10566000000E+00  0.10566000000E+00 0. -1.
     999900   -1    0    0    0    0 -0.00000000000E+00 -0.00000000000E+00 -0.74505805969E-08  0.93827000000E+00  0.93827000000E+00 0. -1.
     999902    2    1    2    0    0  0.48637343052E-02  0.10844667014E-01 -0.74143631348E-02  0.10299215920E+01  0.10298263204E+01 0.  0.
     999903    2    3    3    0    0  0.98787891846E-01 -0.79139456727E-01  0.36517903455E-01  0.13927635738E+00  0.45191207847E-01 0.  0.
         14    1    1    2    0    0 -0.48637343052E-02 -0.10844667014E-01  0.74143631348E-02  0.14008408001E-01  0.00000000000E+00 0. -1.
     999901    1    3    3    0    0 -0.93924157541E-01  0.89984123741E-01 -0.43932266590E-01  0.89064523462E+00  0.88000000000E+00 0. -1.
        -11    1    4    4    0    0  0.79278704375E-01 -0.36742814094E-01  0.28561966792E-01  0.91930378129E-01  0.51100000000E-03 0. -1.
         11    1    4    4    0    0  0.19509187471E-01 -0.42396642633E-01  0.79559366637E-02  0.47345979254E-01  0.51100000000E-03 0.  1.
</event>
<event>
 8    1  0.2943605E+004  0.1043930E+01  0.7957747E-01            NaN
         13   -1    0    0    0    0  0.00000000000E+00  0.00000000000E+00  0.74505805969E-08  0.10566000000E+00  0.10566000000E+00 0.  1.
     999900   -1    0    0    0    0 -0.00000000000E+00 -0.00000000000E+00 -0.74505805969E-08  0.93827000000E+00  0.93827000000E+00 0.  1.
     999902    2    1    2    0    0 -0.11593114275E-01  0.65138683472E-02 -0.81918908390E-02  0.10283114900E+01  0.10281928723E+01 0.  0.
     999903    2    3    3    0    0  0.12341897267E+00  0.12316761918E-01 -0.39608659522E-01  0.13744171805E+00  0.44016298265E-01 0.  0.
         14    1    1    2    0    0  0.11593114275E-01 -0.65138683472E-02  0.81918908390E-02  0.15618510011E-01  0.00000000000E+00 0.  1.
     999901    1    3    3    0    0 -0.13501208695E+00 -0.58028935710E-02  0.31416768683E-01  0.89086977194E+00  0.88000000000E+00 0.  1.
        -11    1    4    4    0    0  0.63575799223E-01  0.20198974804E-02  0.23131052643E-02  0.63651974122E-01  0.51100000000E-03 0. -1.
         11    1    4    4    0    0  0.59843173448E-01  0.10296864438E-01 -0.41921764786E-01  0.73789743931E-01  0.51100000000E-03 0.  1.
</event>
<event>
 8    1  0.2943605E+004  0.1043930E+01  0.7957747E-01            NaN
         13   -1    0    0    0    0  0.00000000000E+00  0.00000000000E+00  0.74505805969E-08  0.10566000000E+00  0.10566000000E+00 0.  1.
     999900   -1    0    0    0    0 -0.00000000000E+00 -0.00000000000E+00 -0.74505805969E-08  0.93827000000E+00  0.93827000000E+00 0. -1.
     999902    2    1    2    0    0  0.52240838447E-02  0.71668777957E-03  0.13676438126E-01  0.10292722494E+01  0.10291678744E+01 0.  0.
     999903    2    3    3    0    0 -0.19384240951E-01 -0.10938886307E+00 -0.68980136850E-01  0.13822740687E+00  0.44798265260E-01 0.  0.
         14    1    1    2    0    0 -0.52240838447E-02 -0.71668777957E-03 -0.13676438126E-01  0.14657750619E-01  0.00000000000E+00 0. -1.
     999901    1    3    3    0    0  0.24608324795E-01  0.11010555085E+00  0.82656574976E-01  0.89104484251E+00  0.88000000000E+00 0.  1.
        -11    1    4    4    0    0 -0.17786506478E-01 -0.93992119563E-01 -0.36766024981E-01  0.10248355998E+00  0.51100000000E-03 0.  1.
         11    1    4    4    0    0 -0.15977344723E-02 -0.15396743503E-01 -0.32214111869E-01  0.35743846889E-01  0.51100000000E-03 0. -1.
</event>
<event>
 8    1  0.2943605E+004  0.1043930E+01  0.7957747E-01            NaN
         13   -1    0    0    0    0  0.00000000000E+00  0.00000000000E+00  0.74505805969E-08  0.10566000000E+00  0.10566000000E+00 0.  1.
     999900   -1    0    0    0    0 -0.00000000000E+00 -0.00000000000E+00 -0.74505805969E-08  0.93827000000E+00  0.93827000000E+00 0.  1.
     999902    2    1    2    0    0  0.11352563989E-02  0.78624519490E-03  0.13905818644E-01  0.10299557816E+01  0.10298609776E+01 0.  0.
     999903    2    3    3    0    0  0.21641654892E-01 -0.69583595873E-01 -0.10865122120E+00  0.13844433749E+00  0.45293583142E-01 0.  0.
         14    1    1    2    0    0 -0.11352563989E-02 -0.78624519490E-03 -0.13905818644E-01  0.13974218431E-01  0.00000000000E+00 0. -1.
     999901    1    3    3    0    0 -0.20506398493E-01  0.70369841068E-01  0.12255703984E+00  0.89151144408E+00  0.88000000000E+00 0. -1.
        -11    1    4    4    0    0  0.15495695089E-01 -0.60255774676E-01 -0.53154860560E-01  0.81832605178E-01  0.51100000000E-03 0. -1.
         11    1    4    4    0    0  0.61459598034E-02 -0.93278211969E-02 -0.55496360637E-01  0.56611732310E-01  0.51100000000E-03 0.  1.
</event>
<event>
 7    1  0.2943605E+004  0.1043930E+01  0.7957747E-01            NaN
         13   -1    0    0    0    0  0.00000000000E+00  0.00000000000E+00  0.74505805969E-08  0.10566000000E+00  0.10566000000E+00 0.  1.
     999900   -1    0    0    0    0 -0.00000000000E+00 -0.00000000000E+00 -0.74505805969E-08  0.93827000000E+00  0.93827000000E+00 0.  1.
     999903    2    1    2    0    0 -0.57587129528E-01 -0.80976051077E-01 -0.56374542057E-01  0.12280884237E+00  0.45061340810E-01 0.  0.
         14    1    1    2    0    0  0.15687248547E-01 -0.27556898832E-01  0.62908665852E-03  0.31715425115E-01  0.00000000000E+00 0. -1.
     999901    1    1    2    0    0  0.41899880982E-01  0.10853294991E+00  0.55745455399E-01  0.88940573252E+00  0.88000000000E+00 0. -1.
        -11    1    3    3    0    0 -0.24341271592E-01 -0.26124625364E-01  0.24261763519E-02  0.35793030129E-01  0.51100000000E-03 0. -1.
         11    1    3    3    0    0 -0.33245857936E-01 -0.54851425713E-01 -0.58800718409E-01  0.87015812236E-01  0.51100000000E-03 0.  1.
</event>
<event>
 8    1  0.2943605E+004  0.1043930E+01  0.7957747E-01            NaN
         13   -1    0    0    0    0  0.00000000000E+00  0.00000000000E+00  0.74505805969E-08  0.10566000000E+00  0.10566000000E+00 0.  1.
     999900   -1    0    0    0    0 -0.00000000000E+00 -0.00000000000E+00 -0.74505805969E-08  0.93827000000E+00  0.93827000000E+00 0. -1.
     999902    2    1    2    0    0  0.78596921786E-02 -0.10848879586E-01  0.35154328901E-02  0.10300796853E+01  0.10299865663E+01 0.  0.
     999903    2    3    3    0    0 -0.22150919289E-01  0.84111005368E-01  0.99098728993E-01  0.13931923317E+00  0.44988511795E-01 0.  0.
         14    1    1    2    0    0 -0.78596921786E-02  0.10848879586E-01 -0.35154328901E-02  0.13850314719E-01  0.00000000000E+00 0.  1.
     999901    1    3    3    0    0  0.30010611467E-01 -0.94959884954E-01 -0.95583296103E-01  0.89076045211E+00  0.88000000000E+00 0. -1.
        -11    1    4    4    0    0 -0.21867699097E-01  0.17625910372E-01  0.14177243642E-01  0.31466241252E-01  0.51100000000E-03 0. -1.
         11    1    4    4    0    0 -0.28322019142E-03  0.66485094996E-01  0.84921485352E-01  0.10785299192E+00  0.51100000000E-03 0.  1.
</event>
<event>
 8    1  0.2943605E+004  0.1043930E+01  0.7957747E-01            NaN
         13   -1    0    0    0    0  0.00000000000E+00  0.00000000000E+00  0.74505805969E-08  0.10566000000E+00  0.10566000000E+00 0. -1.
     999900   -1    0    0    0    0 -0.00000000000E+00 -0.00000000000E+00 -0.74505805969E-08  0.93827000000E+00  0.93827000000E+00 0.  1.
     999902    2    1    2    0    0  0.12337335167E-01  0.59958092894E-02  0.67854469629E-02  0.10286263449E+01  0.10285124966E+01 0.  0.
     999903    2    3    3    0    0  0.33507041579E-01  0.11387196682E+00  0.59337657206E-01  0.14023051162E+00  0.45322093551E-01 0.  0.
         14    1    1    2    0    0 -0.12337335167E-01 -0.59958092894E-02 -0.67854469629E-02  0.15303655071E-01  0.00000000000E+00 0.  1.
     999901    1    3    3    0    0 -0.21169706412E-01 -0.10787615753E+00 -0.52552210243E-01  0.88839583331E+00  0.88000000000E+00 0. -1.
        -11    1    4    4    0    0  0.23300378964E-01  0.85324331541E-01  0.64503446155E-01  0.10947193659E+00  0.51100000000E-03 0. -1.
         11    1    4    4    0    0  0.10206662616E-01  0.28547635281E-01 -0.51657889487E-02  0.30758575038E-01  0.51100000000E-03 0.  1.
</event>
<event>
 8    1  0.2943605E+004  0.1043930E+01  0.7957747E-01            NaN
         13   -1    0    0    0    0  0.00000000000E+00  0.00000000000E+00  0.74505805969E-08  0.10566000000E+00  0.10566000000E+00 0. -1.
     999900   -1    0    0    0    0 -0.00000000000E+00 -0.00000000000E+00 -0.74505805969E-08  0.93827000000E+00  0.93827000000E+00 0.  1.
     999902    2    1    2    0    0 -0.83632264448E-03  0.95890519803E-03  0.11819629477E-01  0.10320420828E+01  0.10319736131E+01 0.  0.
     999903    2    3    3    0    0  0.74647622048E-01  0.14046451739E-01 -0.10925916453E+00  0.14045407023E+00  0.44946752108E-01 0.  0.
         14    1    1    2    0    0  0.83632264448E-03 -0.95890519803E-03 -0.11819629477E-01  0.11887917215E-01  0.00000000000E+00 0.  1.
     999901    1    3    3    0    0 -0.75483944692E-01 -0.13087546541E-01  0.12107879401E+00  0.89158801256E+00  0.88000000000E+00 0. -1.
        -11    1    4    4    0    0  0.65826676185E-01  0.77477910515E-02 -0.58054293912E-01  0.88112097503E-01  0.51100000000E-03 0.  1.
         11    1    4    4    0    0  0.88209458622E-02  0.62986606877E-02 -0.51204870619E-01  0.52341972722E-01  0.51100000000E-03 0. -1.
</event>
<event>
 8    1  0.2943605E+004  0.1043930E+01  0.7957747E-01            NaN
         13   -1    0    0    0    0  0.00000000000E+00  0.00000000000E+00  0.74505805969E-08  0.10566000000E+00  0.10566000000E+00 0. -1.
     999900   -1    0    0    0    0 -0.00000000000E+00 -0.00000000000E+00 -0.74505805969E-08  0.93827000000E+00  0.93827000000E+00 0. -1.
     999902    2    1    2    0    0 -0.94507974773E-02  0.61958158404E-02 -0.44076999868E-02  0.10318001391E+01  0.10317288372E+01 0.  0.
     999903    2    3    3    0    0 -0.12310134243E-01  0.10102040876E+00 -0.89411266642E-01  0.14262890384E+00  0.44631459933E-01 0.  0.
         14    1    1    2    0    0  0.94507974773E-02 -0.61958158404E-02  0.44076999868E-02  0.12129860925E-01  0.00000000000E+00 0. -1.
     999901    1    3    3    0    0  0.28593367657E-02 -0.94824592922E-01  0.85003566655E-01  0.88917123524E+00  0.88000000000E+00 0.  1.
        -11    1    4    4    0    0 -0.11369756289E-01  0.28213007553E-01 -0.53253039522E-01  0.61330192341E-01  0.51100000000E-03 0. -1.
         11    1    4    4    0    0 -0.94037795395E-03  0.72807401209E-01 -0.36158227120E-01  0.81298711497E-01  0.51100000000E-03 0.  1.
</event>
<event>
 8    1  0.2943605E+004  0.1043930E+01  0.7957747E-01            NaN
         13   -1    0    0    0    0  0.00000000000E+00  0.00000000000E+00  0.74505805969E-08  0.10566000000E+00  0.10566000000E+00 0.  1.
     999900   -1    0    0    0    0 -0.00000000000E+00 -0.00000000000E+00 -0.74505805969E-08  0.93827000000E+00  0.93827000000E+00 0. -1.
     999902    2    1    2    0    0  0.79987395752E-02 -0.10342115410E-01  0.35991219762E-02  0.10303692897E+01  0.10302800494E+01 0.  0.
     999903    2    3    3    0    0 -0.35481661906E-01 -0.10953058406E+00 -0.66984217858E-01  0.14092513431E+00  0.46012072985E-01 0.  0.
         14    1    1    2    0    0 -0.79987395752E-02  0.10342115410E-01 -0.35991219762E-02  0.13560710341E-01  0.00000000000E+00 0. -1.
     999901    1    3    3    0    0  0.43480401481E-01  0.99188468655E-01  0.70583339834E-01  0.88944415535E+00  0.88000000000E+00 0. -1.
        -11    1    4    4    0    0 -0.28803941538E-01 -0.47533900782E-01 -0.10045016363E-01  0.56482760613E-01  0.51100000000E-03 0.  1.
         11    1    4    4    0    0 -0.66777203681E-02 -0.61996683282E-01 -0.56939201495E-01  0.84442373695E-01  0.51100000000E-03 0. -1.
</event>
<event>
 8    1  0.2943605E+004  0.1043930E+01  0.7957747E-01            NaN
         13   -1    0    0    0    0  0.00000000000E+00  0.00000000000E+00  0.74505805969E-08  0.10566000000E+00  0.10566000000E+00 0. -1.
     999900   -1    0    0    0    0 -0.00000000000E+00 -0.00000000000E+00 -0.74505805969E-08  0.93827000000E+00  0.93827000000E+00 0. -1.
     999902    2    1    2    0    0 -0.15134026318E-02  0.90813524172E-02  0.86170455584E-02  0.10313198920E+01  0.10312427963E+01 0.  0.
     999903    2    3    3    0    0  0.13198010826E+00 -0.89280106664E-02  0.19050047765E-01  0.14100887774E+00  0.44968221318E-01 0.  0.
         14    1    1    2    0    0  0.15134026318E-02 -0.90813524172E-02 -0.86170455584E-02  0.12610107986E-01  0.00000000000E+00 0.  1.
     999901    1    3    3    0    0 -0.13349351090E+00  0.18009363084E-01 -0.10433002206E-01  0.89031101428E+00  0.88000000000E+00 0. -1.
        -11    1    4    4    0    0  0.94502041123E-01  0.15740485492E-02  0.32311217145E-01  0.99886882420E-01  0.51100000000E-03 0.  1.
         11    1    4    4    0    0  0.37478067142E-01 -0.10502059216E-01 -0.13261169380E-01  0.41121995316E-01  0.51100000000E-03 0. -1.
</event>
<event>
 8    1  0.2943605E+004  0.1043930E+01  0.7957747E-01            NaN
         13   -1    0    0    0    0  0.00000000000E+00  0.00000000000E+00  0.74505805969E-08  0.10566000000E+00  0.10566000000E+00 0. -1.
     999900   -1    0    0    0    0 -0.00000000000E+00 -0.00000000000E+00 -0.74505805969E-08  0.93827000000E+00  0.93827000000E+00 0.  1.
     999902    2    1    2    0    0  0.80807367471E-02 -0.29874072673E-02  0.12019258077E-01  0.10291419821E+01  0.10290357301E+01 0.  0.
     999903    2    3    3    0    0  0.89607281385E-02 -0.58876950201E-01 -0.11587813027E+00  0.13814133264E+00  0.45918370997E-01 0.  0.
         14    1    1    2    0    0 -0.80807367471E-02  0.29874072673E-02 -0.12019258077E-01  0.14788017895E-01  0.00000000000E+00 0.  1.
     999901    1    3    3    0    0 -0.87999139136E-03  0.55889542934E-01  0.12789738835E+00  0.89100064946E+00  0.88000000000E+00 0. -1.
        -11    1    4    4    0    0 -0.89842815962E-02 -0.24420188706E-02 -0.44153531011E-01  0.45127333111E-01  0.51100000000E-03 0. -1.
         11    1    4    4    0    0  0.17945009735E-01 -0.56434931331E-01 -0.71724599262E-01  0.93013999532E-01  0.51100000000E-03 0.  1.
</event>
<event>
 8    1  0.2943605E+004  0.1043930E+01  0.7957747E-01            NaN
         13   -1    0    0    0    0  0.00000000000E+00  0.00000000000E+00  0.74505805969E-08  0.10566000000E+00  0.10566000000E+00 0. -1.
     999900   -1    0    0    0    0 -0.00000000000E+00 -0.00000000000E+00 -0.74505805969E-08  0.93827000000E+00  0.93827000000E+00 0. -1.
     999902    2    1    2    0    0 -0.70016930558E-02 -0.36403882103E-02 -0.10883492538E-01  0.10304865428E+01  0.10303988491E+01 0.  0.
     999903    2    3    3    0    0 -0.48743032122E-01  0.26463298893E-01  0.11961828892E+00  0.13937527795E+00  0.45174591198E-01 0.  0.
         14    1    1    2    0    0  0.70016930558E-02  0.36403882103E-02  0.10883492538E-01  0.13443457212E-01  0.00000000000E+00 0. -1.
     999901    1    3    3    0    0  0.41741339067E-01 -0.30103687103E-01 -0.13050178146E+00  0.89111126484E+00  0.88000000000E+00 0. -1.
        -11    1    4    4    0    0 -0.31661724819E-01 -0.41457699939E-02  0.32957157305E-01  0.45892129673E-01  0.51100000000E-03 0.  1.
         11    1    4    4    0    0 -0.17081307303E-01  0.30609068887E-01  0.86661131615E-01  0.93483148273E-01  0.51100000000E-03 0. -1.
</event>
<event>
 8    1  0.2943605E+004  0.1043930E+01  0.7957747E-01            NaN
         13   -1    0    0    0    0  0.00000000000E+00  0.00000000000E+00  0.74505805969E-08  0.10566000000E+00  0.10566000000E+00 0. -1.
     999900   -1    0    0    0    0 -0.00000000000E+00 -0.00000000000E+00 -0.74505805969E-08  0.93827000000E+00  0.93827000000E+00 0. -1.
     999902    2    1    2    0    0  0.13517434781E-01 -0.11639955635E-02 -0.47553624214E-02  0.10295533036E+01  0.10294529205E+01 0.  0.
     999903    2    3    3    0    0 -0.51209620087E-01  0.21382131476E-01 -0.11972040152E+00  0.13943259282E+00  0.45042787026E-01 0.  0.
         14    1    1    2    0    0 -0.13517434781E-01  0.11639955635E-02  0.47553624214E-02  0.14376696439E-01  0.00000000000E+00 0.  1.
     999901    1    3    3    0    0  0.64727054868E-01 -0.22546127040E-01  0.11496503910E+00  0.89012071074E+00  0.88000000000E+00 0.  1.
        -11    1    4    4    0    0 -0.38738878599E-01 -0.20326929598E-02 -0.41386376335E-01  0.56726764608E-01  0.51100000000E-03 0.  1.
         11    1    4    4    0    0 -0.12470741488E-01  0.23414824436E-01 -0.78334025190E-01  0.82705828211E-01  0.51100000000E-03 0. -1.
</event>
<event>
 8    1  0.2943605E+004  0.1043930E+01  0.7957747E-01            NaN
         13   -1    0    0    0    0  0.00000000000E+00  0.00000000000E+00  0.74505805969E-08  0.10566000000E+00  0.10566000000E+00 0.  1.
     999900   -1    0    0    0    0 -0.00000000000E+00 -0.00000000000E+00 -0.74505805969E-08  0.93827000000E+00  0.93827000000E+00 0. -1.
     999902    2    1    2    0    0  0.14595976472E-02 -0.29458710606E-02  0.13828979625E-01  0.10297155968E+01  0.10296174828E+01 0.  0.
     999903    2    3    3    0    0  0.11732331120E+00 -0.26936818131E-01 -0.55092286210E-01  0.13912584467E+00  0.42784215952E-01 0.  0.
         14    1    1    2    0    0 -0.14595976472E-02  0.29458710606E-02 -0.13828979625E-01  0.14214403226E-01  0.00000000000E+00 0. -1.
     999901    1    3    3    0    0 -0.11586371355E+00  0.23990947070E-01  0.68921265835E-01  0.89058975210E+00  0.88000000000E+00 0.  1.
        -11    1    4    4    0    0  0.91290120438E-01 -0.38729109398E-01 -0.42437493796E-01  0.10786580554E+00  0.51100000000E-03 0. -1.
         11    1    4    4    0    0  0.26033190763E-01  0.11792291267E-01 -0.12654792414E-01  0.31260039134E-01  0.51100000000E-03 0.  1.
</event>
<event>
 8    1  0.2943605E+004  0.1043930E+01  0.7957747E-01            NaN
         13   -1    0    0    0    0  0.00000000000E+00  0.00000000000E+00  0.74505805969E-08  0.10566000000E+00  0.10566000000E+00 0.  1.
     999900   -1    0    0    0    0 -0.00000000000E+00 -0.00000000000E+00 -0.74505805969E-08  0.93827000000E+00  0.93827000000E+00 0. -1.
     999902    2    1    2    0    0  0.15426657703E-03 -0.12937765289E-01  0.41135738863E-02  0.10303531425E+01  0.10302636882E+01 0.  0.
     999903    2    3    3    0    0 -0.89705683323E-02  0.12855934430E+00  0.24427470795E-01  0.13877176708E+00  0.45309225392E-01 0.  0.
         14    1    1    2    0    0 -0.15426657703E-03  0.12937765289E-01 -0.41135738863E-02  0.13576857477E-01  0.00000000000E+00 0. -1.
     999901    1    3    3    0    0  0.91248349094E-02 -0.14149710959E+00 -0.20313896908E-01  0.89158137545E+00  0.88000000000E+00 0. -1.
        -11    1    4    4    0    0 -0.48096222901E-02  0.88088982468E-01 -0.53016777878E-02  0.88380824884E-01  0.51100000000E-03 0.  1.
         11    1    4    4    0    0 -0.41609460423E-02  0.40470361831E-01  0.29729148582E-01  0.50390942193E-01  0.51100000000E-03 0. -1.
</event>
<event>
 8    1  0.2943605E+004  0.1043930E+01  0.7957747E-01            NaN
         13   -1    0    0    0    0  0.00000000000E+00  0.00000000000E+00  0.74505805969E-08  0.10566000000E+00  0.10566000000E+00 0. -1.
     999900   -1    0    0    0    0 -0.00000000000E+00 -0.00000000000E+00 -0.74505805969E-08  0.93827000000E+00  0.93827000000E+00 0. -1.
     999902    2    1    2    0    0  0.11026972679E-01  0.87167842091E-02 -0.37080434194E-03  0.10298689208E+01  0.10297729264E+01 0.  0.
     999903    2    3    3    0    0  0.10125194647E+00 -0.84350450661E-01  0.23414408459E-01  0.14005557379E+00  0.41235591854E-01 0.  0.
         14    1    1    2    0    0 -0.11026972679E-01 -0.87167842091E-02  0.37080434194E-03  0.14061079236E-01  0.00000000000E+00 0.  1.
     999901    1    3    3    0    0 -0.90224973794E-01  0.93067234870E-01 -0.23785212801E-01  0.88981334697E+00  0.88000000000E+00 0.  1.
        -11    1    4    4    0    0  0.67922708946E-01 -0.58981487908E-01  0.35105301993E-01  0.96565799616E-01  0.51100000000E-03 0. -1.
         11    1    4    4    0    0  0.33329237527E-01 -0.25368962753E-01 -0.11690893534E-01  0.43489774176E-01  0.51100000000E-03 0.  1.
</event>
<event>
 8    1  0.2943605E+004  0.1043930E+01  0.7957747E-01            NaN
         13   -1    0    0    0    0  0.00000000000E+00  0.00000000000E+00  0.74505805969E-08  0.10566000000E+00  0.10566000000E+00 0.  1.
     999900   -1    0    0    0    0 -0.00000000000E+00 -0.00000000000E+00 -0.74505805969E-08  0.93827000000E+00  0.93827000000E+00 0. -1.
     999902    2    1    2    0    0 -0.67427020403E-02 -0.21162917665E-02 -0.12589692057E-01  0.10294924425E+01  0.10293912016E+01 0.  0.
     999903    2    3    3    0    0  0.94708690463E-01 -0.52319607615E-02  0.89249588832E-01  0.13782359610E+00  0.45085974238E-01 0.  0.
         14    1    1    2    0    0  0.67427020403E-02  0.21162917665E-02  0.12589692057E-01  0.14437557540E-01  0.00000000000E+00 0.  1.
     999901    1    3    3    0    0 -0.10145139250E+00  0.31156689950E-02 -0.10183928089E+00  0.89166884636E+00  0.88000000000E+00 0. -1.
        -11    1    4    4    0    0  0.59401394172E-01  0.16118534019E-01  0.39273430520E-01  0.73013671558E-01  0.51100000000E-03 0.  1.
         11    1    4    4    0    0  0.35307296291E-01 -0.21350494780E-01  0.49976158312E-01  0.64809924543E-01  0.51100000000E-03 0. -1.
</event>
<event>
 8    1  0.2943605E+004  0.1043930E+01  0.7957747E-01            NaN
         13   -1    0    0    0    0  0.00000000000E+00  0.00000000000E+00  0.74505805969E-08  0.10566000000E+00  0.10566000000E+00 0.  1.
     999900   -1    0    0    0    0 -0.00000000000E+00 -0.00000000000E+00 -0.74505805969E-08  0.93827000000E+00  0.93827000000E+00 0. -1.
     999902    2    1    2    0    0  0.10956573865E-01 -0.13600322116E-01  0.16220653674E-02  0.10263901491E+01  0.10262402700E+01 0.  0.
     999903    2    3    3    0    0 -0.72129156256E-01 -0.10303502833E+00  0.28014539919E-01  0.13757162550E+00  0.48190304552E-01 0.  0.
         14    1    1    2    0    0 -0.10956573865E-01  0.13600322116E-01 -0.16220653674E-02  0.17539850872E-01  0.00000000000E+00 0. -1.
     999901    1    3    3    0    0  0.83085730122E-01  0.89434706209E-01 -0.26392474551E-01  0.88881852362E+00  0.88000000000E+00 0.  1.
        -11    1    4    4    0    0 -0.41489103799E-01 -0.50685262680E-01  0.38549113573E-01  0.76004189787E-01  0.51100000000E-03 0. -1.
         11    1    4    4    0    0 -0.30640052458E-01 -0.52349765645E-01 -0.10534573654E-01  0.61567435717E-01  0.51100000000E-03 0.  1.
</event>
<event>
 8    1  0.2943605E+004  0.1043930E+01  0.7957747E-01            NaN
         13   -1    0    0    0    0  0.00000000000E+00  0.00000000000E+00  0.74505805969E-08  0.10566000000E+00  0.10566000000E+00 0. -1.
     999900   -1    0    0    0    0 -0.00000000000E+00 -0.00000000000E+00 -0.74505805969E-08  0.93827000000E+00  0.93827000000E+00 0. -1.
     999902    2    1    2    0    0 -0.54276772199E-02 -0.24540802798E-02 -0.11256916165E-01  0.10311942098E+01  0.10311155600E+01 0.  0.
     999903    2    3    3    0    0 -0.13287561965E-01 -0.61187234608E-01  0.11668881845E+00  0.13996950627E+00  0.45329299056E-01 0.  0.
         14    1    1    2    0    0  0.54276772199E-02  0.24540802798E-02  0.11256916165E-01  0.12735790182E-01  0.00000000000E+00 0. -1.
     999901    1    3    3    0    0  0.78598847452E-02  0.58733154328E-01 -0.12794573461E+00  0.89122470355E+00  0.88000000000E+00 0. -1.
        -11    1    4    4    0    0  0.16412156477E-01 -0.24066893125E-01  0.35954498964E-01  0.46277006620E-01  0.51100000000E-03 0. -1.
         11    1    4    4    0    0 -0.29699718442E-01 -0.37120341483E-01  0.80734319484E-01  0.93692499651E-01  0.51100000000E-03 0.  1.
</event>
<event>
 8    1  0.2943605E+004  0.1043930E+01  0.7957747E-01            NaN
         13   -1    0    0    0    0  0.00000000000E+00  0.00000000000E+00  0.74505805969E-08  0.10566000000E+00  0.10566000000E+00 0. -1.
     999900   -1    0    0    0    0 -0.00000000000E+00 -0.00000000000E+00 -0.74505805969E-08  0.93827000000E+00  0.93827000000E+00 0.  1.
     999902    2    1    2    0    0  0.71852581042E-02  0.11440477753E-01 -0.38731109806E-02  0.10298760520E+01  0.10297801557E+01 0.  0.
     999903    2    3    3    0    0  0.10700296887E+00 -0.26576024339E-01 -0.74570884887E-01  0.14060275036E+00  0.45303378661E-01 0.  0.
         14    1    1    2    0    0 -0.71852581042E-02 -0.11440477753E-01  0.38731109806E-02  0.14053947983E-01  0.00000000000E+00 0. -1.
     999901    1    3    3    0    0 -0.99817710765E-01  0.38016502092E-01  0.70697773906E-01  0.88927330166E+00  0.88000000000E+00 0.  1.
        -11    1    4    4    0    0  0.97906654632E-02  0.94154615806E-02 -0.12899789182E-02  0.13654054841E-01  0.51100000000E-03 0. -1.
         11    1    4    4    0    0  0.97212303406E-01 -0.35991485920E-01 -0.73280905969E-01  0.12694869551E+00  0.51100000000E-03 0.  1.
</event>
<event>
 8    1  0.2943605E+004  0.1043930E+01  0.7957747E-01            NaN
         13   -1    0    0    0    0  0.00000000000E+00  0.00000000000E+00  0.74505805969E-08  0.10566000000E+00  0.10566000000E+00 0.  1.
     999900   -1    0    0    0    0 -0.00000000000E+00 -0.00000000000E+00 -0.74505805969E-08  0.93827000000E+00  0.93827000000E+00 0.  1.
     999902    2    1    2    0    0  0.86803892363E-02 -0.84561516180E-02 -0.73323417700E-02  0.10297660001E+01  0.10296685855E+01 0.  0.
     999903    2    3    3    0    0 -0.11705395008E+00  0.19690978996E-02 -0.59730331521E-01  0.13922495149E+00  0.45938764004E-01 0.  0.
         14    1    1    2    0    0 -0.86803892363E-02  0.84561516180E-02  0.73323417700E-02  0.14163999905E-01  0.00000000000E+00 0.  1.
     999901    1    3    3    0    0  0.12573433932E+00 -0.10425249518E-01  0.52397989751E-01  0.89054104860E+00  0.88000000000E+00 0.  1.
        -11    1    4    4    0    0 -0.72933590580E-01 -0.14395236228E-01 -0.53854828237E-01  0.91799428682E-01  0.51100000000E-03 0.  1.
         11    1    4    4    0    0 -0.44120359505E-01  0.16364334127E-01 -0.58755032842E-02  0.47425522813E-01  0.51100000000E-03 0. -1.
</event>
<event>
 8    1  0.2943605E+004  0.1043930E+01  0.7957747E-01            NaN
         13   -1    0    0    0    0  0.00000000000E+00  0.00000000000E+00  0.74505805969E-08  0.10566000000E+00  0.10566000000E+00 0. -1.
     999900   -1    0    0    0    0 -0.00000000000E+00 -0.00000000000E+00 -0.74505805969E-08  0.93827000000E+00  0.93827000000E+00 0. -1.
     999902    2    1    2    0    0 -0.13539948046E-01 -0.39523216112E-02  0.43760822009E-02  0.10291617525E+01  0.10290557865E+01 0.  0.
     999903    2    3    3    0    0 -0.36083191200E-01  0.33834070987E-01 -0.12201382270E+00  0.13904354835E+00  0.44710114742E-01 0.  0.
         14    1    1    2    0    0  0.13539948046E-01  0.39523216112E-02 -0.43760822009E-02  0.14768247514E-01  0.00000000000E+00 0.  1.
     999901    1    3    3    0    0  0.22543243154E-01 -0.37786392598E-01  0.12638990490E+00  0.89011820414E+00  0.88000000000E+00 0.  1.
        -11    1    4    4    0    0 -0.44128228707E-01  0.34562372350E-01 -0.90053942421E-01  0.10607465210E+00  0.51100000000E-03 0. -1.
         11    1    4    4    0    0  0.80450375069E-02 -0.72830136358E-03 -0.31959880280E-01  0.32968896249E-01  0.51100000000E-03 0.  1.
</event>
<event>
 8    1  0.2943605E+004  0.1043930E+01  0.7957747E-01            NaN
         13   -1    0    0    0    0  0.00000000000E+00  0.00000000000E+00  0.74505805969E-08  0.10566000000E+00  0.10566000000E+00 0.  1.
     999900   -1    0    0    0    0 -0.00000000000E+00 -0.00000000000E+00 -0.74505805969E-08  0.93827000000E+00  0.93827000000E+00 0.  1.
     999902    2    1    2    0    0  0.65809210207E-02  0.66090902646E-02  0.10406510652E-01  0.10299555927E+01  0.10298607862E+01 0.  0.
     999903    2    3    3    0    0 -0.55903525644E-01 -0.33449470179E-01 -0.11323355761E+00  0.13821804116E+00  0.45147725264E-01 0.  0.
         14    1    1    2    0    0 -0.65809210207E-02 -0.66090902646E-02 -0.10406510652E-01  0.13974407306E-01  0.00000000000E+00 0. -1.
     999901    1    3    3    0    0  0.62484446665E-01  0.40058560443E-01  0.12364006827E+00  0.89173755154E+00  0.88000000000E+00 0. -1.
        -11    1    4    4    0    0 -0.38608731531E-01 -0.25771231790E-01 -0.10948600393E+00  0.11892113654E+00  0.51100000000E-03 0.  1.
         11    1    4    4    0    0 -0.17294794113E-01 -0.76782383889E-02 -0.37475536843E-02  0.19296904617E-01  0.51100000000E-03 0. -1.
</event>
<event>
 8    1  0.2943605E+004  0.1043930E+01  0.7957747E-01            NaN
         13   -1    0    0    0    0  0.00000000000E+00  0.00000000000E+00  0.74505805969E-08  0.10566000000E+00  0.10566000000E+00 0.  1.
     999900   -1    0    0    0    0 -0.00000000000E+00 -0.00000000000E+00 -0.74505805969E-08  0.93827000000E+00  0.93827000000E+00 0.  1.
     999902    2    1    2    0    0  0.50751823116E-02 -0.98334136450E-02  0.11113943651E-01  0.10282464659E+01  0.10281268508E+01 0.  0.
     999903    2    3    3    0    0 -0.11793793992E+00 -0.44772460734E-01  0.35524172581E-01  0.13866857466E+00  0.45310880023E-01 0.  0.
         14    1    1    2    0    0 -0.50751823116E-02  0.98334136450E-02 -0.11113943651E-01  0.15683534133E-01  0.00000000000E+00 0. -1.
     999901    1    3    3    0    0  0.12301312223E+00  0.34939047089E-01 -0.24410228930E-01  0.88957789121E+00  0.88000000000E+00 0. -1.
        -11    1    4    4    0    0 -0.44705194064E-01 -0.41076149382E-01  0.16245279833E-01  0.62848823873E-01  0.51100000000E-03 0.  1.
         11    1    4    4    0    0 -0.73232745851E-01 -0.36963113521E-02  0.19278892748E-01  0.75819750785E-01  0.51100000000E-03 0. -1.
</event>
<event>
 8    1  0.2943605E+004  0.1043930E+01  0.7957747E-01            NaN
         13   -1    0    0    0    0  0.00000000000E+00  0.00000000000E+00  0.74505805969E-08  0.10566000000E+00  0.10566000000E+00 0.  1.
     999900   -1    0    0    0    0 -0.00000000000E+00 -0.00000000000E+00 -0.74505805969E-08  0.93827000000E+00  0.93827000000E+00 0. -1.
     999902    2    1    2    0    0 -0.25816008184E-02 -0.12113541804E-01 -0.64268839337E-02  0.10299762408E+01  0.10298817162E+01 0.  0.
     999903    2    3    3    0    0 -0.90369915007E-01  0.64363105508E-03  0.96420353411E-01  0.13955662751E+00  0.44855678898E-01 0.  0.
         14    1    1    2    0    0  0.25816008184E-02  0.12113541804E-01  0.64268839337E-02  0.13953759168E-01  0.00000000000E+00 0. -1.
     999901    1    3    3    0    0  0.87788314189E-01 -0.12757172859E-01 -0.10284723734E+00  0.89041961333E+00  0.88000000000E+00 0. -1.
        -11    1    4    4    0    0 -0.56817468774E-01 -0.19668998036E-02  0.88155940056E-01  0.10489911506E+00  0.51100000000E-03 0.  1.
         11    1    4    4    0    0 -0.33552446234E-01  0.26105308587E-02  0.82644133546E-02  0.34657512443E-01  0.51100000000E-03 0. -1.
</event>
<event>
 8    1  0.2943605E+004  0.1043930E+01  0.7957747E-01            NaN
         13   -1    0    0    0    0  0.00000000000E+00  0.00000000000E+00  0.74505805969E-08  0.10566000000E+00  0.10566000000E+00 0. -1.
     999900   -1    0    0    0    0 -0.00000000000E+00 -0.00000000000E+00 -0.74505805969E-08  0.93827000000E+00  0.93827000000E+00 0.  1.
     999902    2    1    2    0    0  0.78301390831E-02 -0.37386705069E-02  0.46357825307E-02  0.10340923572E+01  0.10340455619E+01 0.  0.
     999903    2    3    3    0    0  0.92271224993E-02  0.88776486343E-01 -0.10266143973E+00  0.14275981565E+00  0.43296529178E-01 0.  0.
         14    1    1    2    0    0 -0.78301390831E-02  0.37386705069E-02 -0.46357825307E-02  0.98376427508E-02  0.00000000000E+00 0. -1.
     999901    1    3    3    0    0 -0.13969834161E-02 -0.92515156850E-01  0.10729722226E+00  0.89133254160E+00  0.88000000000E+00 0. -1.
        -11    1    4    4    0    0 -0.38126046359E-02  0.21541545506E-01 -0.55348391232E-01  0.59517053606E-01  0.51100000000E-03 0. -1.
         11    1    4    4    0    0  0.13039727135E-01  0.67234940836E-01 -0.47313048502E-01  0.83242762043E-01  0.51100000000E-03 0.  1.
</event>
<event>
 8    1  0.2943605E+004  0.1043930E+01  0.7957747E-01            NaN
         13   -1    0    0    0    0  0.00000000000E+00  0.00000000000E+00  0.74505805969E-08  0.10566000000E+00  0.10566000000E+00 0. -1.
     999900   -1    0    0    0    0 -0.00000000000E+00 -0.00000000000E+00 -0.74505805969E-08  0.93827000000E+00  0.93827000000E+00 0.  1.
     999902    2    1    2    0    0  0.76604635995E-02  0.55175641432E-02  0.12478704086E-01  0.10282824995E+01  0.10281634376E+01 0.  0.
     999903    2    3    3    0    0  0.40981443945E-01  0.98949355017E-01 -0.75984233594E-01  0.13830189373E+00  0.43397654877E-01 0.  0.
         14    1    1    2    0    0 -0.76604635995E-02 -0.55175641432E-02 -0.12478704086E-01  0.15647500513E-01  0.00000000000E+00 0.  1.
     999901    1    3    3    0    0 -0.33320980346E-01 -0.93431790874E-01  0.88462937680E-01  0.88998060576E+00  0.88000000000E+00 0. -1.
        -11    1    4    4    0    0 -0.87411018416E-02  0.24180495567E-01 -0.15282497646E-01  0.29915198188E-01  0.51100000000E-03 0. -1.
         11    1    4    4    0    0  0.49722545787E-01  0.74768859450E-01 -0.60701735948E-01  0.10838669554E+00  0.51100000000E-03 0.  1.
</event>
<event>
 8    1  0.2943605E+004  0.1043930E+01  0.7957747E-01            NaN
         13   -1    0    0    0    0  0.00000000000E+00  0.00000000000E+00  0.74505805969E-08  0.10566000000E+00  0.10566000000E+00 0.  1.
     999900   -1    0    0    0    0 -0.00000000000E+00 -0.00000000000E+00 -0.74505805969E-08  0.93827000000E+00  0.93827000000E+00 0.  1.
     999902    2    1    2    0    0 -0.12153305110E-01  0.16615885572E-02 -0.29672143206E-02  0.10313098549E+01  0.10312326356E+01 0.  0.
     999903    2    3    3    0    0 -0.11393401241E+00 -0.68610919446E-01 -0.24460157382E-01  0.14240070073E+00  0.44623343874E-01 0.  0.
         14    1    1    2    0    0  0.12153305110E-01 -0.16615885572E-02  0.29672143206E-02  0.12620145104E-01  0.00000000000E+00 0.  1.
     999901    1    3    3    0    0  0.10178070730E+00  0.70272508003E-01  0.21492943062E-01  0.88890915417E+00  0.88000000000E+00 0. -1.
        -11    1    4    4    0    0 -0.39412595343E-01 -0.15882609004E-01  0.11908257518E-01  0.44132501159E-01  0.51100000000E-03 0.  1.
         11    1    4    4    0    0 -0.74521417065E-01 -0.52728310442E-01 -0.36368414900E-01  0.98268199570E-01  0.51100000000E-03 0. -1.
</event>
<event>
 8    1  0.2943605E+004  0.1043930E+01  0.7957747E-01            NaN
         13   -1    0    0    0    0  0.00000000000E+00  0.00000000000E+00  0.74505805969E-08  0.10566000000E+00  0.10566000000E+00 0. -1.
     999900   -1    0    0    0    0 -0.00000000000E+00 -0.00000000000E+00 -0.74505805969E-08  0.93827000000E+00  0.93827000000E+00 0.  1.
     999902    2    1    2    0    0 -0.80840753287E-02  0.36601568258E-02 -0.10488333474E-01  0.10301912169E+01  0.10300996016E+01 0.  0.
     999903    2    3    3    0    0  0.21546944339E-01 -0.97723326614E-01 -0.86826837077E-01  0.14059345658E+00  0.47047858841E-01 0.  0.
         14    1    1    2    0    0  0.80840753287E-02 -0.36601568258E-02  0.10488333474E-01  0.13738783096E-01  0.00000000000E+00 0. -1.
     999901    1    3    3    0    0 -0.29631019668E-01  0.10138348344E+00  0.76338503603E-01  0.88959776032E+00  0.88000000000E+00 0. -1.
        -11    1    4    4    0    0  0.27229336477E-02 -0.32032689363E-01 -0.27816586764E-02  0.32272376756E-01  0.51100000000E-03 0.  1.
         11    1    4    4    0    0  0.18824010692E-01 -0.65690637251E-01 -0.84045178400E-01  0.10832107982E+00  0.51100000000E-03 0. -1.
</event>
<event>
 8    1  0.2943605E+004  0.1043930E+01  0.7957747E-01            NaN
         13   -1    0    0    0    0  0.00000000000E+00  0.00000000000E+00  0.74505805969E-08  0.10566000000E+00  0.10566000000E+00 0.  1.
     999900   -1    0    0    0    0 -0.00000000000E+00 -0.00000000000E+00 -0.74505805969E-08  0.93827000000E+00  0.93827000000E+00 0. -1.
     999902    2    1    2    0    0 -0.11832327357E-01 -0.19538602359E-02 -0.11277612274E-01  0.10274677377E+01  0.10273358487E+01 0.  0.
     999903    2    3    3    0    0  0.60273397772E-02  0.40650280150E-01  0.12205646558E+00  0.13622587560E+00  0.44395205731E-01 0.  0.
         14    1    1    2    0    0  0.11832327357E-01  0.19538602359E-02  0.11277612274E-01  0.16462262272E-01  0.00000000000E+00 0.  1.
     999901    1    3    3    0    0 -0.17859667134E-01 -0.42604140386E-01 -0.13333407786E+00  0.89124186213E+00  0.88000000000E+00 0. -1.
        -11    1    4    4    0    0  0.10428749829E-01  0.22606539228E-01  0.11270934899E+00  0.11542734906E+00  0.51100000000E-03 0.  1.
         11    1    4    4    0    0 -0.44014100518E-02  0.18043740922E-01  0.93471165896E-02  0.20798526545E-01  0.51100000000E-03 0. -1.
</event>
<event>
 8    1  0.2943605E+004  0.1043930E+01  0.7957747E-01            NaN
         13   -1    0    0    0    0  0.00000000000E+00  0.00000000000E+00  0.74505805969E-08  0.10566000000E+00  0.10566000000E+00 0. -1.
     999900   -1    0    0    0    0 -0.00000000000E+00 -0.00000000000E+00 -0.74505805969E-08  0.93827000000E+00  0.93827000000E+00 0. -1.
     999902    2    1    2    0    0  0.25488070229E-02 -0.68761835352E-03  0.12594729594E-01  0.10310615716E+01  0.10309812646E+01 0.  0.
     999903    2    3    3    0    0  0.63444730129E-01  0.11793486923E+00 -0.12826493568E-02  0.14090866918E+00  0.43814845660E-01 0.  0.
         14    1    1    2    0    0 -0.25488070229E-02  0.68761835352E-03 -0.12594729594E-01  0.12868428412E-01  0.00000000000E+00 0.  1.
     999901    1    3    3    0    0 -0.60895923106E-01 -0.11862248758E+00  0.13877378951E-01  0.89015290240E+00  0.88000000000E+00 0. -1.
        -11    1    4    4    0    0  0.62899524886E-01  0.75507585412E-01  0.24964110943E-02  0.98306860773E-01  0.51100000000E-03 0. -1.
         11    1    4    4    0    0  0.54520524272E-03  0.42427283819E-01 -0.37790604511E-02  0.42601808412E-01  0.51100000000E-03 0.  1.
</event>
<event>
 8    1  0.2943605E+004  0.1043930E+01  0.7957747E-01            NaN
         13   -1    0    0    0    0  0.00000000000E+00  0.00000000000E+00  0.74505805969E-08  0.10566000000E+00  0.10566000000E+00 0.  1.
     999900   -1    0    0    0    0 -0.00000000000E+00 -0.00000000000E+00 -0.74505805969E-08  0.93827000000E+00  0.93827000000E+00 0. -1.
     999902    2    1    2    0    0 -0.15208677975E-01 -0.66370734865E-02 -0.18935013408E-02  0.10272285037E+01  0.10270927217E+01 0.  0.
     999903    2    3    3    0    0  0.59613539853E-01 -0.11110776637E+00  0.30466225852E-01  0.13730736009E+00  0.45015667672E-01 0.  0.
         14    1    1    2    0    0  0.15208677975E-01  0.66370734865E-02  0.18935013408E-02  0.16701496266E-01  0.00000000000E+00 0. -1.
     999901    1    3    3    0    0 -0.74822217828E-01  0.10447069289E+00 -0.32359727193E-01  0.88992114364E+00  0.88000000000E+00 0. -1.
        -11    1    4    4    0    0  0.21180923583E-01 -0.68365387987E-02  0.95583604511E-02  0.24227941764E-01  0.51100000000E-03 0. -1.
         11    1    4    4    0    0  0.38432616270E-01 -0.10427122758E+00  0.20907865401E-01  0.11307941833E+00  0.51100000000E-03 0.  1.
</event>
<event>
 8    1  0.2943605E+004  0.1043930E+01  0.7957747E-01            NaN
         13   -1    0    0    0    0  0.00000000000E+00  0.00000000000E+00  0.74505805969E-08  0.10566000000E+00  0.10566000000E+00 0. -1.
     999900   -1    0    0    0    0 -0.00000000000E+00 -0.00000000000E+00 -0.74505805969E-08  0.93827000000E+00  0.93827000000E+00 0. -1.
     999902    2    1    2    0    0  0.55871935202E-02 -0.10862782474E-01 -0.18264475243E-02  0.10315787780E+01  0.10315048340E+01 0.  0.
     999903    2    3    3    0    0  0.12692355601E+00 -0.46004037533E-01 -0.17990711342E-01  0.14241135613E+00  0.41609711854E-01 0.  0.
         14    1    1    2    0    0 -0.55871935202E-02  0.10862782474E-01  0.18264475243E-02  0.12351222007E-01  0.00000000000E+00 0. -1.
     999901    1    3    3    0    0 -0.12133636249E+00  0.35141255060E-01  0.16164263817E-01  0.88916742186E+00  0.88000000000E+00 0. -1.
        -11    1    4    4    0    0  0.92752263179E-01 -0.49548377188E-01 -0.23126135432E-01  0.10767127411E+00  0.51100000000E-03 0. -1.
         11    1    4    4    0    0  0.34171292836E-01  0.35443396551E-02  0.51354240899E-02  0.34740082027E-01  0.51100000000E-03 0.  1.
</event>
<event>
 8    1  0.2943605E+004  0.1043930E+01  0.7957747E-01            NaN
         13   -1    0    0    0    0  0.00000000000E+00  0.00000000000E+00  0.74505805969E-08  0.10566000000E+00  0.10566000000E+00 0. -1.
     999900   -1    0    0    0    0 -0.00000000000E+00 -0.00000000000E+00 -0.74505805969E-08  0.93827000000E+00  0.93827000000E+00 0. -1.
     999902    2    1    2    0    0 -0.69145601712E-02 -0.10984045519E-01  0.45421249320E-02  0.10301789529E+01  0.10300871728E+01 0.  0.
     999903    2    3    3    0    0 -0.12732802652E+00 -0.39708401755E-01  0.19494275364E-01  0.14138873109E+00  0.42679772754E-01 0.  0.
         14    1    1    2    0    0  0.69145601712E-02  0.10984045519E-01 -0.45421249320E-02  0.13751047132E-01  0.00000000000E+00 0. -1.
     999901    1    3    3    0    0  0.12041346634E+00  0.28724356236E-01 -0.14952150432E-01  0.88879022177E+00  0.88000000000E+00 0. -1.
        -11    1    4    4    0    0 -0.19735079922E-01 -0.16100195688E-01  0.18057899908E-01  0.31225607293E-01  0.51100000000E-03 0. -1.
         11    1    4    4    0    0 -0.10759294659E+00 -0.23608206067E-01  0.14363754567E-02  0.11016312380E+00  0.51100000000E-03 0.  1.
</event>
<event>
 8    1  0.2943605E+004  0.1043930E+01  0.7957747E-01            NaN
         13   -1    0    0    0    0  0.00000000000E+00  0.00000000000E+00  0.74505805969E-08  0.10566000000E+00  0.10566000000E+00 0. -1.
     999900   -1    0    0    0    0 -0.00000000000E+00 -0.00000000000E+00 -0.74505805969E-08  0.93827000000E+00  0.93827000000E+00 0. -1.
     999902    2    1    2    0    0 -0.89331234671E-02 -0.37361281941E-02 -0.82919928797E-02  0.10311818043E+01  0.10311030002E+01 0.  0.
     999903    2    3    3    0    0  0.55935988046E-01 -0.64449968192E-01  0.10135971535E+00  0.13993679355E+00  0.45009789315E-01 0.  0.
         14    1    1    2    0    0  0.89331234671E-02  0.37361281941E-02  0.82919928797E-02  0.12748195742E-01  0.00000000000E+00 0. -1.
     999901    1    3    3    0    0 -0.64869111514E-01  0.60713839998E-01 -0.10965170823E+00  0.89124501071E+00  0.88000000000E+00 0. -1.
        -11    1    4    4    0    0 -0.59800016060E-02 -0.18063005947E-01  0.17795446752E-01  0.26057084433E-01  0.51100000000E-03 0.  1.
         11    1    4    4    0    0  0.61915989652E-01 -0.46386962245E-01  0.83564268598E-01  0.11387970912E+00  0.51100000000E-03 0. -1.
</event>
<event>
 7    1  0.2943605E+004  0.1043930E+01  0.7957747E-01            NaN
         13   -1    0    0    0    0  0.00000000000E+00  0.00000000000E+00  0.74505805969E-08  0.10566000000E+00  0.10566000000E+00 0.  1.
     999900   -1    0    0    0    0 -0.00000000000E+00 -0.00000000000E+00 -0.74505805969E-08  0.93827000000E+00  0.93827000000E+00 0.  1.
     999902    2    1    2    0    0 -0.88428186255E-02  0.12181012182E-01 -0.90514544180E-02  0.10263657942E+01  0.10262154950E+01 0.  0.
         14    1    1    2    0    0  0.88428186255E-02 -0.12181012182E-01  0.90514544180E-02  0.17564205820E-01  0.00000000000E+00 0.  1.
     999901    1    3    3    0    0 -0.12119641016E+00  0.79515986810E-01 -0.18357410927E-01  0.89204728380E+00  0.88000000000E+00 0.  1.
        -11    1    3    3    0    0  0.97472053409E-01 -0.46434209336E-01  0.35955405398E-02  0.10802835750E+00  0.51100000000E-03 0. -1.
         11    1    3    3    0    0  0.14881538126E-01 -0.20900765292E-01  0.57104159695E-02  0.26290152878E-01  0.51100000000E-03 0.  1.
</event>
<event>
 8    1  0.2943605E+004  0.1043930E+01  0.7957747E-01            NaN
         13   -1    0    0    0    0  0.00000000000E+00  0.00000000000E+00  0.74505805969E-08  0.10566000000E+00  0.10566000000E+00 0.  1.
     999900   -1    0    0    0    0 -0.00000000000E+00 -0.00000000000E+00 -0.74505805969E-08  0.93827000000E+00  0.93827000000E+00 0. -1.
     999902    2    1    2    0    0 -0.76373979324E-02  0.10506715207E-01 -0.64925479954E-02  0.10294084956E+01  0.10293060656E+01 0.  0.
     999903    2    3    3    0    0 -0.84393590446E-01  0.10052614507E+00 -0.28889615314E-01  0.14120995950E+00  0.43334268628E-01 0.  0.
         14    1    1    2    0    0  0.76373979324E-02 -0.10506715207E-01  0.64925479954E-02  0.14521504436E-01  0.00000000000E+00 0. -1.
     999901    1    3    3    0    0  0.76756192514E-01 -0.90019429864E-01  0.22397067318E-01  0.88819853606E+00  0.88000000000E+00 0. -1.
        -11    1    4    4    0    0 -0.76563177770E-01  0.61971082611E-01 -0.25312911106E-01  0.10170221168E+00  0.51100000000E-03 0. -1.
         11    1    4    4    0    0 -0.78304126755E-02  0.38555062461E-01 -0.35767042078E-02  0.39507747823E-01  0.51100000000E-03 0.  1.
</event>
<event>
 8    1  0.2943605E+004  0.1043930E+01  0.7957747E-01            NaN
         13   -1    0    0    0    0  0.00000000000E+00  0.00000000000E+00  0.74505805969E-08  0.10566000000E+00  0.10566000000E+00 0.  1.
     999900   -1    0    0    0    0 -0.00000000000E+00 -0.00000000000E+00 -0.74505805969E-08  0.93827000000E+00  0.93827000000E+00 0.  1.
     999902    2    1    2    0    0 -0.67234559188E-02  0.67921087000E-02  0.87010111026E-02  0.10310054035E+01  0.10309243895E+01 0.  0.
     999903    2    3    3    0    0 -0.91454038857E-01 -0.90760532070E-01 -0.33239859204E-01  0.14058144494E+00  0.45353489568E-01 0.  0.
         14    1    1    2    0    0  0.67234559188E-02 -0.67921087000E-02 -0.87010111026E-02  0.12924596485E-01  0.00000000000E+00 0. -1.
     999901    1    3    3    0    0  0.84730582939E-01  0.97552640770E-01  0.41940870306E-01  0.89042395858E+00  0.88000000000E+00 0. -1.
        -11    1    4    4    0    0 -0.72401046259E-01 -0.91235224606E-01 -0.34496072669E-01  0.12147435062E+00  0.51100000000E-03 0. -1.
         11    1    4    4    0    0 -0.19052992599E-01  0.47469253553E-03  0.12562134656E-02  0.19107094317E-01  0.51100000000E-03 0.  1.
</event>
<event>
 8    1  0.2943605E+004  0.1043930E+01  0.7957747E-01            NaN
         13   -1    0    0    0    0  0.00000000000E+00  0.00000000000E+00  0.74505805969E-08  0.10566000000E+00  0.10566000000E+00 0.  1.
     999900   -1    0    0    0    0 -0.00000000000E+00 -0.00000000000E+00 -0.74505805969E-08  0.93827000000E+00  0.93827000000E+00 0.  1.
     999902    2    1    2    0    0  0.27574939336E-02  0.37795822992E-02  0.12329088751E-01  0.10307430578E+01  0.10306586999E+01 0.  0.
     999903    2    3    3    0    0 -0.58590902560E-01  0.10650802580E-01  0.12073689030E+00  0.14194437933E+00  0.44994185004E-01 0.  0.
         14    1    1    2    0    0 -0.27574939336E-02 -0.37795822992E-02 -0.12329088751E-01  0.13186942200E-01  0.00000000000E+00 0. -1.
     999901    1    3    3    0    0  0.61348396493E-01 -0.68712202808E-02 -0.10840780155E+00  0.88879867847E+00  0.88000000000E+00 0.  1.
        -11    1    4    4    0    0 -0.90006769602E-02  0.12106574617E-01  0.67522208232E-01  0.69188807333E-01  0.51100000000E-03 0. -1.
         11    1    4    4    0    0 -0.49590225599E-01 -0.14557720369E-02  0.53214682070E-01  0.72755571993E-01  0.51100000000E-03 0.  1.
</event>
<event>
 8    1  0.2943605E+004  0.1043930E+01  0.7957747E-01            NaN
         13   -1    0    0    0    0  0.00000000000E+00  0.00000000000E+00  0.74505805969E-08  0.10566000000E+00  0.10566000000E+00 0.  1.
     999900   -1    0    0    0    0 -0.00000000000E+00 -0.00000000000E+00 -0.74505805969E-08  0.93827000000E+00  0.93827000000E+00 0. -1.
     999902    2    1    2    0    0  0.25032149296E-02  0.53130984938E-02  0.12040455263E-01  0.10305334458E+01  0.10304463670E+01 0.  0.
     999903    2    3    3    0    0  0.10984829978E+00 -0.55188116487E-01  0.52525789325E-01  0.14102660127E+00  0.44912877372E-01 0.  0.
         14    1    1    2    0    0 -0.25032149296E-02 -0.53130984938E-02 -0.12040455263E-01  0.13396554166E-01  0.00000000000E+00 0. -1.
     999901    1    3    3    0    0 -0.10734508486E+00  0.60501214981E-01 -0.40485334062E-01  0.88950684457E+00  0.88000000000E+00 0.  1.
        -11    1    4    4    0    0  0.18990849668E-01 -0.29844964134E-01  0.22954532524E-01  0.42172810432E-01  0.51100000000E-03 0.  1.
         11    1    4    4    0    0  0.90857450116E-01 -0.25343152352E-01  0.29571256800E-01  0.98853790836E-01  0.51100000000E-03 0. -1.
</event>
<event>
 8    1  0.2943605E+004  0.1043930E+01  0.7957747E-01            NaN
         13   -1    0    0    0    0  0.00000000000E+00  0.00000000000E+00  0.74505805969E-08  0.10566000000E+00  0.10566000000E+00 0.  1.
     999900   -1    0    0    0    0 -0.00000000000E+00 -0.00000000000E+00 -0.74505805969E-08  0.93827000000E+00  0.93827000000E+00 0.  1.
     999902    2    1    2    0    0  0.53151075976E-02 -0.68087378111E-02  0.82785328016E-02  0.10319657455E+01  0.10318963885E+01 0.  0.
     999903    2    3    3    0    0 -0.89522300424E-01  0.53099660690E-01 -0.86022425083E-01  0.13984701980E+00  0.36380146924E-01 0.  0.
         14    1    1    2    0    0 -0.53151075976E-02  0.68087378111E-02 -0.82785328016E-02  0.11964254457E-01  0.00000000000E+00 0. -1.
     999901    1    3    3    0    0  0.94837408021E-01 -0.59908398501E-01  0.94300957884E-01  0.89211872575E+00  0.88000000000E+00 0. -1.
        -11    1    4    4    0    0 -0.79242173857E-01  0.42303066060E-01 -0.54747869689E-01  0.10519725221E+00  0.51100000000E-03 0.  1.
         11    1    4    4    0    0 -0.10280126567E-01  0.10796594630E-01 -0.31274555393E-01  0.34649767588E-01  0.51100000000E-03 0. -1.
</event>
<event>
 8    1  0.2943605E+004  0.1043930E+01  0.7957747E-01            NaN
         13   -1    0    0    0    0  0.00000000000E+00  0.00000000000E+00  0.74505805969E-08  0.10566000000E+00  0.10566000000E+00 0.  1.
     999900   -1    0    0    0    0 -0.00000000000E+00 -0.00000000000E+00 -0.74505805969E-08  0.93827000000E+00  0.93827000000E+00 0.  1.
     999902    2    1    2    0    0 -0.85195104027E-02 -0.19833790795E-02 -0.10783366831E-01  0.10300448695E+01  0.10299512786E+01 0.  0.
     999903    2    3    3    0    0 -0.96336035051E-01  0.67317295364E-01 -0.64187485215E-01  0.14135688971E+00  0.45271261370E-01 0.  0.
         14    1    1    2    0    0  0.85195104027E-02  0.19833790795E-02  0.10783366831E-01  0.13885130546E-01  0.00000000000E+00 0.  1.
     999901    1    3    3    0    0  0.87816524648E-01 -0.69300674444E-01  0.53404118384E-01  0.88868797974E+00  0.88000000000E+00 0.  1.
        -11    1    4    4    0    0 -0.84320916036E-01  0.36878864537E-01 -0.55583691251E-01  0.10751686093E+00  0.51100000000E-03 0.  1.
         11    1    4    4    0    0 -0.12015119015E-01  0.30438430827E-01 -0.86037939641E-02  0.33840028778E-01  0.51100000000E-03 0. -1.
</event>
<event>
 8    1  0.2943605E+004  0.1043930E+01  0.7957747E-01            NaN
         13   -1    0    0    0    0  0.00000000000E+00  0.00000000000E+00  0.74505805969E-08  0.10566000000E+00  0.10566000000E+00 0.  1.
     999900   -1    0    0    0    0 -0.00000000000E+00 -0.00000000000E+00 -0.74505805969E-08  0.93827000000E+00  0.93827000000E+00 0.  1.
     999902    2    1    2    0    0  0.40279332956E-02 -0.86804699871E-02 -0.74129278186E-02  0.10318251950E+01  0.10317541891E+01 0.  0.
     999903    2    3    3    0    0 -0.20217190368E-02 -0.37260943371E-01 -0.13033164852E+00  0.14280188052E+00  0.44872856218E-01 0.  0.
         14    1    1    2    0    0 -0.40279332956E-02  0.86804699871E-02  0.74129278186E-02  0.12104805024E-01  0.00000000000E+00 0.  1.
     999901    1    3    3    0    0  0.60496523324E-02  0.28580473384E-01  0.12291872070E+00  0.88902331446E+00  0.88000000000E+00 0. -1.
        -11    1    4    4    0    0  0.16728664878E-01 -0.54215435990E-02 -0.68913188417E-01  0.71123343723E-01  0.51100000000E-03 0.  1.
         11    1    4    4    0    0 -0.18750383915E-01 -0.31839399772E-01 -0.61418460101E-01  0.71678536794E-01  0.51100000000E-03 0. -1.
</event>
<event>
 8    1  0.2943605E+004  0.1043930E+01  0.7957747E-01            NaN
         13   -1    0    0    0    0  0.00000000000E+00  0.00000000000E+00  0.74505805969E-08  0.10566000000E+00  0.10566000000E+00 0. -1.
     999900   -1    0    0    0    0 -0.00000000000E+00 -0.00000000000E+00 -0.74505805969E-08  0.93827000000E+00  0.93827000000E+00 0.  1.
     999902    2    1    2    0    0 -0.12828675525E-01 -0.84043885540E-04 -0.13333896184E-02  0.10310319417E+01  0.10309512622E+01 0.  0.
     999903    2    3    3    0    0 -0.70312386829E-01  0.11362191098E+00  0.13914405266E-01  0.14172551733E+00  0.45152421781E-01 0.  0.
         14    1    1    2    0    0  0.12828675525E-01  0.84043885540E-04  0.13333896184E-02  0.12898058264E-01  0.00000000000E+00 0. -1.
     999901    1    3    3    0    0  0.57483711303E-01 -0.11370595487E+00 -0.15247794885E-01  0.88930642440E+00  0.88000000000E+00 0.  1.
        -11    1    4    4    0    0 -0.56044459590E-01  0.98012720433E-01 -0.54632513083E-02  0.11303797173E+00  0.51100000000E-03 0.  1.
         11    1    4    4    0    0 -0.14267927239E-01  0.15609190548E-01  0.19377656575E-01  0.28687545601E-01  0.51100000000E-03 0. -1.
</event>
<event>
 8    1  0.2943605E+004  0.1043930E+01  0.7957747E-01            NaN
         13   -1    0    0    0    0  0.00000000000E+00  0.00000000000E+00  0.74505805969E-08  0.10566000000E+00  0.10566000000E+00 0. -1.
     999900   -1    0    0    0    0 -0.00000000000E+00 -0.00000000000E+00 -0.74505805969E-08  0.93827000000E+00  0.93827000000E+00 0.  1.
     999902    2    1    2    0    0  0.75675310716E-03  0.74816942582E-02 -0.10870654536E-01  0.10307118475E+01  0.10306270873E+01 0.  0.
     999903    2    3    3    0    0  0.30468323099E-01 -0.16407926665E-01  0.12634747669E+00  0.13926229378E+00  0.47252119863E-01 0.  0.
         14    1    1    2    0    0 -0.75675310716E-03 -0.74816942582E-02  0.10870654536E-01  0.13218152453E-01  0.00000000000E+00 0. -1.
     999901    1    3    3    0    0 -0.29711569992E-01  0.23889620923E-01 -0.13721813123E+00  0.89144955377E+00  0.88000000000E+00 0.  1.
        -11    1    4    4    0    0 -0.79321336064E-03 -0.25876931360E-01  0.54836234162E-01  0.60642546633E-01  0.51100000000E-03 0. -1.
         11    1    4    4    0    0  0.31261536460E-01  0.94690046954E-02  0.71511242530E-01  0.78619747144E-01  0.51100000000E-03 0.  1.
</event>
<event>
 8    1  0.2943605E+004  0.1043930E+01  0.7957747E-01            NaN
         13   -1    0    0    0    0  0.00000000000E+00  0.00000000000E+00  0.74505805969E-08  0.10566000000E+00  0.10566000000E+00 0. -1.
     999900   -1    0    0    0    0 -0.00000000000E+00 -0.00000000000E+00 -0.74505805969E-08  0.93827000000E+00  0.93827000000E+00 0.  1.
     999902    2    1    2    0    0 -0.86201917360E-02 -0.75193011217E-02  0.28552380130E-04  0.10324911010E+01  0.10324277337E+01 0.  0.
     999903    2    3    3    0    0  0.53666932887E-01  0.12058032100E+00 -0.15320624564E-01  0.14090554913E+00  0.46903078174E-01 0.  0.
         14    1    1    2    0    0  0.86201917360E-02  0.75193011217E-02 -0.28552380130E-04  0.11438898993E-01  0.00000000000E+00 0.  1.
     999901    1    3    3    0    0 -0.62287124623E-01 -0.12809962212E+00  0.15349176944E-01  0.89158555188E+00  0.88000000000E+00 0.  1.
        -11    1    4    4    0    0  0.17972372498E-01  0.93629650714E-01 -0.10230063434E-01  0.95887606003E-01  0.51100000000E-03 0.  1.
         11    1    4    4    0    0  0.35694560388E-01  0.26950670282E-01 -0.50905611291E-02  0.45017943129E-01  0.51100000000E-03 0. -1.
</event>
<event>
 8    1  0.2943605E+004  0.1043930E+01  0.7957747E-01            NaN
         13   -1    0    0    0    0  0.00000000000E+00  0.00000000000E+00  0.74505805969E-08  0.10566000000E+00  0.10566000000E+00 0. -1.
     999900   -1    0    0    0    0 -0.00000000000E+00 -0.00000000000E+00 -0.74505805969E-08  0.93827000000E+00  0.93827000000E+00 0.  1.
     999902    2    1    2    0    0  0.78188563182E-02 -0.76179808341E-02  0.10651189383E-01  0.10286782466E+01  0.10285651749E+01 0.  0.
     999903    2    3    3    0    0 -0.78511480738E-01  0.81444483189E-01  0.65484000446E-01  0.13828974334E+00  0.45151327209E-01 0.  0.
         14    1    1    2    0    0 -0.78188563182E-02  0.76179808341E-02 -0.10651189383E-01  0.15251753387E-01  0.00000000000E+00 0.  1.
     999901    1    3    3    0    0  0.86330337056E-01 -0.89062464023E-01 -0.54832811063E-01  0.89038850327E+00  0.88000000000E+00 0.  1.
        -11    1    4    4    0    0 -0.69182470615E-01  0.50806301736E-01  0.31095657889E-01  0.91294554038E-01  0.51100000000E-03 0.  1.
         11    1    4    4    0    0 -0.93290101232E-02  0.30638181453E-01  0.34388342557E-01  0.46995189301E-01  0.51100000000E-03 0. -1.
</event>
<event>
 8    1  0.2943605E+004  0.1043930E+01  0.7957747E-01            NaN
         13   -1    0    0    0    0  0.00000000000E+00  0.00000000000E+00  0.74505805969E-08  0.10566000000E+00  0.10566000000E+00 0.  1.
     999900   -1    0    0    0    0 -0.00000000000E+00 -0.00000000000E+00 -0.74505805969E-08  0.93827000000E+00  0.93827000000E+00 0.  1.
     999902    2    1    2    0    0 -0.58873370267E-02 -0.82372469808E-02  0.96647427200E-02  0.10299328493E+01  0.10298377318E+01 0.  0.
     999903    2    3    3    0    0 -0.12025503807E+00 -0.14265419039E-01 -0.53832516465E-01  0.14024289669E+00  0.45884135416E-01 0.  0.
         14    1    1    2    0    0  0.58873370267E-02  0.82372469808E-02 -0.96647427200E-02  0.13997150672E-01  0.00000000000E+00 0. -1.
     999901    1    3    3    0    0  0.11436770104E+00  0.60281720585E-02  0.63497259185E-01  0.88968995264E+00  0.88000000000E+00 0. -1.
        -11    1    4    4    0    0 -0.72137020946E-01  0.19775863027E-02 -0.94258669008E-02  0.72778903031E-01  0.51100000000E-03 0. -1.
         11    1    4    4    0    0 -0.48118017119E-01 -0.16243005342E-01 -0.44406649564E-01  0.67463993660E-01  0.51100000000E-03 0.  1.
</event>
<event>
 8    1  0.2943605E+004  0.1043930E+01  0.7957747E-01            NaN
         13   -1    0    0    0    0  0.00000000000E+00  0.00000000000E+00  0.74505805969E-08  0.10566000000E+00  0.10566000000E+00 0.  1.
     999900   -1    0    0    0    0 -0.00000000000E+00 -0.00000000000E+00 -0.74505805969E-08  0.93827000000E+00  0.93827000000E+00 0. -1.
     999902    2    1    2    0    0 -0.35076768802E-02  0.42908707174E-02 -0.13482252587E-01  0.10293530832E+01  0.10292498644E+01 0.  0.
     999903    2    3    3    0    0 -0.12018538769E-01 -0.68715030078E-01 -0.11389476116E+00  0.14059835427E+00  0.43928122775E-01 0.  0.
         14    1    1    2    0    0  0.35076768802E-02 -0.42908707174E-02  0.13482252587E-01  0.14576916801E-01  0.00000000000E+00 0.  1.
     999901    1    3    3    0    0  0.85108618888E-02  0.73005900796E-01  0.10041250857E+00  0.88875472893E+00  0.88000000000E+00 0.  1.
        -11    1    4    4    0    0 -0.11431419882E-01 -0.68504352212E-01 -0.77003315597E-01  0.10369809722E+00  0.51100000000E-03 0.  1.
         11    1    4    4    0    0 -0.58711888735E-03 -0.21067786582E-03 -0.36891445561E-01  0.36900257050E-01  0.51100000000E-03 0. -1.
</event>
<event>
 8    1  0.2943605E+004  0.1043930E+01  0.7957747E-01            NaN
         13   -1    0    0    0    0  0.00000000000E+00  0.00000000000E+00  0.74505805969E-08  0.10566000000E+00  0.10566000000E+00 0.  1.
     999900   -1    0    0    0    0 -0.00000000000E+00 -0.00000000000E+00 -0.74505805969E-08  0.93827000000E+00  0.93827000000E+00 0. -1.
     999902    2    1    2    0    0  0.11681171230E-02 -0.53004133430E-02  0.12598852391E-01  0.10302117654E+01  0.10301204258E+01 0.  0.
     999903    2    3    3    0    0  0.89962960836E-02  0.57059183626E-01 -0.11788644959E+00  0.13837298301E+00  0.43739954877E-01 0.  0.
         14    1    1    2    0    0 -0.11681171230E-02  0.53004133430E-02 -0.12598852391E-01  0.13718234609E-01  0.00000000000E+00 0. -1.
     999901    1    3    3    0    0 -0.78281789606E-02 -0.62359596969E-01  0.13048530198E+00  0.89183878238E+00  0.88000000000E+00 0.  1.
        -11    1    4    4    0    0 -0.11058586828E-01  0.19192287192E-01 -0.73115587040E-01  0.76398863993E-01  0.51100000000E-03 0. -1.
         11    1    4    4    0    0  0.20054882912E-01  0.37866896434E-01 -0.44770862547E-01  0.61974119020E-01  0.51100000000E-03 0.  1.
</event>
<event>
 8    1  0.2943605E+004  0.1043930E+01  0.7957747E-01            NaN
         13   -1    0    0    0    0  0.00000000000E+00  0.00000000000E+00  0.74505805969E-08  0.10566000000E+00  0.10566000000E+00 0.  1.
     999900   -1    0    0    0    0 -0.00000000000E+00 -0.00000000000E+00 -0.74505805969E-08  0.93827000000E+00  0.93827000000E+00 0.  1.
     999902    2    1    2    0    0 -0.21195987343E-02 -0.67803441952E-02 -0.13746517393E-01  0.10284563932E+01  0.10283399828E+01 0.  0.
     999903    2    3    3    0    0  0.15412419710E-01  0.10816905802E+00 -0.73221517599E-01  0.13881713353E+00  0.44392771118E-01 0.  0.
         14    1    1    2    0    0  0.21195987343E-02  0.67803441952E-02  0.13746517393E-01  0.15473606775E-01  0.00000000000E+00 0.  1.
     999901    1    3    3    0    0 -0.17532018445E-01 -0.11494940222E+00  0.59475000206E-01  0.88963925969E+00  0.88000000000E+00 0. -1.
        -11    1    4    4    0    0  0.20755950161E-01  0.99713747656E-01 -0.77441007021E-01  0.12794925411E+00  0.51100000000E-03 0.  1.
         11    1    4    4    0    0 -0.53435304509E-02  0.84553103649E-02  0.42194894216E-02  0.10867879417E-01  0.51100000000E-03 0. -1.
</event>
<event>
 8    1  0.2943605E+004  0.1043930E+01  0.7957747E-01            NaN
         13   -1    0    0    0    0  0.00000000000E+00  0.00000000000E+00  0.74505805969E-08  0.10566000000E+00  0.10566000000E+00 0.  1.
     999900   -1    0    0    0    0 -0.00000000000E+00 -0.00000000000E+00 -0.74505805969E-08  0.93827000000E+00  0.93827000000E+00 0. -1.
     999902    2    1    2    0    0 -0.65468935106E-04 -0.17194521645E-02 -0.13324425941E-01  0.10304949292E+01  0.10304073456E+01 0.  0.
     999903    2    3    3    0    0 -0.69226759131E-01  0.83408757086E-01 -0.78683151957E-01  0.14128074847E+00  0.44942702935E-01 0.  0.
         14    1    1    2    0    0  0.65468935106E-04  0.17194521645E-02  0.13324425941E-01  0.13435070844E-01  0.00000000000E+00 0.  1.
     999901    1    3    3    0    0  0.69161290196E-01 -0.85128209251E-01  0.65358726016E-01  0.88921418069E+00  0.88000000000E+00 0.  1.
        -11    1    4    4    0    0 -0.24905460980E-01  0.59584794129E-01 -0.29802981984E-01  0.71127410569E-01  0.51100000000E-03 0. -1.
         11    1    4    4    0    0 -0.44321298151E-01  0.23823962957E-01 -0.48880169973E-01  0.70153337899E-01  0.51100000000E-03 0.  1.
</event>
<event>
 8    1  0.2943605E+004  0.1043930E+01  0.7957747E-01            NaN
         13   -1    0    0    0    0  0.00000000000E+00  0.00000000000E+00  0.74505805969E-08  0.10566000000E+00  0.10566000000E+00 0.  1.
     999900   -1    0    0    0    0 -0.00000000000E+00 -0.00000000000E+00 -0.74505805969E-08  0.93827000000E+00  0.93827000000E+00 0. -1.
     999902    2    1    2    0    0 -0.10737333688E-01 -0.92435939322E-02 -0.21610883552E-02  0.10295980543E+01  0.10294982996E+01 0.  0.
     999903    2    3    3    0    0 -0.18244455258E-01 -0.13011255127E+00  0.23736747667E-01  0.14092693428E+00  0.45109106276E-01 0.  0.
         14    1    1    2    0    0  0.10737333688E-01  0.92435939322E-02  0.21610883552E-02  0.14331945659E-01  0.00000000000E+00 0.  1.
     999901    1    3    3    0    0  0.75071215699E-02  0.12086895734E+00 -0.25897836022E-01  0.88867112006E+00  0.88000000000E+00 0. -1.
        -11    1    4    4    0    0 -0.17525811277E-01 -0.15810017652E-01  0.10564096429E-01  0.25864492522E-01  0.51100000000E-03 0. -1.
         11    1    4    4    0    0 -0.71864398081E-03 -0.11430253362E+00  0.13172651238E-01  0.11506244176E+00  0.51100000000E-03 0.  1.
</event>
<event>
 8    1  0.2943605E+004  0.1043930E+01  0.7957747E-01            NaN
         13   -1    0    0    0    0  0.00000000000E+00  0.00000000000E+00  0.74505805969E-08  0.10566000000E+00  0.10566000000E+00 0.  1.
     999900   -1    0    0    0    0 -0.00000000000E+00 -0.00000000000E+00 -0.74505805969E-08  0.93827000000E+00  0.93827000000E+00 0.  1.
     999902    2    1    2    0    0 -0.97210756855E-02 -0.46608290095E-02  0.83940277929E-02  0.10302668253E+01  0.10301762223E+01 0.  0.
     999903    2    3    3    0    0 -0.53969831785E-01  0.67494530303E-01  0.10260907363E+00  0.14119943578E+00  0.44050020536E-01 0.  0.
         14    1    1    2    0    0  0.97210756855E-02  0.46608290095E-02 -0.83940277929E-02  0.13663174672E-01  0.00000000000E+00 0. -1.
     999901    1    3    3    0    0  0.44248756100E-01 -0.72155359313E-01 -0.94215045840E-01  0.88906738955E+00  0.88000000000E+00 0.  1.
        -11    1    4    4    0    0 -0.20635179694E-01  0.27163978841E-01  0.11263058824E-01  0.35927844390E-01  0.51100000000E-03 0.  1.
         11    1    4    4    0    0 -0.33334652091E-01  0.40330551462E-01  0.91346014809E-01  0.10527159139E+00  0.51100000000E-03 0. -1.
</event>
<event>
 8    1  0.2943605E+004  0.1043930E+01  0.7957747E-01            NaN
         13   -1    0    0    0    0  0.00000000000E+00  0.00000000000E+00  0.74505805969E-08  0.10566000000E+00  0.10566000000E+00 0. -1.
     999900   -1    0    0    0    0 -0.00000000000E+00 -0.00000000000E+00 -0.74505805969E-08  0.93827000000E+00  0.93827000000E+00 0. -1.
     999902    2    1    2    0    0 -0.31582130976E-02 -0.80140130751E-02 -0.11023890563E-01  0.10299398292E+01  0.10298448072E+01 0.  0.
     999903    2    3    3    0    0 -0.46826838621E-01  0.11822476843E+00 -0.35847394759E-01  0.13951331053E+00  0.44822755582E-01 0.  0.
         14    1    1    2    0    0  0.31582130976E-02  0.80140130751E-02  0.11023890563E-01  0.13990170788E-01  0.00000000000E+00 0. -1.
     999901    1    3    3    0    0  0.43668625523E-01 -0.12623878151E+00  0.24823504196E-01  0.89042651868E+00  0.88000000000E+00 0.  1.
        -11    1    4    4    0    0 -0.22957751125E-01  0.98245445002E-01 -0.14893274592E-01  0.10198674693E+00  0.51100000000E-03 0.  1.
         11    1    4    4    0    0 -0.23869087496E-01  0.19979323430E-01 -0.20954120167E-01  0.37526563599E-01  0.51100000000E-03 0. -1.
</event>
<event>
 8    1  0.2943605E+004  0.1043930E+01  0.7957747E-01            NaN
         13   -1    0    0    0    0  0.00000000000E+00  0.00000000000E+00  0.74505805969E-08  0.10566000000E+00  0.10566000000E+00 0. -1.
     999900   -1    0    0    0    0 -0.00000000000E+00 -0.00000000000E+00 -0.74505805969E-08  0.93827000000E+00  0.93827000000E+00 0.  1.
     999902    2    1    2    0    0  0.12366524062E-02  0.56172298339E-02  0.16121404346E-01  0.10268132755E+01  0.10266705998E+01 0.  0.
     999903    2    3    3    0    0 -0.95446521073E-01 -0.91641777748E-01  0.48444149387E-02  0.13612021888E+00  0.31575177240E-01 0.  0.
         14    1    1    2    0    0 -0.12366524062E-02 -0.56172298339E-02 -0.16121404346E-01  0.17116724519E-01  0.00000000000E+00 0.  1.
     999901    1    3    3    0    0  0.96683173479E-01  0.97259007582E-01  0.11276989407E-01  0.89069305660E+00  0.88000000000E+00 0. -1.
        -11    1    4    4    0    0 -0.44869807567E-01 -0.30152103510E-01 -0.10403300985E-01  0.55053962342E-01  0.51100000000E-03 0. -1.
         11    1    4    4    0    0 -0.50576713506E-01 -0.61489674238E-01  0.15247715924E-01  0.81066256537E-01  0.51100000000E-03 0.  1.
</event>
<event>
 8    1  0.2943605E+004  0.1043930E+01  0.7957747E-01            NaN
         13   -1    0    0    0    0  0.00000000000E+00  0.00000000000E+00  0.74505805969E-08  0.10566000000E+00  0.10566000000E+00 0. -1.
     999900   -1    0    0    0    0 -0.00000000000E+00 -0.00000000000E+00 -0.74505805969E-08  0.93827000000E+00  0.93827000000E+00 0.  1.
     999902    2    1    2    0    0  0.12594852963E-01  0.46905020903E-02 -0.35832380083E-02  0.10300206245E+01  0.10299267043E+01 0.  0.
     999903    2    3    3    0    0  0.97141215844E-01  0.27006100453E-01  0.87794542846E-01  0.14097845893E+00  0.44735878785E-01 0.  0.
         14    1    1    2    0    0 -0.12594852963E-01 -0.46905020903E-02  0.35832380083E-02  0.13909375458E-01  0.00000000000E+00 0. -1.
     999901    1    3    3    0    0 -0.84546362881E-01 -0.22315598363E-01 -0.91377780854E-01  0.88904216561E+00  0.88000000000E+00 0.  1.
        -11    1    4    4    0    0  0.66902240509E-02  0.69267101005E-02  0.30621881133E-01  0.32104503356E-01  0.51100000000E-03 0.  1.
         11    1    4    4    0    0  0.90450991793E-01  0.20079390353E-01  0.57172661713E-01  0.10887395557E+00  0.51100000000E-03 0. -1.
</event>
<event>
 8    1  0.2943605E+004  0.1043930E+01  0.7957747E-01            NaN
         13   -1    0    0    0    0  0.00000000000E+00  0.00000000000E+00  0.74505805969E-08  0.10566000000E+00  0.10566000000E+00 0. -1.
     999900   -1    0    0    0    0 -0.00000000000E+00 -0.00000000000E+00 -0.74505805969E-08  0.93827000000E+00  0.93827000000E+00 0.  1.
     999902    2    1    2    0    0 -0.92979399461E-02  0.97616031494E-02  0.14053214075E-01  0.10244560839E+01  0.10242709770E+01 0.  0.
     999903    2    3    3    0    0 -0.85345837433E-01 -0.89402293085E-01 -0.31362154067E-01  0.13446770379E+00  0.42676652619E-01 0.  0.
         14    1    1    2    0    0  0.92979399461E-02 -0.97616031494E-02 -0.14053214075E-01  0.19473916122E-01  0.00000000000E+00 0.  1.
     999901    1    3    3    0    0  0.76047897487E-01  0.99163896235E-01  0.45415368142E-01  0.88998838009E+00  0.88000000000E+00 0. -1.
        -11    1    4    4    0    0 -0.47662670706E-01 -0.20346536974E-01 -0.16638114330E-01  0.54431605847E-01  0.51100000000E-03 0.  1.
         11    1    4    4    0    0 -0.37683166727E-01 -0.69055756112E-01 -0.14724039738E-01  0.80036097943E-01  0.51100000000E-03 0. -1.
</event>
<event>
 8    1  0.2943605E+004  0.1043930E+01  0.7957747E-01            NaN
         13   -1    0    0    0    0  0.00000000000E+00  0.00000000000E+00  0.74505805969E-08  0.10566000000E+00  0.10566000000E+00 0.  1.
     999900   -1    0    0    0    0 -0.00000000000E+00 -0.00000000000E+00 -0.74505805969E-08  0.93827000000E+00  0.93827000000E+00 0.  1.
     999902    2    1    2    0    0 -0.10922794045E-01  0.71636367634E-02 -0.57056349024E-02  0.10296758991E+01  0.10295772326E+01 0.  0.
     999903    2    3    3    0    0  0.51433775228E-01  0.13882242581E-01  0.11943155814E+00  0.13861316372E+00  0.45951737530E-01 0.  0.
         14    1    1    2    0    0  0.10922794045E-01 -0.71636367634E-02  0.57056349024E-02  0.14254100851E-01  0.00000000000E+00 0. -1.
     999901    1    3    3    0    0 -0.62356569273E-01 -0.67186058180E-02 -0.12513719304E+00  0.89106273543E+00  0.88000000000E+00 0.  1.
        -11    1    4    4    0    0  0.98402826470E-02 -0.73064047437E-02  0.68234659436E-01  0.69328526468E-01  0.51100000000E-03 0.  1.
         11    1    4    4    0    0  0.41593492581E-01  0.21188647325E-01  0.51196898705E-01  0.69284637248E-01  0.51100000000E-03 0. -1.
</event>
<event>
 8    1  0.2943605E+004  0.1043930E+01  0.7957747E-01            NaN
         13   -1    0    0    0    0  0.00000000000E+00  0.00000000000E+00  0.74505805969E-08  0.10566000000E+00  0.10566000000E+00 0. -1.
     999900   -1    0    0    0    0 -0.00000000000E+00 -0.00000000000E+00 -0.74505805969E-08  0.93827000000E+00  0.93827000000E+00 0. -1.
     999902    2    1    2    0    0  0.13167262934E-01  0.34061348084E-02 -0.30828633873E-02  0.10299842976E+01  0.10298898828E+01 0.  0.
     999903    2    3    3    0    0  0.84422180135E-01 -0.42248938413E-01 -0.95053544780E-01  0.14115346156E+00  0.44463985874E-01 0.  0.
         14    1    1    2    0    0 -0.13167262934E-01 -0.34061348084E-02  0.30828633873E-02  0.13945702355E-01  0.00000000000E+00 0. -1.
     999901    1    3    3    0    0 -0.71254917201E-01  0.45655073222E-01  0.91970681393E-01  0.88883083608E+00  0.88000000000E+00 0.  1.
        -11    1    4    4    0    0  0.59894630332E-01 -0.10074620868E-01 -0.39595189827E-01  0.72504516457E-01  0.51100000000E-03 0.  1.
         11    1    4    4    0    0  0.24527549803E-01 -0.32174317545E-01 -0.55458354953E-01  0.68648945105E-01  0.51100000000E-03 0. -1.
</event>
<event>
 8    1  0.2943605E+004  0.1043930E+01  0.7957747E-01            NaN
         13   -1    0    0    0    0  0.00000000000E+00  0.00000000000E+00  0.74505805969E-08  0.10566000000E+00  0.10566000000E+00 0. -1.
     999900   -1    0    0    0    0 -0.00000000000E+00 -0.00000000000E+00 -0.74505805969E-08  0.93827000000E+00  0.93827000000E+00 0.  1.
     999902    2    1    2    0    0 -0.10315851289E-01 -0.19059068018E-02 -0.83827785197E-02  0.10305016626E+01  0.10304141674E+01 0.  0.
     999903    2    3    3    0    0 -0.13416415407E+00  0.98516747156E-02 -0.29916995309E-02  0.14173526670E+00  0.44529314240E-01 0.  0.
         14    1    1    2    0    0  0.10315851289E-01  0.19059068018E-02  0.83827785197E-02  0.13428337360E-01  0.00000000000E+00 0. -1.
     999901    1    3    3    0    0  0.12384830278E+00 -0.11757581517E-01 -0.53910789888E-02  0.88876639594E+00  0.88000000000E+00 0. -1.
        -11    1    4    4    0    0 -0.31009667440E-01  0.21291901320E-01  0.32514939871E-02  0.37759473920E-01  0.51100000000E-03 0.  1.
         11    1    4    4    0    0 -0.10315448663E+00 -0.11440226604E-01 -0.62431935180E-02  0.10397579278E+00  0.51100000000E-03 0. -1.
</event>
<event>
 8    1  0.2943605E+004  0.1043930E+01  0.7957747E-01            NaN
         13   -1    0    0    0    0  0.00000000000E+00  0.00000000000E+00  0.74505805969E-08  0.10566000000E+00  0.10566000000E+00 0.  1.
     999900   -1    0    0    0    0 -0.00000000000E+00 -0.00000000000E+00 -0.74505805969E-08  0.93827000000E+00  0.93827000000E+00 0. -1.
     999902    2    1    2    0    0  0.94416769410E-02  0.85870963365E-02  0.57022560788E-02  0.10299514732E+01  0.10298566104E+01 0.  0.
     999903    2    3    3    0    0 -0.96683525900E-01  0.25650979613E-01  0.87541810015E-01  0.13964172521E+00  0.42785114036E-01 0.  0.
         14    1    1    2    0    0 -0.94416769410E-02 -0.85870963365E-02 -0.57022560788E-02  0.13978526794E-01  0.00000000000E+00 0. -1.
     999901    1    3    3    0    0  0.10612520284E+00 -0.17063883276E-01 -0.81839553936E-01  0.89030974800E+00  0.88000000000E+00 0. -1.
        -11    1    4    4    0    0 -0.96890425320E-01  0.26057921517E-01  0.70595389934E-01  0.12268145741E+00  0.51100000000E-03 0.  1.
         11    1    4    4    0    0  0.20689942031E-03 -0.40694190458E-03  0.16946420080E-01  0.16960267793E-01  0.51100000000E-03 0. -1.
</event>
<event>
 8    1  0.2943605E+004  0.1043930E+01  0.7957747E-01            NaN
         13   -1    0    0    0    0  0.00000000000E+00  0.00000000000E+00  0.74505805969E-08  0.10566000000E+00  0.10566000000E+00 0.  1.
     999900   -1    0    0    0    0 -0.00000000000E+00 -0.00000000000E+00 -0.74505805969E-08  0.93827000000E+00  0.93827000000E+00 0.  1.
     999902    2    1    2    0    0  0.36105823951E-02 -0.32951555207E-03 -0.14086844754E-01  0.10293840700E+01  0.10292812926E+01 0.  0.
     999903    2    3    3    0    0 -0.11491817642E-01 -0.27068342943E-01  0.12545704404E+00  0.13785978858E+00  0.49000962702E-01 0.  0.
         14    1    1    2    0    0 -0.36105823951E-02  0.32951555207E-03  0.14086844754E-01  0.14545930045E-01  0.00000000000E+00 0.  1.
     999901    1    3    3    0    0  0.15102400037E-01  0.26738827390E-01 -0.13954388880E+00  0.89152428137E+00  0.88000000000E+00 0.  1.
        -11    1    4    4    0    0 -0.20475654578E-01 -0.26678218102E-01  0.41486524069E-01  0.53407607622E-01  0.51100000000E-03 0. -1.
         11    1    4    4    0    0  0.89838369362E-02 -0.39012484029E-03  0.83970519973E-01  0.84452180961E-01  0.51100000000E-03 0.  1.
</event>
<event>
 8    1  0.2943605E+004  0.1043930E+01  0.7957747E-01            NaN
         13   -1    0    0    0    0  0.00000000000E+00  0.00000000000E+00  0.74505805969E-08  0.10566000000E+00  0.10566000000E+00 0.  1.
     999900   -1    0    0    0    0 -0.00000000000E+00 -0.00000000000E+00 -0.74505805969E-08  0.93827000000E+00  0.93827000000E+00 0. -1.
     999902    2    1    2    0    0  0.12349932351E-01 -0.64675247366E-02 -0.82449649160E-03  0.10299647037E+01  0.10298700216E+01 0.  0.
     999903    2    3    3    0    0 -0.88883192210E-01 -0.31106083564E-01  0.92093228552E-01  0.13896026619E+00  0.44282982552E-01 0.  0.
         14    1    1    2    0    0 -0.12349932351E-01  0.64675247366E-02  0.82449649160E-03  0.13965296265E-01  0.00000000000E+00 0.  1.
     999901    1    3    3    0    0  0.10123312456E+00  0.24638558827E-01 -0.92917725044E-01  0.89100443754E+00  0.88000000000E+00 0.  1.
        -11    1    4    4    0    0 -0.36425156958E-01 -0.95195284342E-02  0.96214182513E-02  0.38861887386E-01  0.51100000000E-03 0.  1.
         11    1    4    4    0    0 -0.52458035251E-01 -0.21586555130E-01  0.82471810301E-01  0.10009837881E+00  0.51100000000E-03 0. -1.
</event>
<event>
 8    1  0.2943605E+004  0.1043930E+01  0.7957747E-01            NaN
         13   -1    0    0    0    0  0.00000000000E+00  0.00000000000E+00  0.74505805969E-08  0.10566000000E+00  0.10566000000E+00 0. -1.
     999900   -1    0    0    0    0 -0.00000000000E+00 -0.00000000000E+00 -0.74505805969E-08  0.93827000000E+00  0.93827000000E+00 0.  1.
     999902    2    1    2    0    0 -0.11605477197E-01  0.10131018011E-01 -0.72958538016E-02  0.10268843522E+01  0.10267428688E+01 0.  0.
     999903    2    3    3    0    0  0.26432957567E-01  0.57443769988E-01 -0.11427554340E+00  0.13832930436E+00  0.45580792770E-01 0.  0.
         14    1    1    2    0    0  0.11605477197E-01 -0.10131018011E-01  0.72958538016E-02  0.17045647820E-01  0.00000000000E+00 0.  1.
     999901    1    3    3    0    0 -0.38038434764E-01 -0.47312751976E-01  0.10697968960E+00  0.88855504782E+00  0.88000000000E+00 0. -1.
        -11    1    4    4    0    0  0.19373112120E-01  0.13198715186E-01 -0.11301698633E-01  0.26029081213E-01  0.51100000000E-03 0.  1.
         11    1    4    4    0    0  0.70598454463E-02  0.44245054801E-01 -0.10297384477E+00  0.11230022315E+00  0.51100000000E-03 0. -1.
</event>
<event>
 8    1  0.2943605E+004  0.1043930E+01  0.7957747E-01            NaN
         13   -1    0    0    0    0  0.00000000000E+00  0.00000000000E+00  0.74505805969E-08  0.10566000000E+00  0.10566000000E+00 0. -1.
     999900   -1    0    0    0    0 -0.00000000000E+00 -0.00000000000E+00 -0.74505805969E-08  0.93827000000E+00  0.93827000000E+00 0. -1.
     999902    2    1    2    0    0 -0.15795222872E-02 -0.79232685428E-02 -0.97020918885E-02  0.10313044837E+01  0.10312271983E+01 0.  0.
     999903    2    3    3    0    0  0.38025302375E-01  0.10895205251E+00 -0.67005134434E-01  0.14084840870E+00  0.45078962105E-01 0.  0.
         14    1    1    2    0    0  0.15795222872E-02  0.79232685428E-02  0.97020918885E-02  0.12625516309E-01  0.00000000000E+00 0. -1.
     999901    1    3    3    0    0 -0.39604824662E-01 -0.11687532106E+00  0.57303042545E-01  0.89045607499E+00  0.88000000000E+00 0.  1.
        -11    1    4    4    0    0  0.17632514963E-01  0.96023229179E-01 -0.42619344324E-01  0.10652715972E+00  0.51100000000E-03 0.  1.
         11    1    4    4    0    0  0.20392787412E-01  0.12928823335E-01 -0.24385790110E-01  0.34321248980E-01  0.51100000000E-03 0. -1.
</event>
<event>
 8    1  0.2943605E+004  0.1043930E+01  0.7957747E-01            NaN
         13   -1    0    0    0    0  0.00000000000E+00  0.00000000000E+00  0.74505805969E-08  0.10566000000E+00  0.10566000000E+00 0. -1.
     999900   -1    0    0    0    0 -0.00000000000E+00 -0.00000000000E+00 -0.74505805969E-08  0.93827000000E+00  0.93827000000E+00 0. -1.
     999902    2    1    2    0    0  0.86696201551E-02 -0.75259434471E-02 -0.78633721877E-02  0.10300147292E+01  0.10299207288E+01 0.  0.
     999903    2    3    3    0    0 -0.12866487574E+00 -0.21124102034E-01 -0.17913364538E-01  0.13920236064E+00  0.45337960289E-01 0.  0.
         14    1    1    2    0    0 -0.86696201551E-02  0.75259434471E-02  0.78633721877E-02  0.13915270769E-01  0.00000000000E+00 0. -1.
     999901    1    3    3    0    0  0.13733449590E+00  0.13598158587E-01  0.10049992350E-01  0.89081236859E+00  0.88000000000E+00 0.  1.
        -11    1    4    4    0    0 -0.15572492156E-01 -0.18986829272E-01  0.67903927193E-03  0.24570804079E-01  0.51100000000E-03 0. -1.
         11    1    4    4    0    0 -0.11309238359E+00 -0.21372727627E-02 -0.18592403810E-01  0.11463155657E+00  0.51100000000E-03 0.  1.
</event>
<event>
 8    1  0.2943605E+004  0.1043930E+01  0.7957747E-01            NaN
         13   -1    0    0    0    0  0.00000000000E+00  0.00000000000E+00  0.74505805969E-08  0.10566000000E+00  0.10566000000E+00 0. -1.
     999900   -1    0    0    0    0 -0.00000000000E+00 -0.00000000000E+00 -0.74505805969E-08  0.93827000000E+00  0.93827000000E+00 0.  1.
     999902    2    1    2    0    0 -0.42965425795E-02 -0.90147517894E-02  0.10374109216E-01  0.10295304108E+01  0.10294297055E+01 0.  0.
     999903    2    3    3    0    0 -0.12566739687E-01 -0.12945930768E+00  0.30003389140E-01  0.14107073479E+00  0.45641138938E-01 0.  0.
         14    1    1    2    0    0  0.42965425795E-02  0.90147517894E-02 -0.10374109216E-01  0.14399589230E-01  0.00000000000E+00 0.  1.
     999901    1    3    3    0    0  0.82701971073E-02  0.12044455589E+00 -0.19629279924E-01  0.88845967598E+00  0.88000000000E+00 0. -1.
        -11    1    4    4    0    0 -0.11314731742E-01 -0.57441714746E-01  0.36100507371E-01  0.68782857609E-01  0.51100000000E-03 0. -1.
         11    1    4    4    0    0 -0.12520079444E-02 -0.72017592936E-01 -0.60971182315E-02  0.72287877185E-01  0.51100000000E-03 0.  1.
</event>
<event>
 8    1  0.2943605E+004  0.1043930E+01  0.7957747E-01            NaN
         13   -1    0    0    0    0  0.00000000000E+00  0.00000000000E+00  0.74505805969E-08  0.10566000000E+00  0.10566000000E+00 0.  1.
     999900   -1    0    0    0    0 -0.00000000000E+00 -0.00000000000E+00 -0.74505805969E-08  0.93827000000E+00  0.93827000000E+00 0. -1.
     999902    2    1    2    0    0  0.98329400421E-02  0.68046919977E-03  0.92737209836E-02  0.10303966468E+01  0.10303077686E+01 0.  0.
     999903    2    3    3    0    0  0.82503928143E-01 -0.38596143953E-01  0.99365624063E-01  0.14194840640E+00  0.44488901393E-01 0.  0.
         14    1    1    2    0    0 -0.98329400421E-02 -0.68046919977E-03 -0.92737209836E-02  0.13533353209E-01  0.00000000000E+00 0.  1.
     999901    1    3    3    0    0 -0.72670988101E-01  0.39276613152E-01 -0.90091903080E-01  0.88844824039E+00  0.88000000000E+00 0.  1.
        -11    1    4    4    0    0  0.12669712136E-01 -0.23399944224E-01  0.44481994772E-01  0.51836164743E-01  0.51100000000E-03 0.  1.
         11    1    4    4    0    0  0.69834216006E-01 -0.15196199728E-01  0.54883629291E-01  0.90112241658E-01  0.51100000000E-03 0. -1.
</event>
<event>
 8    1  0.2943605E+004  0.1043930E+01  0.7957747E-01            NaN
         13   -1    0    0    0    0  0.00000000000E+00  0.00000000000E+00  0.74505805969E-08  0.10566000000E+00  0.10566000000E+00 0.  1.
     999900   -1    0    0    0    0 -0.00000000000E+00 -0.00000000000E+00 -0.74505805969E-08  0.93827000000E+00  0.93827000000E+00 0.  1.
     999902    2    1    2    0    0  0.12908862912E-01 -0.68017893210E-02  0.11615248406E-01  0.10252801454E+01  0.10251105109E+01 0.  0.
     999903    2    3    3    0    0 -0.21943629106E-01  0.11243144381E+00 -0.53649296923E-01  0.13416246468E+00  0.44709813833E-01 0.  0.
         14    1    1    2    0    0 -0.12908862912E-01  0.68017893210E-02 -0.11615248406E-01  0.18649854562E-01  0.00000000000E+00 0.  1.
     999901    1    3    3    0    0  0.34852492017E-01 -0.11923323313E+00  0.65264545329E-01  0.89111768076E+00  0.88000000000E+00 0. -1.
        -11    1    4    4    0    0 -0.34824249404E-01  0.64157171083E-01 -0.31463110077E-01  0.79492511375E-01  0.51100000000E-03 0. -1.
         11    1    4    4    0    0  0.12880620298E-01  0.48274272727E-01 -0.22186186846E-01  0.54669953305E-01  0.51100000000E-03 0.  1.
</event>
<event>
 8    1  0.2943605E+004  0.1043930E+01  0.7957747E-01            NaN
         13   -1    0    0    0    0  0.00000000000E+00  0.00000000000E+00  0.74505805969E-08  0.10566000000E+00  0.10566000000E+00 0.  1.
     999900   -1    0    0    0    0 -0.00000000000E+00 -0.00000000000E+00 -0.74505805969E-08  0.93827000000E+00  0.93827000000E+00 0.  1.
     999902    2    1    2    0    0 -0.27493181594E-03  0.29001554478E-03 -0.13861399385E-01  0.10300628413E+01  0.10299694942E+01 0.  0.
     999903    2    3    3    0    0  0.61892708953E-01 -0.51194075537E-01  0.10354762513E+00  0.13860319209E+00  0.45135278832E-01 0.  0.
         14    1    1    2    0    0  0.27493181594E-03 -0.29001554478E-03  0.13861399385E-01  0.13867158665E-01  0.00000000000E+00 0.  1.
     999901    1    3    3    0    0 -0.62167640769E-01  0.51484091081E-01 -0.11740902452E+00  0.89145964924E+00  0.88000000000E+00 0.  1.
        -11    1    4    4    0    0  0.11281271796E-01 -0.38953763665E-02  0.48987438728E-01  0.50422924593E-01  0.51100000000E-03 0.  1.
         11    1    4    4    0    0  0.50611437157E-01 -0.47298699170E-01  0.54560186405E-01  0.88180267497E-01  0.51100000000E-03 0. -1.
</event>
<event>
 8    1  0.2943605E+004  0.1043930E+01  0.7957747E-01            NaN
         13   -1    0    0    0    0  0.00000000000E+00  0.00000000000E+00  0.74505805969E-08  0.10566000000E+00  0.10566000000E+00 0.  1.
     999900   -1    0    0    0    0 -0.00000000000E+00 -0.00000000000E+00 -0.74505805969E-08  0.93827000000E+00  0.93827000000E+00 0. -1.
     999902    2    1    2    0    0  0.23596984960E-02 -0.96339406293E-02 -0.98535829428E-02  0.10299487953E+01  0.10298538958E+01 0.  0.
     999903    2    3    3    0    0 -0.30457929975E-01  0.42074380971E-02 -0.13003012225E+00  0.14106692398E+00  0.45239985786E-01 0.  0.
         14    1    1    2    0    0 -0.23596984960E-02  0.96339406293E-02  0.98535829428E-02  0.13981204735E-01  0.00000000000E+00 0.  1.
     999901    1    3    3    0    0  0.32817628471E-01 -0.13841378726E-01  0.12017653931E+00  0.88888187129E+00  0.88000000000E+00 0.  1.
        -11    1    4    4    0    0 -0.22592493333E-01 -0.19311724869E-01 -0.76363418449E-01  0.81945080820E-01  0.51100000000E-03 0.  1.
         11    1    4    4    0    0 -0.78654366421E-02  0.23519162966E-01 -0.53666703802E-01  0.59121843157E-01  0.51100000000E-03 0. -1.
</event>
<event>
 8    1  0.2943605E+004  0.1043930E+01  0.7957747E-01            NaN
         13   -1    0    0    0    0  0.00000000000E+00  0.00000000000E+00  0.74505805969E-08  0.10566000000E+00  0.10566000000E+00 0. -1.
     999900   -1    0    0    0    0 -0.00000000000E+00 -0.00000000000E+00 -0.74505805969E-08  0.93827000000E+00  0.93827000000E+00 0. -1.
     999902    2    1    2    0    0  0.52065973682E-02 -0.11518381767E-01 -0.19238940013E-02  0.10311439473E+01  0.10310646716E+01 0.  0.
     999903    2    3    3    0    0  0.43359881112E-01 -0.12538751186E+00 -0.26452250782E-01  0.14264887580E+00  0.45242378098E-01 0.  0.
         14    1    1    2    0    0 -0.52065973682E-02  0.11518381767E-01  0.19238940013E-02  0.12786052667E-01  0.00000000000E+00 0. -1.
     999901    1    3    3    0    0 -0.38153283744E-01  0.11386913009E+00  0.24528356780E-01  0.88849507153E+00  0.88000000000E+00 0.  1.
        -11    1    4    4    0    0  0.93999707381E-04 -0.69425180382E-01 -0.12299628017E-01  0.70508201490E-01  0.51100000000E-03 0.  1.
         11    1    4    4    0    0  0.43265881405E-01 -0.55962331477E-01 -0.14152622765E-01  0.72140674312E-01  0.51100000000E-03 0. -1.
</event>
<event>
 8    1  0.2943605E+004  0.1043930E+01  0.7957747E-01            NaN
         13   -1    0    0    0    0  0.00000000000E+00  0.00000000000E+00  0.74505805969E-08  0.10566000000E+00  0.10566000000E+00 0.  1.
     999900   -1    0    0    0    0 -0.00000000000E+00 -0.00000000000E+00 -0.74505805969E-08  0.93827000000E+00  0.93827000000E+00 0. -1.
     999902    2    1    2    0    0 -0.11936343550E-01  0.18897485737E-01 -0.63279156617E-02  0.10206999810E+01  0.10204356018E+01 0.  0.
     999903    2    3    3    0    0 -0.72124015399E-01 -0.65786674897E-01  0.74412466587E-01  0.13091743893E+00  0.45523625092E-01 0.  0.
         14    1    1    2    0    0  0.11936343550E-01 -0.18897485737E-01  0.63279156617E-02  0.23230018966E-01  0.00000000000E+00 0. -1.
     999901    1    3    3    0    0  0.60187671849E-01  0.84684160634E-01 -0.80740382248E-01  0.88978254210E+00  0.88000000000E+00 0. -1.
        -11    1    4    4    0    0 -0.34257010193E-01 -0.59488902259E-01  0.54606880999E-01  0.87719124555E-01  0.51100000000E-03 0.  1.
         11    1    4    4    0    0 -0.37867005206E-01 -0.62977726389E-02  0.19805585588E-01  0.43198314377E-01  0.51100000000E-03 0. -1.
</event>
<event>
 8    1  0.2943605E+004  0.1043930E+01  0.7957747E-01            NaN
         13   -1    0    0    0    0  0.00000000000E+00  0.00000000000E+00  0.74505805969E-08  0.10566000000E+00  0.10566000000E+00 0.  1.
     999900   -1    0    0    0    0 -0.00000000000E+00 -0.00000000000E+00 -0.74505805969E-08  0.93827000000E+00  0.93827000000E+00 0. -1.
     999902    2    1    2    0    0 -0.63037812988E-02  0.13063779874E-01 -0.15854365150E-02  0.10293384404E+01  0.10292350126E+01 0.  0.
     999903    2    3    3    0    0  0.25079329108E-01  0.55106408461E-01 -0.11864885265E+00  0.14003740831E+00  0.43211531897E-01 0.  0.
         14    1    1    2    0    0  0.63037812988E-02 -0.13063779874E-01  0.15854365150E-02  0.14591559622E-01  0.00000000000E+00 0.  1.
     999901    1    3    3    0    0 -0.31383110407E-01 -0.42042628587E-01  0.11706341614E+00  0.88930103207E+00  0.88000000000E+00 0.  1.
        -11    1    4    4    0    0  0.28024993337E-01  0.43185522536E-01 -0.55495937654E-01  0.75699734645E-01  0.51100000000E-03 0. -1.
         11    1    4    4    0    0 -0.29456642287E-02  0.11920885925E-01 -0.63152914999E-01  0.64337673666E-01  0.51100000000E-03 0.  1.
</event>
<event>
 8    1  0.2943605E+004  0.1043930E+01  0.7957747E-01            NaN
         13   -1    0    0    0    0  0.00000000000E+00  0.00000000000E+00  0.74505805969E-08  0.10566000000E+00  0.10566000000E+00 0. -1.
     999900   -1    0    0    0    0 -0.00000000000E+00 -0.00000000000E+00 -0.74505805969E-08  0.93827000000E+00  0.93827000000E+00 0. -1.
     999902    2    1    2    0    0 -0.22387609782E-02 -0.14185561910E-01  0.62579279923E-03  0.10295552362E+01  0.10294548803E+01 0.  0.
     999903    2    3    3    0    0 -0.10549709927E+00  0.73357710460E-01  0.27113289726E-01  0.13880965162E+00  0.44966623900E-01 0.  0.
         14    1    1    2    0    0  0.22387609782E-02  0.14185561910E-01 -0.62579279923E-03  0.14374763791E-01  0.00000000000E+00 0.  1.
     999901    1    3    3    0    0  0.10325833830E+00 -0.87543272369E-01 -0.26487496927E-01  0.89074558459E+00  0.88000000000E+00 0.  1.
        -11    1    4    4    0    0 -0.25832544746E-01  0.44068873943E-01  0.13570809821E-01  0.52856541873E-01  0.51100000000E-03 0.  1.
         11    1    4    4    0    0 -0.79664554529E-01  0.29288836517E-01  0.13542479905E-01  0.85953109750E-01  0.51100000000E-03 0. -1.
</event>
<event>
 8    1  0.2943605E+004  0.1043930E+01  0.7957747E-01            NaN
         13   -1    0    0    0    0  0.00000000000E+00  0.00000000000E+00  0.74505805969E-08  0.10566000000E+00  0.10566000000E+00 0. -1.
     999900   -1    0    0    0    0 -0.00000000000E+00 -0.00000000000E+00 -0.74505805969E-08  0.93827000000E+00  0.93827000000E+00 0.  1.
     999902    2    1    2    0    0 -0.63738913782E-02 -0.11519179712E-01  0.45788960530E-02  0.10299914103E+01  0.10298970925E+01 0.  0.
     999903    2    3    3    0    0 -0.13000624259E+00 -0.14757807002E-01 -0.26110537389E-01  0.14081353821E+00  0.45025286237E-01 0.  0.
         14    1    1    2    0    0  0.63738913782E-02  0.11519179712E-01 -0.45788960530E-02  0.13938589656E-01  0.00000000000E+00 0. -1.
     999901    1    3    3    0    0  0.12363235121E+00  0.32386272896E-02  0.30689433442E-01  0.88917787214E+00  0.88000000000E+00 0. -1.
        -11    1    4    4    0    0 -0.17990547486E-01  0.45249368136E-02 -0.19556662746E-01  0.26960323269E-01  0.51100000000E-03 0.  1.
         11    1    4    4    0    0 -0.11201569510E+00 -0.19282743815E-01 -0.65538746424E-02  0.11385321494E+00  0.51100000000E-03 0. -1.
</event>
<event>
 8    1  0.2943605E+004  0.1043930E+01  0.7957747E-01            NaN
         13   -1    0    0    0    0  0.00000000000E+00  0.00000000000E+00  0.74505805969E-08  0.10566000000E+00  0.10566000000E+00 0. -1.
     999900   -1    0    0    0    0 -0.00000000000E+00 -0.00000000000E+00 -0.74505805969E-08  0.93827000000E+00  0.93827000000E+00 0. -1.
     999902    2    1    2    0    0  0.90511490786E-02  0.61507339215E-02 -0.88811990210E-02  0.10298363659E+01  0.10297399234E+01 0.  0.
     999903    2    3    3    0    0 -0.10746976869E+00  0.64718063139E-01  0.39023988796E-01  0.13893672877E+00  0.45192521737E-01 0.  0.
         14    1    1    2    0    0 -0.90511490786E-02 -0.61507339215E-02  0.88811990210E-02  0.14093634147E-01  0.00000000000E+00 0. -1.
     999901    1    3    3    0    0  0.11652091777E+00 -0.58567329217E-01 -0.47905187817E-01  0.89089963708E+00  0.88000000000E+00 0. -1.
        -11    1    4    4    0    0 -0.41053163595E-01  0.43470276914E-01  0.16456765723E-02  0.59816357199E-01  0.51100000000E-03 0.  1.
         11    1    4    4    0    0 -0.66416605099E-01  0.21247786225E-01  0.37378312224E-01  0.79120371574E-01  0.51100000000E-03 0. -1.
</event>
<event>
 8    1  0.2943605E+004  0.1043930E+01  0.7957747E-01            NaN
         13   -1    0    0    0    0  0.00000000000E+00  0.00000000000E+00  0.74505805969E-08  0.10566000000E+00  0.10566000000E+00 0. -1.
     999900   -1    0    0    0    0 -0.00000000000E+00 -0.00000000000E+00 -0.74505805969E-08  0.93827000000E+00  0.93827000000E+00 0. -1.
     999902    2    1    2    0    0 -0.10901822695E-01 -0.65453453334E-03 -0.79565758534E-02  0.10304175889E+01  0.10303289874E+01 0.  0.
     999903    2    3    3    0    0  0.31108471607E-01 -0.12521792999E+00 -0.35468455316E-01  0.14022782949E+00  0.41935257766E-01 0.  0.
         14    1    1    2    0    0  0.10901822695E-01  0.65453453334E-03  0.79565758534E-02  0.13512411067E-01  0.00000000000E+00 0. -1.
     999901    1    3    3    0    0 -0.42010294302E-01  0.12456339545E+00  0.27511879463E-01  0.89018975945E+00  0.88000000000E+00 0.  1.
        -11    1    4    4    0    0  0.12292451860E-01 -0.99656955679E-01 -0.12810931624E-01  0.10122743837E+00  0.51100000000E-03 0. -1.
         11    1    4    4    0    0  0.18816019747E-01 -0.25560974307E-01 -0.22657523692E-01  0.39000391120E-01  0.51100000000E-03 0.  1.
</event>
<event>
 8    1  0.2943605E+004  0.1043930E+01  0.7957747E-01            NaN
         13   -1    0    0    0    0  0.00000000000E+00  0.00000000000E+00  0.74505805969E-08  0.10566000000E+00  0.10566000000E+00 0.  1.
     999900   -1    0    0    0    0 -0.00000000000E+00 -0.00000000000E+00 -0.74505805969E-08  0.93827000000E+00  0.93827000000E+00 0. -1.
     999902    2    1    2    0    0 -0.58419512165E-02  0.28413966086E-02  0.11272735725E-01  0.10309193698E+01  0.10308372667E+01 0.  0.
     999903    2    3    3    0    0  0.27001373726E-01  0.99033346376E-01  0.85856538475E-01  0.14193437616E+00  0.47300571463E-01 0.  0.
         14    1    1    2    0    0  0.58419512165E-02 -0.28413966086E-02 -0.11272735725E-01  0.13010630247E-01  0.00000000000E+00 0. -1.
     999901    1    3    3    0    0 -0.32843324943E-01 -0.96191949767E-01 -0.74583802751E-01  0.88898499359E+00  0.88000000000E+00 0. -1.
        -11    1    4    4    0    0  0.27327209485E-01  0.64226601743E-01  0.29685581188E-01  0.75850692820E-01  0.51100000000E-03 0. -1.
         11    1    4    4    0    0 -0.32583575860E-03  0.34806744633E-01  0.56170957287E-01  0.66083683345E-01  0.51100000000E-03 0.  1.
</event>
<event>
 8    1  0.2943605E+004  0.1043930E+01  0.7957747E-01            NaN
         13   -1    0    0    0    0  0.00000000000E+00  0.00000000000E+00  0.74505805969E-08  0.10566000000E+00  0.10566000000E+00 0.  1.
     999900   -1    0    0    0    0 -0.00000000000E+00 -0.00000000000E+00 -0.74505805969E-08  0.93827000000E+00  0.93827000000E+00 0.  1.
     999902    2    1    2    0    0  0.94246135451E-02  0.26622990562E-02  0.95912472370E-02  0.10302222212E+01  0.10301310217E+01 0.  0.
     999903    2    3    3    0    0  0.69777383177E-01  0.29572879460E-01 -0.10871097166E+00  0.13985036002E+00  0.44683435803E-01 0.  0.
         14    1    1    2    0    0 -0.94246135451E-02 -0.26622990562E-02 -0.95912472370E-02  0.13707778824E-01  0.00000000000E+00 0. -1.
     999901    1    3    3    0    0 -0.60352769632E-01 -0.26910580403E-01  0.11830221890E+00  0.89037186116E+00  0.88000000000E+00 0.  1.
        -11    1    4    4    0    0  0.12674625520E-01  0.19570151051E-02  0.12599846647E-02  0.12896694249E-01  0.51100000000E-03 0. -1.
         11    1    4    4    0    0  0.57102757658E-01  0.27615864354E-01 -0.10997095633E+00  0.12695366577E+00  0.51100000000E-03 0.  1.
</event>
<event>
 8    1  0.2943605E+004  0.1043930E+01  0.7957747E-01            NaN
         13   -1    0    0    0    0  0.00000000000E+00  0.00000000000E+00  0.74505805969E-08  0.10566000000E+00  0.10566000000E+00 0. -1.
     999900   -1    0    0    0    0 -0.00000000000E+00 -0.00000000000E+00 -0.74505805969E-08  0.93827000000E+00  0.93827000000E+00 0. -1.
     999902    2    1    2    0    0 -0.70901795843E-02  0.63112815278E-02 -0.12012785826E-01  0.10286195479E+01  0.10285055976E+01 0.  0.
     999903    2    3    3    0    0  0.22190642594E-01  0.12858553745E+00 -0.21030724755E-01  0.13963716141E+00  0.45050864640E-01 0.  0.
         14    1    1    2    0    0  0.70901795843E-02 -0.63112815278E-02  0.12012785826E-01  0.15310452128E-01  0.00000000000E+00 0. -1.
     999901    1    3    3    0    0 -0.29280822178E-01 -0.12227425592E+00  0.90179389284E-02  0.88898238646E+00  0.88000000000E+00 0.  1.
        -11    1    4    4    0    0 -0.12839422954E-01  0.55784626515E-01 -0.80287974778E-02  0.57805692169E-01  0.51100000000E-03 0.  1.
         11    1    4    4    0    0  0.35030065549E-01  0.72800910933E-01 -0.13001927277E-01  0.81831469246E-01  0.51100000000E-03 0. -1.
</event>
<event>
 8    1  0.2943605E+004  0.1043930E+01  0.7957747E-01            NaN
         13   -1    0    0    0    0  0.00000000000E+00  0.00000000000E+00  0.74505805969E-08  0.10566000000E+00  0.10566000000E+00 0.  1.
     999900   -1    0    0    0    0 -0.00000000000E+00 -0.00000000000E+00 -0.74505805969E-08  0.93827000000E+00  0.93827000000E+00 0.  1.
     999902    2    1    2    0    0 -0.16086384692E-02 -0.15485838215E-02 -0.10744770150E-01  0.10329556702E+01  0.10328973718E+01 0.  0.
     999903    2    3    3    0    0 -0.35559785550E-01 -0.65496767721E-01  0.11123348466E+00  0.14159673840E+00  0.46069765401E-01 0.  0.
         14    1    1    2    0    0  0.16086384692E-02  0.15485838215E-02  0.10744770150E-01  0.10974329827E-01  0.00000000000E+00 0.  1.
     999901    1    3    3    0    0  0.33951147081E-01  0.63948183899E-01 -0.12197825481E+00  0.89135893178E+00  0.88000000000E+00 0.  1.
        -11    1    4    4    0    0 -0.27188955459E-01 -0.17443138186E-01  0.72280699076E-01  0.79172362278E-01  0.51100000000E-03 0.  1.
         11    1    4    4    0    0 -0.83708300909E-02 -0.48053629534E-01  0.38952785586E-01  0.62424376118E-01  0.51100000000E-03 0. -1.
</event>
<event>
 8    1  0.2943605E+004  0.1043930E+01  0.7957747E-01            NaN
         13   -1    0    0    0    0  0.00000000000E+00  0.00000000000E+00  0.74505805969E-08  0.10566000000E+00  0.10566000000E+00 0. -1.
     999900   -1    0    0    0    0 -0.00000000000E+00 -0.00000000000E+00 -0.74505805969E-08  0.93827000000E+00  0.93827000000E+00 0.  1.
     999902    2    1    2    0    0  0.55638716255E-02 -0.25231436506E-02 -0.12395161388E-01  0.10301110656E+01  0.10300183710E+01 0.  0.
     999903    2    3    3    0    0 -0.10021099012E+00  0.63950011216E-01 -0.58405649662E-01  0.14009760128E+00  0.45653822361E-01 0.  0.
         14    1    1    2    0    0 -0.55638716255E-02  0.25231436506E-02  0.12395161388E-01  0.13818934372E-01  0.00000000000E+00 0. -1.
     999901    1    3    3    0    0  0.10577486174E+00 -0.66473154866E-01  0.46010488274E-01  0.89001346435E+00  0.88000000000E+00 0.  1.
        -11    1    4    4    0    0 -0.11288782530E-01  0.12059674214E-01  0.71873082826E-02  0.18021955347E-01  0.51100000000E-03 0. -1.
         11    1    4    4    0    0 -0.88922207587E-01  0.51890337002E-01 -0.65592957945E-01  0.12207564593E+00  0.51100000000E-03 0.  1.
</event>
<event>
 8    1  0.2943605E+004  0.1043930E+01  0.7957747E-01            NaN
         13   -1    0    0    0    0  0.00000000000E+00  0.00000000000E+00  0.74505805969E-08  0.10566000000E+00  0.10566000000E+00 0. -1.
     999900   -1    0    0    0    0 -0.00000000000E+00 -0.00000000000E+00 -0.74505805969E-08  0.93827000000E+00  0.93827000000E+00 0. -1.
     999902    2    1    2    0    0  0.85790045325E-02  0.40686374108E-02  0.10641063037E-01  0.10296686764E+01  0.10295699091E+01 0.  0.
     999903    2    3    3    0    0 -0.37203341736E-01 -0.10165280063E+00 -0.73291443601E-01  0.13819926503E+00  0.44833253698E-01 0.  0.
         14    1    1    2    0    0 -0.85790045325E-02 -0.40686374108E-02 -0.10641063037E-01  0.14261323631E-01  0.00000000000E+00 0.  1.
     999901    1    3    3    0    0  0.45782346269E-01  0.10572143804E+00  0.83932506637E-01  0.89146941134E+00  0.88000000000E+00 0.  1.
        -11    1    4    4    0    0 -0.30735135649E-02 -0.71648221123E-01 -0.45213317169E-01  0.84778648528E-01  0.51100000000E-03 0. -1.
         11    1    4    4    0    0 -0.34129828171E-01 -0.30004579503E-01 -0.28078126432E-01  0.53420616498E-01  0.51100000000E-03 0.  1.
</event>
<event>
 8    1  0.2943605E+004  0.1043930E+01  0.7957747E-01            NaN
         13   -1    0    0    0    0  0.00000000000E+00  0.00000000000E+00  0.74505805969E-08  0.10566000000E+00  0.10566000000E+00 0. -1.
     999900   -1    0    0    0    0 -0.00000000000E+00 -0.00000000000E+00 -0.74505805969E-08  0.93827000000E+00  0.93827000000E+00 0.  1.
     999902    2    1    2    0    0  0.73540978935E-02 -0.12721753441E-01 -0.73929823147E-02  0.10274806245E+01  0.10273489435E+01 0.  0.
     999903    2    3    3    0    0 -0.10346693157E+00  0.83616476841E-02 -0.77771299229E-01  0.13749246849E+00  0.45612288110E-01 0.  0.
         14    1    1    2    0    0 -0.73540978935E-02  0.12721753441E-01  0.73929823147E-02  0.16449375488E-01  0.00000000000E+00 0. -1.
     999901    1    3    3    0    0  0.11082102946E+00 -0.21083401125E-01  0.70378316914E-01  0.88998815603E+00  0.88000000000E+00 0. -1.
        -11    1    4    4    0    0 -0.54703988736E-01  0.26942605750E-01 -0.46132336760E-01  0.76464920089E-01  0.51100000000E-03 0.  1.
         11    1    4    4    0    0 -0.48762942832E-01 -0.18580958066E-01 -0.31638962469E-01  0.61027548398E-01  0.51100000000E-03 0. -1.
</event>
<event>
 7    1  0.2943605E+004  0.1043930E+01  0.7957747E-01            NaN
         13   -1    0    0    0    0  0.00000000000E+00  0.00000000000E+00  0.74505805969E-08  0.10566000000E+00  0.10566000000E+00 0.  1.
     999900   -1    0    0    0    0 -0.00000000000E+00 -0.00000000000E+00 -0.74505805969E-08  0.93827000000E+00  0.93827000000E+00 0. -1.
     999903    2    1    2    0    0 -0.41232884151E-01 -0.49634797685E-01  0.82516840344E-01  0.11356796756E+00  0.43873573363E-01 0.  0.
         14    1    1    2    0    0  0.27433218644E-01 -0.19377388932E-01  0.23812984355E-01  0.41171870384E-01  0.00000000000E+00 0.  1.
     999901    1    1    2    0    0  0.13799665506E-01  0.69012186617E-01 -0.10632982470E+00  0.88919016205E+00  0.88000000000E+00 0. -1.
        -11    1    3    3    0    0  0.62792593798E-02 -0.15905268880E-01  0.32705274849E-01  0.36909386346E-01  0.51100000000E-03 0.  1.
         11    1    3    3    0    0 -0.47512143530E-01 -0.33729528805E-01  0.49811565495E-01  0.76658581218E-01  0.51100000000E-03 0. -1.
</event>
<event>
 8    1  0.2943605E+004  0.1043930E+01  0.7957747E-01            NaN
         13   -1    0    0    0    0  0.00000000000E+00  0.00000000000E+00  0.74505805969E-08  0.10566000000E+00  0.10566000000E+00 0. -1.
     999900   -1    0    0    0    0 -0.00000000000E+00 -0.00000000000E+00 -0.74505805969E-08  0.93827000000E+00  0.93827000000E+00 0. -1.
     999902    2    1    2    0    0  0.98619074415E-02 -0.64891181573E-02 -0.63330276163E-02  0.10305332425E+01  0.10304461610E+01 0.  0.
     999903    2    3    3    0    0 -0.83733763583E-01 -0.10044952547E+00  0.17028128450E-01  0.14028920214E+00  0.47850316071E-01 0.  0.
         14    1    1    2    0    0 -0.98619074415E-02  0.64891181573E-02  0.63330276163E-02  0.13396757504E-01  0.00000000000E+00 0.  1.
     999901    1    3    3    0    0  0.93595671024E-01  0.93960407311E-01 -0.23361156066E-01  0.89024404036E+00  0.88000000000E+00 0. -1.
        -11    1    4    4    0    0 -0.69343573393E-01 -0.10293970618E+00  0.18927518023E-01  0.12555328088E+00  0.51100000000E-03 0. -1.
         11    1    4    4    0    0 -0.14390190190E-01  0.24901807139E-02 -0.18993895734E-02  0.14735921262E-01  0.51100000000E-03 0.  1.
</event>
<event>
 8    1  0.2943605E+004  0.1043930E+01  0.7957747E-01            NaN
         13   -1    0    0    0    0  0.00000000000E+00  0.00000000000E+00  0.74505805969E-08  0.10566000000E+00  0.10566000000E+00 0. -1.
     999900   -1    0    0    0    0 -0.00000000000E+00 -0.00000000000E+00 -0.74505805969E-08  0.93827000000E+00  0.93827000000E+00 0.  1.
     999902    2    1    2    0    0  0.49347925633E-02 -0.71067197008E-02 -0.10484705609E-01  0.10303363730E+01  0.10302466961E+01 0.  0.
     999903    2    3    3    0    0  0.98554299663E-01 -0.84659646868E-01 -0.34574739394E-01  0.14165229061E+00  0.44606647934E-01 0.  0.
         14    1    1    2    0    0 -0.49347925633E-02  0.71067197008E-02  0.10484705609E-01  0.13593626972E-01  0.00000000000E+00 0. -1.
     999901    1    3    3    0    0 -0.93619507100E-01  0.77552927167E-01  0.24090033785E-01  0.88868408242E+00  0.88000000000E+00 0.  1.
        -11    1    4    4    0    0  0.97580014701E-01 -0.71615098986E-01 -0.40004252572E-01  0.12748012793E+00  0.51100000000E-03 0. -1.
         11    1    4    4    0    0  0.97428496287E-03 -0.13044547882E-01  0.54295131778E-02  0.14172162678E-01  0.51100000000E-03 0.  1.
</event>
<event>
 8    1  0.2943605E+004  0.1043930E+01  0.7957747E-01            NaN
         13   -1    0    0    0    0  0.00000000000E+00  0.00000000000E+00  0.74505805969E-08  0.10566000000E+00  0.10566000000E+00 0.  1.
     999900   -1    0    0    0    0 -0.00000000000E+00 -0.00000000000E+00 -0.74505805969E-08  0.93827000000E+00  0.93827000000E+00 0. -1.
     999902    2    1    2    0    0 -0.97170790502E-02 -0.73439142562E-02 -0.99352401622E-02  0.10282117400E+01  0.10280915905E+01 0.  0.
     999903    2    3    3    0    0 -0.89945264764E-01 -0.64282796525E-01  0.71328012816E-01  0.13900854923E+00  0.44869396759E-01 0.  0.
         14    1    1    2    0    0  0.97170790502E-02  0.73439142562E-02  0.99352401622E-02  0.15718260048E-01  0.00000000000E+00 0.  1.
     999901    1    3    3    0    0  0.80228185714E-01  0.56938882269E-01 -0.81263252978E-01  0.88920319072E+00  0.88000000000E+00 0. -1.
        -11    1    4    4    0    0 -0.41848659951E-01 -0.51350961499E-02  0.17340535147E-01  0.45592047907E-01  0.51100000000E-03 0.  1.
         11    1    4    4    0    0 -0.48096604812E-01 -0.59147700375E-01  0.53987477669E-01  0.93416501327E-01  0.51100000000E-03 0. -1.
</event>
<event>
 8    1  0.2943605E+004  0.1043930E+01  0.7957747E-01            NaN
         13   -1    0    0    0    0  0.00000000000E+00  0.00000000000E+00  0.74505805969E-08  0.10566000000E+00  0.10566000000E+00 0.  1.
     999900   -1    0    0    0    0 -0.00000000000E+00 -0.00000000000E+00 -0.74505805969E-08  0.93827000000E+00  0.93827000000E+00 0. -1.
     999902    2    1    2    0    0 -0.15898236902E-01 -0.10347432479E-01  0.16562198365E-02  0.10248888246E+01  0.10247119285E+01 0.  0.
     999903    2    3    3    0    0 -0.12782002527E+00  0.55785683509E-03 -0.24330079973E-01  0.13735251561E+00  0.43994211984E-01 0.  0.
         14    1    1    2    0    0  0.15898236902E-01  0.10347432479E-01 -0.16562198365E-02  0.19041175374E-01  0.00000000000E+00 0.  1.
     999901    1    3    3    0    0  0.11192178837E+00 -0.10905289314E-01  0.25986299809E-01  0.88753630902E+00  0.88000000000E+00 0. -1.
        -11    1    4    4    0    0 -0.85940289351E-01 -0.17022209802E-01 -0.27481840098E-01  0.91820485821E-01  0.51100000000E-03 0. -1.
         11    1    4    4    0    0 -0.41879735919E-01  0.17580066637E-01  0.31517601255E-02  0.45532029787E-01  0.51100000000E-03 0.  1.
</event>
<event>
 8    1  0.2943605E+004  0.1043930E+01  0.7957747E-01            NaN
         13   -1    0    0    0    0  0.00000000000E+00  0.00000000000E+00  0.74505805969E-08  0.10566000000E+00  0.10566000000E+00 0. -1.
     999900   -1    0    0    0    0 -0.00000000000E+00 -0.00000000000E+00 -0.74505805969E-08  0.93827000000E+00  0.93827000000E+00 0. -1.
     999902    2    1    2    0    0 -0.25432215034E-02  0.39249144055E-02  0.13291013932E-01  0.10298401462E+01  0.10297437559E+01 0.  0.
     999903    2    3    3    0    0 -0.59739593466E-01 -0.11711302232E+00 -0.12821520818E-01  0.13933272256E+00  0.44327611671E-01 0.  0.
         14    1    1    2    0    0  0.25432215034E-02 -0.39249144055E-02 -0.13291013932E-01  0.14089853797E-01  0.00000000000E+00 0.  1.
     999901    1    3    3    0    0  0.57196371962E-01  0.12103793672E+00  0.26112534750E-01  0.89050742364E+00  0.88000000000E+00 0. -1.
        -11    1    4    4    0    0 -0.42571540758E-01 -0.10490845172E+00  0.25570970948E-02  0.11324715975E+00  0.51100000000E-03 0.  1.
         11    1    4    4    0    0 -0.17168052707E-01 -0.12204570595E-01 -0.15378617913E-01  0.26085562809E-01  0.51100000000E-03 0. -1.
</event>
<event>
 8    1  0.2943605E+004  0.1043930E+01  0.7957747E-01            NaN
         13   -1    0    0    0    0  0.00000000000E+00  0.00000000000E+00  0.74505805969E-08  0.10566000000E+00  0.10566000000E+00 0. -1.
     999900   -1    0    0    0    0 -0.00000000000E+00 -0.00000000000E+00 -0.74505805969E-08  0.93827000000E+00  0.93827000000E+00 0. -1.
     999902    2    1    2    0    0 -0.74875631977E-02  0.14706506418E-01 -0.20524905536E-02  0.10272999774E+01  0.10271653645E+01 0.  0.
     999903    2    3    3    0    0  0.90238776792E-01 -0.54468387395E-01  0.73212255934E-01  0.13600856294E+00  0.45038347116E-01 0.  0.
         14    1    1    2    0    0  0.74875631977E-02 -0.14706506418E-01  0.20524905536E-02  0.16630022584E-01  0.00000000000E+00 0. -1.
     999901    1    3    3    0    0 -0.97726339989E-01  0.69174893813E-01 -0.75264746487E-01  0.89129141448E+00  0.88000000000E+00 0. -1.
        -11    1    4    4    0    0  0.82711084052E-02  0.78257335940E-02  0.46266349970E-02  0.12301228107E-01  0.51100000000E-03 0.  1.
         11    1    4    4    0    0  0.81967668386E-01 -0.62294120989E-01  0.68585620936E-01  0.12370733483E+00  0.51100000000E-03 0. -1.
</event>
<event>
 8    1  0.2943605E+004  0.1043930E+01  0.7957747E-01            NaN
         13   -1    0    0    0    0  0.00000000000E+00  0.00000000000E+00  0.74505805969E-08  0.10566000000E+00  0.10566000000E+00 0. -1.
     999900   -1    0    0    0    0 -0.00000000000E+00 -0.00000000000E+00 -0.74505805969E-08  0.93827000000E+00  0.93827000000E+00 0.  1.
     999902    2    1    2    0    0  0.14693945422E-01  0.64144726846E-02 -0.65897474749E-02  0.10265955758E+01  0.10264492164E+01 0.  0.
     999903    2    3    3    0    0  0.52901779370E-01 -0.11855623531E+00 -0.10636461499E-02  0.13692819172E+00  0.43520330335E-01 0.  0.
         14    1    1    2    0    0 -0.14693945422E-01 -0.64144726846E-02  0.65897474749E-02  0.17334424238E-01  0.00000000000E+00 0. -1.
     999901    1    3    3    0    0 -0.38207833948E-01  0.12497070800E+00 -0.55261013250E-02  0.88966738404E+00  0.88000000000E+00 0.  1.
        -11    1    4    4    0    0  0.53251947892E-01 -0.75571978148E-01 -0.10097186442E-01  0.93000581345E-01  0.51100000000E-03 0.  1.
         11    1    4    4    0    0 -0.35016852248E-03 -0.42984257166E-01  0.90335402917E-02  0.43927610375E-01  0.51100000000E-03 0. -1.
</event>
<event>
 8    1  0.2943605E+004  0.1043930E+01  0.7957747E-01            NaN
         13   -1    0    0    0    0  0.00000000000E+00  0.00000000000E+00  0.74505805969E-08  0.10566000000E+00  0.10566000000E+00 0. -1.
     999900   -1    0    0    0    0 -0.00000000000E+00 -0.00000000000E+00 -0.74505805969E-08  0.93827000000E+00  0.93827000000E+00 0.  1.
     999902    2    1    2    0    0 -0.78477499171E-02 -0.10003003962E-01  0.18546860452E-02  0.10310813764E+01  0.10310013180E+01 0.  0.
     999903    2    3    3    0    0  0.97382462508E-01  0.81000455839E-01 -0.36073311225E-01  0.13934511483E+00  0.45512189497E-01 0.  0.
         14    1    1    2    0    0  0.78477499171E-02  0.10003003962E-01 -0.18546860452E-02  0.12848623559E-01  0.00000000000E+00 0. -1.
     999901    1    3    3    0    0 -0.10523021243E+00 -0.91003459801E-01  0.37927997270E-01  0.89173626162E+00  0.88000000000E+00 0. -1.
        -11    1    4    4    0    0  0.14140732427E-01  0.74495464340E-02 -0.22258830183E-01  0.27407529947E-01  0.51100000000E-03 0.  1.
         11    1    4    4    0    0  0.83241730081E-01  0.73550909405E-01 -0.13814481042E-01  0.11193758488E+00  0.51100000000E-03 0. -1.
</event>
<event>
 8    1  0.2943605E+004  0.1043930E+01  0.7957747E-01            NaN
         13   -1    0    0    0    0  0.00000000000E+00  0.00000000000E+00  0.74505805969E-08  0.10566000000E+00  0.10566000000E+00 0. -1.
     999900   -1    0    0    0    0 -0.00000000000E+00 -0.00000000000E+00 -0.74505805969E-08  0.93827000000E+00  0.93827000000E+00 0.  1.
     999902    2    1    2    0    0  0.10753483906E-01 -0.55841405805E-02 -0.58650624607E-02  0.10304682394E+01  0.10303803052E+01 0.  0.
     999903    2    3    3    0    0 -0.34100657918E-01 -0.71071424990E-01  0.10647025240E+00  0.13978327741E+00  0.44603224969E-01 0.  0.
         14    1    1    2    0    0 -0.10753483906E-01  0.55841405805E-02  0.58650624607E-02  0.13461760650E-01  0.00000000000E+00 0. -1.
     999901    1    3    3    0    0  0.44854141823E-01  0.65487284410E-01 -0.11233531486E+00  0.89068496194E+00  0.88000000000E+00 0.  1.
        -11    1    4    4    0    0 -0.68505740978E-02 -0.61007439851E-01  0.75662956051E-01  0.97437067495E-01  0.51100000000E-03 0. -1.
         11    1    4    4    0    0 -0.27250083820E-01 -0.10063985139E-01  0.30807296348E-01  0.42346209917E-01  0.51100000000E-03 0.  1.
</event>
<event>
 8    1  0.2943605E+004  0.1043930E+01  0.7957747E-01            NaN
         13   -1    0    0    0    0  0.00000000000E+00  0.00000000000E+00  0.74505805969E-08  0.10566000000E+00  0.10566000000E+00 0. -1.
     999900   -1    0    0    0    0 -0.00000000000E+00 -0.00000000000E+00 -0.74505805969E-08  0.93827000000E+00  0.93827000000E+00 0.  1.
     999902    2    1    2    0    0  0.48043070192E-02  0.13390617889E-01 -0.83370656232E-02  0.10274407102E+01  0.10273083843E+01 0.  0.
     999903    2    3    3    0    0  0.31722877792E-01  0.63518008768E-01  0.10985696600E+00  0.13771761069E+00  0.43089545159E-01 0.  0.
         14    1    1    2    0    0 -0.48043070192E-02 -0.13390617889E-01  0.83370656232E-02  0.16489289754E-01  0.00000000000E+00 0. -1.
     999901    1    3    3    0    0 -0.26918570773E-01 -0.50127390879E-01 -0.11819403163E+00  0.88972309955E+00  0.88000000000E+00 0.  1.
        -11    1    4    4    0    0  0.13848028440E-01  0.34248732661E-01  0.91799002241E-01  0.98954845834E-01  0.51100000000E-03 0.  1.
         11    1    4    4    0    0  0.17874849352E-01  0.29269276107E-01  0.18057963762E-01  0.38762764858E-01  0.51100000000E-03 0. -1.
</event>
<event>
 8    1  0.2943605E+004  0.1043930E+01  0.7957747E-01            NaN
         13   -1    0    0    0    0  0.00000000000E+00  0.00000000000E+00  0.74505805969E-08  0.10566000000E+00  0.10566000000E+00 0.  1.
     999900   -1    0    0    0    0 -0.00000000000E+00 -0.00000000000E+00 -0.74505805969E-08  0.93827000000E+00  0.93827000000E+00 0. -1.
     999902    2    1    2    0    0  0.25001955579E-02 -0.11719504839E-01 -0.69677759381E-02  0.10300682659E+01  0.10299749923E+01 0.  0.
     999903    2    3    3    0    0  0.10316080485E+00 -0.54371099531E-01  0.64133608370E-01  0.14045760741E+00  0.44909371366E-01 0.  0.
         14    1    1    2    0    0 -0.25001955579E-02  0.11719504839E-01  0.69677759381E-02  0.13861734128E-01  0.00000000000E+00 0. -1.
     999901    1    3    3    0    0 -0.10066060929E+00  0.42651594692E-01 -0.71101384308E-01  0.88961065846E+00  0.88000000000E+00 0. -1.
        -11    1    4    4    0    0  0.16757262945E-01 -0.31190245493E-01  0.15805024208E-01  0.38777534560E-01  0.51100000000E-03 0. -1.
         11    1    4    4    0    0  0.86403541903E-01 -0.23180854038E-01  0.48328584163E-01  0.10168007285E+00  0.51100000000E-03 0.  1.
</event>
<event>
 8    1  0.2943605E+004  0.1043930E+01  0.7957747E-01            NaN
         13   -1    0    0    0    0  0.00000000000E+00  0.00000000000E+00  0.74505805969E-08  0.10566000000E+00  0.10566000000E+00 0. -1.
     999900   -1    0    0    0    0 -0.00000000000E+00 -0.00000000000E+00 -0.74505805969E-08  0.93827000000E+00  0.93827000000E+00 0.  1.
     999902    2    1    2    0    0  0.67008740741E-02 -0.65929470860E-02  0.10519912715E-01  0.10298219446E+01  0.10297253033E+01 0.  0.
     999903    2    3    3    0    0 -0.50095658089E-01  0.32134210670E-01  0.11922739466E+00  0.14047220715E+00  0.44441949649E-01 0.  0.
         14    1    1    2    0    0 -0.67008740741E-02  0.65929470860E-02 -0.10519912715E-01  0.14108055435E-01  0.00000000000E+00 0.  1.
     999901    1    3    3    0    0  0.56796532163E-01 -0.38727157756E-01 -0.10870748195E+00  0.88934973742E+00  0.88000000000E+00 0.  1.
        -11    1    4    4    0    0 -0.21193432798E-01 -0.87894437554E-02  0.50006823785E-01  0.55021445468E-01  0.51100000000E-03 0.  1.
         11    1    4    4    0    0 -0.28902225290E-01  0.40923654425E-01  0.69220570875E-01  0.85450761679E-01  0.51100000000E-03 0. -1.
</event>
<event>
 8    1  0.2943605E+004  0.1043930E+01  0.7957747E-01            NaN
         13   -1    0    0    0    0  0.00000000000E+00  0.00000000000E+00  0.74505805969E-08  0.10566000000E+00  0.10566000000E+00 0.  1.
     999900   -1    0    0    0    0 -0.00000000000E+00 -0.00000000000E+00 -0.74505805969E-08  0.93827000000E+00  0.93827000000E+00 0.  1.
     999902    2    1    2    0    0  0.34887544944E-02  0.11399325161E-01  0.77860292844E-02  0.10296913809E+01  0.10295929301E+01 0.  0.
     999903    2    3    3    0    0 -0.83095553250E-01 -0.64221402053E-01  0.80000971052E-01  0.13928117512E+00  0.44382777312E-01 0.  0.
         14    1    1    2    0    0 -0.34887544944E-02 -0.11399325161E-01 -0.77860292844E-02  0.14238619107E-01  0.00000000000E+00 0.  1.
     999901    1    3    3    0    0  0.86584307745E-01  0.75620727214E-01 -0.72214941767E-01  0.89041020577E+00  0.88000000000E+00 0.  1.
        -11    1    4    4    0    0 -0.88892656427E-02 -0.80463546774E-02  0.32794937345E-01  0.34921796972E-01  0.51100000000E-03 0. -1.
         11    1    4    4    0    0 -0.74206287607E-01 -0.56175047375E-01  0.47206033707E-01  0.10435937815E+00  0.51100000000E-03 0.  1.
</event>
<event>
 8    1  0.2943605E+004  0.1043930E+01  0.7957747E-01            NaN
         13   -1    0    0    0    0  0.00000000000E+00  0.00000000000E+00  0.74505805969E-08  0.10566000000E+00  0.10566000000E+00 0.  1.
     999900   -1    0    0    0    0 -0.00000000000E+00 -0.00000000000E+00 -0.74505805969E-08  0.93827000000E+00  0.93827000000E+00 0. -1.
     999902    2    1    2    0    0  0.30482657399E-02 -0.76986525782E-02 -0.11097791090E-01  0.10300836235E+01  0.10299905578E+01 0.  0.
     999903    2    3    3    0    0 -0.50035524681E-01  0.11989866325E+00 -0.20657775775E-01  0.13924673767E+00  0.45647202253E-01 0.  0.
         14    1    1    2    0    0 -0.30482657399E-02  0.76986525782E-02  0.11097791090E-01  0.13846376516E-01  0.00000000000E+00 0. -1.
     999901    1    3    3    0    0  0.53083790421E-01 -0.12759731583E+00  0.95599846851E-02  0.89083688581E+00  0.88000000000E+00 0.  1.
        -11    1    4    4    0    0 -0.44224881994E-01  0.48519846892E-01 -0.15416422016E-01  0.67438437990E-01  0.51100000000E-03 0. -1.
         11    1    4    4    0    0 -0.58106426867E-02  0.71378816359E-01 -0.52413537590E-02  0.71808299684E-01  0.51100000000E-03 0.  1.
</event>
<event>
 8    1  0.2943605E+004  0.1043930E+01  0.7957747E-01            NaN
         13   -1    0    0    0    0  0.00000000000E+00  0.00000000000E+00  0.74505805969E-08  0.10566000000E+00  0.10566000000E+00 0.  1.
     999900   -1    0    0    0    0 -0.00000000000E+00 -0.00000000000E+00 -0.74505805969E-08  0.93827000000E+00  0.93827000000E+00 0.  1.
     999902    2    1    2    0    0 -0.11301439002E-01 -0.89812399716E-03 -0.79599171739E-02  0.10300775839E+01  0.10299844365E+01 0.  0.
     999903    2    3    3    0    0 -0.84443899898E-01 -0.81110123683E-03  0.10244021674E+00  0.14016859040E+00  0.44964492796E-01 0.  0.
         14    1    1    2    0    0  0.11301439002E-01  0.89812399716E-03  0.79599171739E-02  0.13852416094E-01  0.00000000000E+00 0.  1.
     999901    1    3    3    0    0  0.73142460896E-01 -0.87022760334E-04 -0.11040013392E+00  0.88990899351E+00  0.88000000000E+00 0.  1.
        -11    1    4    4    0    0 -0.33702840260E-01 -0.48997121382E-02  0.74917467303E-01  0.82296881161E-01  0.51100000000E-03 0. -1.
         11    1    4    4    0    0 -0.50741059637E-01  0.40886109014E-02  0.27522749440E-01  0.57871709237E-01  0.51100000000E-03 0.  1.
</event>
<event>
 8    1  0.2943605E+004  0.1043930E+01  0.7957747E-01            NaN
         13   -1    0    0    0    0  0.00000000000E+00  0.00000000000E+00  0.74505805969E-08  0.10566000000E+00  0.10566000000E+00 0.  1.
     999900   -1    0    0    0    0 -0.00000000000E+00 -0.00000000000E+00 -0.74505805969E-08  0.93827000000E+00  0.93827000000E+00 0.  1.
     999902    2    1    2    0    0 -0.58607451224E-02  0.81364079228E-02 -0.94996854732E-02  0.10301171983E+01  0.10300245865E+01 0.  0.
     999903    2    3    3    0    0  0.52502217710E-01 -0.45118996441E-01  0.11118686289E+00  0.13837305533E+00  0.44636053356E-01 0.  0.
         14    1    1    2    0    0  0.58607451224E-02 -0.81364079228E-02  0.94996854732E-02  0.13812801720E-01  0.00000000000E+00 0. -1.
     999901    1    3    3    0    0 -0.58362962833E-01  0.53255404363E-01 -0.12068654836E+00  0.89174414295E+00  0.88000000000E+00 0.  1.
        -11    1    4    4    0    0  0.27946565114E-01  0.98730958083E-04  0.57913546117E-01  0.64305988790E-01  0.51100000000E-03 0.  1.
         11    1    4    4    0    0  0.24555652596E-01 -0.45217727399E-01  0.53273316770E-01  0.74067066543E-01  0.51100000000E-03 0. -1.
</event>
<event>
 8    1  0.2943605E+004  0.1043930E+01  0.7957747E-01            NaN
         13   -1    0    0    0    0  0.00000000000E+00  0.00000000000E+00  0.74505805969E-08  0.10566000000E+00  0.10566000000E+00 0.  1.
     999900   -1    0    0    0    0 -0.00000000000E+00 -0.00000000000E+00 -0.74505805969E-08  0.93827000000E+00  0.93827000000E+00 0. -1.
     999902    2    1    2    0    0  0.69723715750E-02  0.64378387825E-02 -0.59748763742E-02  0.10327157733E+01  0.10326548840E+01 0.  0.
     999903    2    3    3    0    0 -0.32671537711E-01 -0.12917982072E+00 -0.14986523316E-01  0.14139933176E+00  0.44881172940E-01 0.  0.
         14    1    1    2    0    0 -0.69723715750E-02 -0.64378387825E-02  0.59748763742E-02  0.11214226735E-01  0.00000000000E+00 0. -1.
     999901    1    3    3    0    0  0.39643909286E-01  0.13561765950E+00  0.90116469416E-02  0.89131644150E+00  0.88000000000E+00 0. -1.
        -11    1    4    4    0    0 -0.12842432240E-01 -0.83597247230E-01 -0.29559221150E-01  0.89595962444E-01  0.51100000000E-03 0.  1.
         11    1    4    4    0    0 -0.19829105470E-01 -0.45582573489E-01  0.14572697834E-01  0.51803369319E-01  0.51100000000E-03 0. -1.
</event>
<event>
 8    1  0.2943605E+004  0.1043930E+01  0.7957747E-01            NaN
         13   -1    0    0    0    0  0.00000000000E+00  0.00000000000E+00  0.74505805969E-08  0.10566000000E+00  0.10566000000E+00 0. -1.
     999900   -1    0    0    0    0 -0.00000000000E+00 -0.00000000000E+00 -0.74505805969E-08  0.93827000000E+00  0.93827000000E+00 0. -1.
     999902    2    1    2    0    0  0.17200754504E-01 -0.11501557530E-02 -0.63208550744E-02  0.10255685724E+01  0.10254041909E+01 0.  0.
     999903    2    3    3    0    0 -0.55497024181E-01 -0.89435607005E-01 -0.73230422364E-01  0.13564937490E+00  0.44265230797E-01 0.  0.
         14    1    1    2    0    0 -0.17200754504E-01  0.11501557530E-02  0.63208550744E-02  0.18361427576E-01  0.00000000000E+00 0. -1.
     999901    1    3    3    0    0  0.72697778685E-01  0.88285451252E-01  0.66909567290E-01  0.88991919752E+00  0.88000000000E+00 0. -1.
        -11    1    4    4    0    0  0.75437783563E-02 -0.13151186614E-01 -0.83766459745E-02  0.17328924376E-01  0.51100000000E-03 0. -1.
         11    1    4    4    0    0 -0.63040802537E-01 -0.76284420391E-01 -0.64853776390E-01  0.11832045052E+00  0.51100000000E-03 0.  1.
</event>
<event>
 8    1  0.2943605E+004  0.1043930E+01  0.7957747E-01            NaN
         13   -1    0    0    0    0  0.00000000000E+00  0.00000000000E+00  0.74505805969E-08  0.10566000000E+00  0.10566000000E+00 0.  1.
     999900   -1    0    0    0    0 -0.00000000000E+00 -0.00000000000E+00 -0.74505805969E-08  0.93827000000E+00  0.93827000000E+00 0. -1.
     999902    2    1    2    0    0  0.52587298125E-02  0.50751511512E-02 -0.11625247569E-01  0.10301983657E+01  0.10301068464E+01 0.  0.
     999903    2    3    3    0    0 -0.59524874040E-01  0.65584215094E-01 -0.10040966933E+00  0.14129964502E+00  0.45155155743E-01 0.  0.
         14    1    1    2    0    0 -0.52587298125E-02 -0.50751511512E-02  0.11625247569E-01  0.13731634261E-01  0.00000000000E+00 0.  1.
     999901    1    3    3    0    0  0.64783603852E-01 -0.60509063942E-01  0.88784421757E-01  0.88889872072E+00  0.88000000000E+00 0.  1.
        -11    1    4    4    0    0 -0.48874957528E-02  0.34346824733E-01 -0.23435430314E-01  0.41869708609E-01  0.51100000000E-03 0.  1.
         11    1    4    4    0    0 -0.54637378287E-01  0.31237390361E-01 -0.76974239012E-01  0.99429936413E-01  0.51100000000E-03 0. -1.
</event>
<event>
 8    1  0.2943605E+004  0.1043930E+01  0.7957747E-01            NaN
         13   -1    0    0    0    0  0.00000000000E+00  0.00000000000E+00  0.74505805969E-08  0.10566000000E+00  0.10566000000E+00 0. -1.
     999900   -1    0    0    0    0 -0.00000000000E+00 -0.00000000000E+00 -0.74505805969E-08  0.93827000000E+00  0.93827000000E+00 0.  1.
     999902    2    1    2    0    0  0.95629373087E-02  0.13475194591E-01  0.30510612745E-02  0.10271270356E+01  0.10269895849E+01 0.  0.
     999903    2    3    3    0    0 -0.57333892198E-01  0.55967036570E-01  0.10323218854E+00  0.13790434090E+00  0.44059483766E-01 0.  0.
         14    1    1    2    0    0 -0.95629373087E-02 -0.13475194591E-01 -0.30510612745E-02  0.16802964445E-01  0.00000000000E+00 0.  1.
     999901    1    3    3    0    0  0.66896829507E-01 -0.42491841978E-01 -0.10018112727E+00  0.88922269466E+00  0.88000000000E+00 0.  1.
        -11    1    4    4    0    0 -0.49573017503E-01  0.34666218215E-01  0.97118881231E-01  0.11441839433E+00  0.51100000000E-03 0.  1.
         11    1    4    4    0    0 -0.77608746958E-02  0.21300818355E-01  0.61133073133E-02  0.23485946563E-01  0.51100000000E-03 0. -1.
</event>
<event>
 8    1  0.2943605E+004  0.1043930E+01  0.7957747E-01            NaN
         13   -1    0    0    0    0  0.00000000000E+00  0.00000000000E+00  0.74505805969E-08  0.10566000000E+00  0.10566000000E+00 0. -1.
     999900   -1    0    0    0    0 -0.00000000000E+00 -0.00000000000E+00 -0.74505805969E-08  0.93827000000E+00  0.93827000000E+00 0.  1.
     999902    2    1    2    0    0  0.71609518666E-02 -0.12720673414E-01 -0.88620147628E-03  0.10293053593E+01  0.10292014586E+01 0.  0.
     999903    2    3    3    0    0 -0.45904207874E-01 -0.12423853489E+00  0.11772364305E-01  0.14059146610E+00  0.45661383319E-01 0.  0.
         14    1    1    2    0    0 -0.71609518666E-02  0.12720673414E-01  0.88620147628E-03  0.14624640741E-01  0.00000000000E+00 0. -1.
     999901    1    3    3    0    0  0.53065159741E-01  0.11151786148E+00 -0.12658565781E-01  0.88871389316E+00  0.88000000000E+00 0. -1.
        -11    1    4    4    0    0 -0.40122116508E-01 -0.57362750178E-01 -0.83822755624E-02  0.70503850999E-01  0.51100000000E-03 0. -1.
         11    1    4    4    0    0 -0.57820913664E-02 -0.66875784712E-01  0.20154639867E-01  0.70087615101E-01  0.51100000000E-03 0.  1.
</event>
<event>
 8    1  0.2943605E+004  0.1043930E+01  0.7957747E-01            NaN
         13   -1    0    0    0    0  0.00000000000E+00  0.00000000000E+00  0.74505805969E-08  0.10566000000E+00  0.10566000000E+00 0. -1.
     999900   -1    0    0    0    0 -0.00000000000E+00 -0.00000000000E+00 -0.74505805969E-08  0.93827000000E+00  0.93827000000E+00 0.  1.
     999902    2    1    2    0    0  0.64746187028E-02 -0.11800381928E-01 -0.46065815751E-02  0.10297036057E+01  0.10296053250E+01 0.  0.
     999903    2    3    3    0    0  0.70276872810E-01 -0.38762786944E-01  0.10557978547E+00  0.14013138581E+00  0.45258388018E-01 0.  0.
         14    1    1    2    0    0 -0.64746187028E-02  0.11800381928E-01  0.46065815751E-02  0.14226394301E-01  0.00000000000E+00 0. -1.
     999901    1    3    3    0    0 -0.63802254107E-01  0.26962405016E-01 -0.11018636704E+00  0.88957221989E+00  0.88000000000E+00 0. -1.
        -11    1    4    4    0    0  0.45279490605E-02 -0.81487386959E-02  0.44022035183E-01  0.45001166292E-01  0.51100000000E-03 0. -1.
         11    1    4    4    0    0  0.65748923750E-01 -0.30614048248E-01  0.61557750286E-01  0.95130219519E-01  0.51100000000E-03 0.  1.
</event>
<event>
 8    1  0.2943605E+004  0.1043930E+01  0.7957747E-01            NaN
         13   -1    0    0    0    0  0.00000000000E+00  0.00000000000E+00  0.74505805969E-08  0.10566000000E+00  0.10566000000E+00 0.  1.
     999900   -1    0    0    0    0 -0.00000000000E+00 -0.00000000000E+00 -0.74505805969E-08  0.93827000000E+00  0.93827000000E+00 0.  1.
     999902    2    1    2    0    0 -0.72438681806E-02  0.19024511444E-02 -0.91453543353E-02  0.10321092364E+01  0.10320415425E+01 0.  0.
     999903    2    3    3    0    0  0.10320312858E+00 -0.77284232021E-01 -0.36770773930E-01  0.14124884682E+00  0.44445569451E-01 0.  0.
         14    1    1    2    0    0  0.72438681806E-02 -0.19024511444E-02  0.91453543353E-02  0.11820763617E-01  0.00000000000E+00 0.  1.
     999901    1    3    3    0    0 -0.11044699677E+00  0.79186683165E-01  0.27625419595E-01  0.89086038956E+00  0.88000000000E+00 0.  1.
        -11    1    4    4    0    0  0.43331792347E-01 -0.11647835290E-01  0.57410671019E-03  0.44876575342E-01  0.51100000000E-03 0.  1.
         11    1    4    4    0    0  0.59871336238E-01 -0.65636396731E-01 -0.37344880640E-01  0.96372271477E-01  0.51100000000E-03 0. -1.
</event>
<event>
 8    1  0.2943605E+004  0.1043930E+01  0.7957747E-01            NaN
         13   -1    0    0    0    0  0.00000000000E+00  0.00000000000E+00  0.74505805969E-08  0.10566000000E+00  0.10566000000E+00 0. -1.
     999900   -1    0    0    0    0 -0.00000000000E+00 -0.00000000000E+00 -0.74505805969E-08  0.93827000000E+00  0.93827000000E+00 0. -1.
     999902    2    1    2    0    0  0.11620956587E-01 -0.19528350294E-02  0.40575238678E-02  0.10314671072E+01  0.10313918119E+01 0.  0.
     999903    2    3    3    0    0 -0.26767153420E-01  0.88735970888E-01  0.95920744492E-01  0.14122165914E+00  0.46391968653E-01 0.  0.
         14    1    1    2    0    0 -0.11620956587E-01  0.19528350294E-02 -0.40575238678E-02  0.12462892786E-01  0.00000000000E+00 0.  1.
     999901    1    3    3    0    0  0.38388110007E-01 -0.90688805917E-01 -0.91863220624E-01  0.89024544807E+00  0.88000000000E+00 0. -1.
        -11    1    4    4    0    0  0.10977342670E-01  0.57091871921E-02  0.99675762106E-02  0.15896872869E-01  0.51100000000E-03 0. -1.
         11    1    4    4    0    0 -0.37744496090E-01  0.83026783696E-01  0.85953168282E-01  0.12532478627E+00  0.51100000000E-03 0.  1.
</event>
<event>
 8    1  0.2943605E+004  0.1043930E+01  0.7957747E-01            NaN
         13   -1    0    0    0    0  0.00000000000E+00  0.00000000000E+00  0.74505805969E-08  0.10566000000E+00  0.10566000000E+00 0. -1.
     999900   -1    0    0    0    0 -0.00000000000E+00 -0.00000000000E+00 -0.74505805969E-08  0.93827000000E+00  0.93827000000E+00 0.  1.
     999902    2    1    2    0    0  0.14338547355E-01 -0.24404704023E-02 -0.22154624423E-02  0.10292174846E+01  0.10291123226E+01 0.  0.
     999903    2    3    3    0    0 -0.70471640932E-01  0.18279416729E-01 -0.10878590605E+00  0.13849904354E+00  0.45246242436E-01 0.  0.
         14    1    1    2    0    0 -0.14338547355E-01  0.24404704023E-02  0.22154624423E-02  0.14712515416E-01  0.00000000000E+00 0. -1.
     999901    1    3    3    0    0  0.84810188287E-01 -0.20719887131E-01  0.10657044361E+00  0.89071844104E+00  0.88000000000E+00 0.  1.
        -11    1    4    4    0    0 -0.42483071082E-01 -0.12200963305E-01 -0.52362903892E-01  0.68525977988E-01  0.51100000000E-03 0. -1.
         11    1    4    4    0    0 -0.27988569850E-01  0.30480380033E-01 -0.56423002162E-01  0.69973065555E-01  0.51100000000E-03 0.  1.
</event>
<event>
 8    1  0.2943605E+004  0.1043930E+01  0.7957747E-01            NaN
         13   -1    0    0    0    0  0.00000000000E+00  0.00000000000E+00  0.74505805969E-08  0.10566000000E+00  0.10566000000E+00 0. -1.
     999900   -1    0    0    0    0 -0.00000000000E+00 -0.00000000000E+00 -0.74505805969E-08  0.93827000000E+00  0.93827000000E+00 0.  1.
     999902    2    1    2    0    0  0.40690551722E-02  0.94096539495E-03  0.99063435331E-02  0.10331792666E+01  0.10331233318E+01 0.  0.
     999903    2    3    3    0    0 -0.82734337991E-01 -0.91134584049E-01  0.57127294687E-01  0.14287451313E+00  0.44711470692E-01 0.  0.
         14    1    1    2    0    0 -0.40690551722E-02 -0.94096539495E-03 -0.99063435331E-02  0.10750733373E-01  0.00000000000E+00 0.  1.
     999901    1    3    3    0    0  0.86803393164E-01  0.92075549444E-01 -0.47220951153E-01  0.89030475350E+00  0.88000000000E+00 0.  1.
        -11    1    4    4    0    0 -0.40179117647E-01 -0.58126227244E-01  0.53983532366E-01  0.88924140008E-01  0.51100000000E-03 0. -1.
         11    1    4    4    0    0 -0.42555220344E-01 -0.33008356805E-01  0.31437623207E-02  0.53950373122E-01  0.51100000000E-03 0.  1.
</event>
<event>
 8    1  0.2943605E+004  0.1043930E+01  0.7957747E-01            NaN
         13   -1    0    0    0    0  0.00000000000E+00  0.00000000000E+00  0.74505805969E-08  0.10566000000E+00  0.10566000000E+00 0.  1.
     999900   -1    0    0    0    0 -0.00000000000E+00 -0.00000000000E+00 -0.74505805969E-08  0.93827000000E+00  0.93827000000E+00 0. -1.
     999902    2    1    2    0    0  0.21770379253E-02 -0.99319197787E-02 -0.96144233795E-02  0.10299364421E+01  0.10298413738E+01 0.  0.
     999903    2    3    3    0    0 -0.68776154857E-01  0.36867964721E-02  0.11151093650E+00  0.13870629352E+00  0.45398182337E-01 0.  0.
         14    1    1    2    0    0 -0.21770379253E-02  0.99319197787E-02  0.96144233795E-02  0.13993557859E-01  0.00000000000E+00 0.  1.
     999901    1    3    3    0    0  0.70953192782E-01 -0.13618716251E-01 -0.12112535988E+00  0.89123014862E+00  0.88000000000E+00 0. -1.
        -11    1    4    4    0    0 -0.61478668036E-01  0.49368393301E-02  0.57942431320E-01  0.84626151244E-01  0.51100000000E-03 0. -1.
         11    1    4    4    0    0 -0.72974868204E-02 -0.12500428579E-02  0.53568505178E-01  0.54080142281E-01  0.51100000000E-03 0.  1.
</event>
<event>
 8    1  0.2943605E+004  0.1043930E+01  0.7957747E-01            NaN
         13   -1    0    0    0    0  0.00000000000E+00  0.00000000000E+00  0.74505805969E-08  0.10566000000E+00  0.10566000000E+00 0. -1.
     999900   -1    0    0    0    0 -0.00000000000E+00 -0.00000000000E+00 -0.74505805969E-08  0.93827000000E+00  0.93827000000E+00 0.  1.
     999902    2    1    2    0    0  0.97268315702E-02 -0.11735095964E-01 -0.15253236564E-02  0.10286116991E+01  0.10284976311E+01 0.  0.
     999903    2    3    3    0    0  0.12715891089E+00  0.17360435763E-01  0.31504149792E-01  0.13972037317E+00  0.45370671998E-01 0.  0.
         14    1    1    2    0    0 -0.97268315702E-02  0.11735095964E-01  0.15253236564E-02  0.15318300882E-01  0.00000000000E+00 0.  1.
     999901    1    3    3    0    0 -0.11743207932E+00 -0.29095531726E-01 -0.33029473448E-01  0.88889132594E+00  0.88000000000E+00 0.  1.
        -11    1    4    4    0    0  0.85091950376E-01 -0.54073490977E-02  0.34060249008E-01  0.91816344550E-01  0.51100000000E-03 0.  1.
         11    1    4    4    0    0  0.42066960513E-01  0.22767784861E-01 -0.25560992159E-02  0.47904028625E-01  0.51100000000E-03 0. -1.
</event>
<event>
 8    1  0.2943605E+004  0.1043930E+01  0.7957747E-01            NaN
         13   -1    0    0    0    0  0.00000000000E+00  0.00000000000E+00  0.74505805969E-08  0.10566000000E+00  0.10566000000E+00 0.  1.
     999900   -1    0    0    0    0 -0.00000000000E+00 -0.00000000000E+00 -0.74505805969E-08  0.93827000000E+00  0.93827000000E+00 0.  1.
     999902    2    1    2    0    0  0.59503387408E-02  0.88446338919E-02  0.35659058635E-02  0.10326894589E+01  0.10326282820E+01 0.  0.
     999903    2    3    3    0    0  0.14539774888E-01  0.13538080110E+00  0.50485621121E-02  0.14359588772E+00  0.45331276522E-01 0.  0.
         14    1    1    2    0    0 -0.59503387408E-02 -0.88446338919E-02 -0.35659058635E-02  0.11240541110E-01  0.00000000000E+00 0.  1.
     999901    1    3    3    0    0 -0.85894361471E-02 -0.12653616721E+00 -0.14826562486E-02  0.88909357117E+00  0.88000000000E+00 0. -1.
        -11    1    4    4    0    0  0.18644279835E-01  0.54688343100E-01 -0.16277708670E-01  0.60030400316E-01  0.51100000000E-03 0.  1.
         11    1    4    4    0    0 -0.41045049473E-02  0.80692457999E-01  0.21326270782E-01  0.83565487405E-01  0.51100000000E-03 0. -1.
</event>
<event>
 8    1  0.2943605E+004  0.1043930E+01  0.7957747E-01            NaN
         13   -1    0    0    0    0  0.00000000000E+00  0.00000000000E+00  0.74505805969E-08  0.10566000000E+00  0.10566000000E+00 0. -1.
     999900   -1    0    0    0    0 -0.00000000000E+00 -0.00000000000E+00 -0.74505805969E-08  0.93827000000E+00  0.93827000000E+00 0. -1.
     999902    2    1    2    0    0  0.14118618306E-01 -0.23715397747E-02  0.97355334856E-03  0.10295805265E+01  0.10294805259E+01 0.  0.
     999903    2    3    3    0    0 -0.83479357457E-01  0.81264547163E-01 -0.59355541252E-01  0.13819959807E+00  0.44758450387E-01 0.  0.
         14    1    1    2    0    0 -0.14118618306E-01  0.23715397747E-02 -0.97355334856E-03  0.14349473505E-01  0.00000000000E+00 0. -1.
     999901    1    3    3    0    0  0.97597975763E-01 -0.83636086938E-01  0.60329094601E-01  0.89138092843E+00  0.88000000000E+00 0.  1.
        -11    1    4    4    0    0 -0.44187930601E-01  0.28641616034E-01 -0.48579685793E-01  0.71646091119E-01  0.51100000000E-03 0. -1.
         11    1    4    4    0    0 -0.39291426856E-01  0.52622931130E-01 -0.10775855459E-01  0.66553506947E-01  0.51100000000E-03 0.  1.
</event>
<event>
 8    1  0.2943605E+004  0.1043930E+01  0.7957747E-01            NaN
         13   -1    0    0    0    0  0.00000000000E+00  0.00000000000E+00  0.74505805969E-08  0.10566000000E+00  0.10566000000E+00 0. -1.
     999900   -1    0    0    0    0 -0.00000000000E+00 -0.00000000000E+00 -0.74505805969E-08  0.93827000000E+00  0.93827000000E+00 0. -1.
     999902    2    1    2    0    0  0.43561673034E-02 -0.12628124009E-01  0.47057733495E-02  0.10297670197E+01  0.10296696192E+01 0.  0.
     999903    2    3    3    0    0  0.13166398082E+00  0.14482036559E-01  0.96326810116E-02  0.14017918553E+00  0.44858469496E-01 0.  0.
         14    1    1    2    0    0 -0.43561673034E-02  0.12628124009E-01 -0.47057733495E-02  0.14162980349E-01  0.00000000000E+00 0.  1.
     999901    1    3    3    0    0 -0.12730781352E+00 -0.27110160568E-01 -0.49269076620E-02  0.88958783412E+00  0.88000000000E+00 0. -1.
        -11    1    4    4    0    0  0.28617377169E-01  0.14404617461E-01  0.18070225913E-01  0.36786430457E-01  0.51100000000E-03 0.  1.
         11    1    4    4    0    0  0.10304660365E+00  0.77419098260E-04 -0.84375449012E-02  0.10339275508E+00  0.51100000000E-03 0. -1.
</event>
<event>
 8    1  0.2943605E+004  0.1043930E+01  0.7957747E-01            NaN
         13   -1    0    0    0    0  0.00000000000E+00  0.00000000000E+00  0.74505805969E-08  0.10566000000E+00  0.10566000000E+00 0.  1.
     999900   -1    0    0    0    0 -0.00000000000E+00 -0.00000000000E+00 -0.74505805969E-08  0.93827000000E+00  0.93827000000E+00 0.  1.
     999902    2    1    2    0    0  0.29438916797E-02  0.13105737181E-01 -0.34303910849E-02  0.10300665795E+01  0.10299732830E+01 0.  0.
     999903    2    3    3    0    0  0.12365027931E+00  0.42146773008E-03 -0.49325094360E-01  0.14055140452E+00  0.45079520530E-01 0.  0.
         14    1    1    2    0    0 -0.29438916797E-02 -0.13105737181E-01  0.34303910849E-02  0.13863420512E-01  0.00000000000E+00 0. -1.
     999901    1    3    3    0    0 -0.12070638763E+00  0.12684269451E-01  0.45894703275E-01  0.88951517497E+00  0.88000000000E+00 0. -1.
        -11    1    4    4    0    0  0.72124467527E-01 -0.15670243701E-02 -0.51976033648E-01  0.88916610238E-01  0.51100000000E-03 0.  1.
         11    1    4    4    0    0  0.51525811782E-01  0.19884921001E-02  0.26509392880E-02  0.51634794284E-01  0.51100000000E-03 0. -1.
</event>
<event>
 8    1  0.2943605E+004  0.1043930E+01  0.7957747E-01            NaN
         13   -1    0    0    0    0  0.00000000000E+00  0.00000000000E+00  0.74505805969E-08  0.10566000000E+00  0.10566000000E+00 0. -1.
     999900   -1    0    0    0    0 -0.00000000000E+00 -0.00000000000E+00 -0.74505805969E-08  0.93827000000E+00  0.93827000000E+00 0. -1.
     999902    2    1    2    0    0 -0.91539318791E-02  0.96412902787E-02 -0.55243503554E-02  0.10295332158E+01  0.10294325501E+01 0.  0.
     999903    2    3    3    0    0 -0.10045195425E+00  0.12320590146E-01 -0.86185611325E-01  0.14113648771E+00  0.47425272908E-01 0.  0.
         14    1    1    2    0    0  0.91539318791E-02 -0.96412902787E-02  0.55243503554E-02  0.14396784153E-01  0.00000000000E+00 0. -1.
     999901    1    3    3    0    0  0.91298022372E-01 -0.26792998672E-02  0.80661260970E-01  0.88839672813E+00  0.88000000000E+00 0.  1.
        -11    1    4    4    0    0 -0.76762459693E-01  0.29704211436E-01 -0.61335080088E-01  0.10265022438E+00  0.51100000000E-03 0. -1.
         11    1    4    4    0    0 -0.23689494558E-01 -0.17383621290E-01 -0.24850531237E-01  0.38486263332E-01  0.51100000000E-03 0.  1.
</event>
<event>
 8    1  0.2943605E+004  0.1043930E+01  0.7957747E-01            NaN
         13   -1    0    0    0    0  0.00000000000E+00  0.00000000000E+00  0.74505805969E-08  0.10566000000E+00  0.10566000000E+00 0. -1.
     999900   -1    0    0    0    0 -0.00000000000E+00 -0.00000000000E+00 -0.74505805969E-08  0.93827000000E+00  0.93827000000E+00 0. -1.
     999902    2    1    2    0    0  0.76167977142E-03 -0.10852634042E-01 -0.81274865678E-02  0.10303500199E+01  0.10302605242E+01 0.  0.
     999903    2    3    3    0    0  0.76027846714E-01 -0.97283284436E-01 -0.61029587242E-01  0.14134277275E+00  0.31763154509E-01 0.  0.
         14    1    1    2    0    0 -0.76167977142E-03  0.10852634042E-01  0.81274865678E-02  0.13579980104E-01  0.00000000000E+00 0.  1.
     999901    1    3    3    0    0 -0.75266166943E-01  0.86430650394E-01  0.52902100675E-01  0.88900724714E+00  0.88000000000E+00 0. -1.
        -11    1    4    4    0    0  0.61071045210E-01 -0.86627499606E-01 -0.39677334448E-01  0.11317485693E+00  0.51100000000E-03 0.  1.
         11    1    4    4    0    0  0.14956801504E-01 -0.10655784830E-01 -0.21352252794E-01  0.28167915826E-01  0.51100000000E-03 0. -1.
</event>
<event>
 8    1  0.2943605E+004  0.1043930E+01  0.7957747E-01            NaN
         13   -1    0    0    0    0  0.00000000000E+00  0.00000000000E+00  0.74505805969E-08  0.10566000000E+00  0.10566000000E+00 0. -1.
     999900   -1    0    0    0    0 -0.00000000000E+00 -0.00000000000E+00 -0.74505805969E-08  0.93827000000E+00  0.93827000000E+00 0. -1.
     999902    2    1    2    0    0 -0.11594490186E-01  0.50501838960E-02  0.40334530298E-02  0.10306557654E+01  0.10305702798E+01 0.  0.
     999903    2    3    3    0    0 -0.24178102163E-01  0.54463709708E-01  0.12060201463E+00  0.14150545565E+00  0.43909813795E-01 0.  0.
         14    1    1    2    0    0  0.11594490186E-01 -0.50501838960E-02 -0.40334530298E-02  0.13274234569E-01  0.00000000000E+00 0. -1.
     999901    1    3    3    0    0  0.12583611977E-01 -0.49413525812E-01 -0.11656856160E+00  0.88915030978E+00  0.88000000000E+00 0. -1.
        -11    1    4    4    0    0 -0.27194919175E-01  0.50392151456E-01  0.69063958298E-01  0.89716353103E-01  0.51100000000E-03 0.  1.
         11    1    4    4    0    0  0.30168170125E-02  0.40715582518E-02  0.51538056332E-01  0.51789102550E-01  0.51100000000E-03 0. -1.
</event>
<event>
 8    1  0.2943605E+004  0.1043930E+01  0.7957747E-01            NaN
         13   -1    0    0    0    0  0.00000000000E+00  0.00000000000E+00  0.74505805969E-08  0.10566000000E+00  0.10566000000E+00 0. -1.
     999900   -1    0    0    0    0 -0.00000000000E+00 -0.00000000000E+00 -0.74505805969E-08  0.93827000000E+00  0.93827000000E+00 0. -1.
     999902    2    1    2    0    0  0.85410001531E-02  0.11785200031E-01  0.17815496671E-02  0.10292666599E+01  0.10291622047E+01 0.  0.
     999903    2    3    3    0    0  0.27332878101E-01 -0.84406098218E-01  0.96689602313E-01  0.13875363980E+00  0.45080125550E-01 0.  0.
         14    1    1    2    0    0 -0.85410001531E-02 -0.11785200031E-01 -0.17815496671E-02  0.14663340090E-01  0.00000000000E+00 0. -1.
     999901    1    3    3    0    0 -0.18791877948E-01  0.96191298248E-01 -0.94908052646E-01  0.89051302011E+00  0.88000000000E+00 0. -1.
        -11    1    4    4    0    0  0.95232952733E-03 -0.51304771827E-01  0.75831871099E-01  0.91563204068E-01  0.51100000000E-03 0.  1.
         11    1    4    4    0    0  0.26380548573E-01 -0.33101326390E-01  0.20857731214E-01  0.47190435728E-01  0.51100000000E-03 0. -1.
</event>
<event>
 8    1  0.2943605E+004  0.1043930E+01  0.7957747E-01            NaN
         13   -1    0    0    0    0  0.00000000000E+00  0.00000000000E+00  0.74505805969E-08  0.10566000000E+00  0.10566000000E+00 0.  1.
     999900   -1    0    0    0    0 -0.00000000000E+00 -0.00000000000E+00 -0.74505805969E-08  0.93827000000E+00  0.93827000000E+00 0. -1.
     999902    2    1    2    0    0 -0.68998455811E-02  0.13905465892E-01 -0.29899703927E-02  0.10281214652E+01  0.10279999209E+01 0.  0.
     999903    2    3    3    0    0 -0.14853753408E-01 -0.12455756795E+00 -0.30430382027E-01  0.13683685709E+00  0.45421312003E-01 0.  0.
         14    1    1    2    0    0  0.68998455811E-02 -0.13905465892E-01  0.29899703927E-02  0.15808534837E-01  0.00000000000E+00 0.  1.
     999901    1    3    3    0    0  0.79539078266E-02  0.13846303385E+00  0.27440411634E-01  0.89128460807E+00  0.88000000000E+00 0. -1.
        -11    1    4    4    0    0 -0.24296334433E-01 -0.31186407337E-01 -0.10223511876E-01  0.40837301399E-01  0.51100000000E-03 0.  1.
         11    1    4    4    0    0  0.94425810251E-02 -0.93371160616E-01 -0.20206870151E-01  0.95999555695E-01  0.51100000000E-03 0. -1.
</event>
<event>
 8    1  0.2943605E+004  0.1043930E+01  0.7957747E-01            NaN
         13   -1    0    0    0    0  0.00000000000E+00  0.00000000000E+00  0.74505805969E-08  0.10566000000E+00  0.10566000000E+00 0. -1.
     999900   -1    0    0    0    0 -0.00000000000E+00 -0.00000000000E+00 -0.74505805969E-08  0.93827000000E+00  0.93827000000E+00 0. -1.
     999902    2    1    2    0    0  0.10397657420E-01  0.67034197977E-02 -0.90250040052E-02  0.10286166785E+01  0.10285026852E+01 0.  0.
     999903    2    3    3    0    0  0.91732297912E-01  0.71831112702E-01 -0.65171135286E-01  0.14069251050E+00  0.44413763689E-01 0.  0.
         14    1    1    2    0    0 -0.10397657420E-01 -0.67034197977E-02  0.90250040052E-02  0.15313321459E-01  0.00000000000E+00 0.  1.
     999901    1    3    3    0    0 -0.81334640492E-01 -0.65127692905E-01  0.56146131281E-01  0.88792416804E+00  0.88000000000E+00 0.  1.
        -11    1    4    4    0    0  0.84188061649E-01  0.49491273594E-01 -0.38200897978E-01  0.10486460610E+00  0.51100000000E-03 0.  1.
         11    1    4    4    0    0  0.75442362634E-02  0.22339839108E-01 -0.26970237308E-01  0.35827904399E-01  0.51100000000E-03 0. -1.
</event>
<event>
 8    1  0.2943605E+004  0.1043930E+01  0.7957747E-01            NaN
         13   -1    0    0    0    0  0.00000000000E+00  0.00000000000E+00  0.74505805969E-08  0.10566000000E+00  0.10566000000E+00 0.  1.
     999900   -1    0    0    0    0 -0.00000000000E+00 -0.00000000000E+00 -0.74505805969E-08  0.93827000000E+00  0.93827000000E+00 0. -1.
     999902    2    1    2    0    0  0.59875369947E-02 -0.64205884468E-02 -0.10486726428E-01  0.10302535243E+01  0.10301627437E+01 0.  0.
     999903    2    3    3    0    0  0.37989836207E-01  0.18249416049E-01 -0.12739502884E+00  0.14160268883E+00  0.45227859460E-01 0.  0.
         14    1    1    2    0    0 -0.59875369947E-02  0.64205884468E-02  0.10486726428E-01  0.13676475659E-01  0.00000000000E+00 0. -1.
     999901    1    3    3    0    0 -0.32002299213E-01 -0.24670004496E-01  0.11690830241E+00  0.88865083551E+00  0.88000000000E+00 0.  1.
        -11    1    4    4    0    0  0.73506679077E-02 -0.30610337339E-02 -0.83939963276E-01  0.84318330166E-01  0.51100000000E-03 0. -1.
         11    1    4    4    0    0  0.30639168300E-01  0.21310449783E-01 -0.43455065561E-01  0.57284358667E-01  0.51100000000E-03 0.  1.
</event>
<event>
 8    1  0.2943605E+004  0.1043930E+01  0.7957747E-01            NaN
         13   -1    0    0    0    0  0.00000000000E+00  0.00000000000E+00  0.74505805969E-08  0.10566000000E+00  0.10566000000E+00 0. -1.
     999900   -1    0    0    0    0 -0.00000000000E+00 -0.00000000000E+00 -0.74505805969E-08  0.93827000000E+00  0.93827000000E+00 0. -1.
     999902    2    1    2    0    0 -0.82215111324E-02 -0.79697036544E-02 -0.60368728628E-02  0.10309857636E+01  0.10309045016E+01 0.  0.
     999903    2    3    3    0    0 -0.22332644596E-01 -0.84234766264E-01 -0.10273102253E+00  0.14229839314E+00  0.45835868463E-01 0.  0.
         14    1    1    2    0    0  0.82215111324E-02  0.79697036544E-02  0.60368728628E-02  0.12944236385E-01  0.00000000000E+00 0.  1.
     999901    1    3    3    0    0  0.14111133463E-01  0.76265062609E-01  0.96694149668E-01  0.88868737048E+00  0.88000000000E+00 0.  1.
        -11    1    4    4    0    0 -0.15264347139E-01 -0.37174985204E-01 -0.80065133701E-01  0.89586084712E-01  0.51100000000E-03 0. -1.
         11    1    4    4    0    0 -0.70682974570E-02 -0.47059781059E-01 -0.22665888830E-01  0.52712308427E-01  0.51100000000E-03 0.  1.
</event>
<event>
 8    1  0.2943605E+004  0.1043930E+01  0.7957747E-01            NaN
         13   -1    0    0    0    0  0.00000000000E+00  0.00000000000E+00  0.74505805969E-08  0.10566000000E+00  0.10566000000E+00 0.  1.
     999900   -1    0    0    0    0 -0.00000000000E+00 -0.00000000000E+00 -0.74505805969E-08  0.93827000000E+00  0.93827000000E+00 0. -1.
     999902    2    1    2    0    0  0.12279544739E-01 -0.21377905378E-02 -0.50999595357E-02  0.10304627451E+01  0.10303747387E+01 0.  0.
     999903    2    3    3    0    0 -0.76233962057E-02  0.36714705694E-03  0.13107463718E+00  0.13976306363E+00  0.47905140394E-01 0.  0.
         14    1    1    2    0    0 -0.12279544739E-01  0.21377905378E-02  0.50999595357E-02  0.13467254904E-01  0.00000000000E+00 0. -1.
     999901    1    3    3    0    0  0.19902940945E-01 -0.25049375948E-02 -0.13617459672E+00  0.89069968147E+00  0.88000000000E+00 0. -1.
        -11    1    4    4    0    0  0.77973193492E-03  0.23680728193E-01  0.66229265370E-01  0.70341748500E-01  0.51100000000E-03 0.  1.
         11    1    4    4    0    0 -0.84031281407E-02 -0.23313581136E-01  0.64845371813E-01  0.69421315131E-01  0.51100000000E-03 0. -1.
</event>
<event>
 8    1  0.2943605E+004  0.1043930E+01  0.7957747E-01            NaN
         13   -1    0    0    0    0  0.00000000000E+00  0.00000000000E+00  0.74505805969E-08  0.10566000000E+00  0.10566000000E+00 0.  1.
     999900   -1    0    0    0    0 -0.00000000000E+00 -0.00000000000E+00 -0.74505805969E-08  0.93827000000E+00  0.93827000000E+00 0. -1.
     999902    2    1    2    0    0 -0.13142765927E-02  0.51057349656E-02 -0.16995278690E-01  0.10261357495E+01  0.10259814526E+01 0.  0.
     999903    2    3    3    0    0  0.72540981709E-01  0.72351046591E-01  0.76759242855E-01  0.13553682664E+00  0.44512717762E-01 0.  0.
         14    1    1    2    0    0  0.13142765927E-02 -0.51057349656E-02  0.16995278690E-01  0.17794250483E-01  0.00000000000E+00 0.  1.
     999901    1    3    3    0    0 -0.73855258302E-01 -0.67245311625E-01 -0.93754521545E-01  0.89059892287E+00  0.88000000000E+00 0. -1.
        -11    1    4    4    0    0  0.26648526079E-01  0.85705594668E-03  0.20574013939E-01  0.33681295367E-01  0.51100000000E-03 0. -1.
         11    1    4    4    0    0  0.45892455631E-01  0.71493990644E-01  0.56185228916E-01  0.10185553128E+00  0.51100000000E-03 0.  1.
</event>
<event>
 8    1  0.2943605E+004  0.1043930E+01  0.7957747E-01            NaN
         13   -1    0    0    0    0  0.00000000000E+00  0.00000000000E+00  0.74505805969E-08  0.10566000000E+00  0.10566000000E+00 0.  1.
     999900   -1    0    0    0    0 -0.00000000000E+00 -0.00000000000E+00 -0.74505805969E-08  0.93827000000E+00  0.93827000000E+00 0. -1.
     999902    2    1    2    0    0 -0.72654958501E-02  0.80148102522E-02 -0.74803860793E-02  0.10307777839E+01  0.10306938726E+01 0.  0.
     999903    2    3    3    0    0 -0.98318013358E-01  0.75932749838E-01  0.51045739949E-01  0.14154850247E+00  0.44700075349E-01 0.  0.
         14    1    1    2    0    0  0.72654958501E-02 -0.80148102522E-02  0.74803860793E-02  0.13152216134E-01  0.00000000000E+00 0.  1.
     999901    1    3    3    0    0  0.91052517508E-01 -0.67917939586E-01 -0.58526126029E-01  0.88922928139E+00  0.88000000000E+00 0.  1.
        -11    1    4    4    0    0 -0.68466508042E-01  0.60474420974E-01  0.15563308936E-01  0.92667664380E-01  0.51100000000E-03 0. -1.
         11    1    4    4    0    0 -0.29851505317E-01  0.15458328864E-01  0.35482431013E-01  0.48880838092E-01  0.51100000000E-03 0.  1.
</event>
<event>
 8    1  0.2943605E+004  0.1043930E+01  0.7957747E-01            NaN
         13   -1    0    0    0    0  0.00000000000E+00  0.00000000000E+00  0.74505805969E-08  0.10566000000E+00  0.10566000000E+00 0. -1.
     999900   -1    0    0    0    0 -0.00000000000E+00 -0.00000000000E+00 -0.74505805969E-08  0.93827000000E+00  0.93827000000E+00 0. -1.
     999902    2    1    2    0    0  0.68270534919E-02 -0.93525079707E-03 -0.11205586936E-01  0.10307752088E+01  0.10306912644E+01 0.  0.
     999903    2    3    3    0    0  0.20997120233E-01 -0.97157642220E-01 -0.91778678861E-01  0.14175801966E+00  0.42326395378E-01 0.  0.
         14    1    1    2    0    0 -0.68270534919E-02  0.93525079707E-03  0.11205586936E-01  0.13154791219E-01  0.00000000000E+00 0. -1.
     999901    1    3    3    0    0 -0.14170066742E-01  0.96222391423E-01  0.80573091925E-01  0.88901718912E+00  0.88000000000E+00 0.  1.
        -11    1    4    4    0    0  0.83893316726E-03 -0.53073411993E-01 -0.23576731051E-01  0.58082822224E-01  0.51100000000E-03 0. -1.
         11    1    4    4    0    0  0.20158187066E-01 -0.44084230227E-01 -0.68201947810E-01  0.83675197440E-01  0.51100000000E-03 0.  1.
</event>
<event>
 8    1  0.2943605E+004  0.1043930E+01  0.7957747E-01            NaN
         13   -1    0    0    0    0  0.00000000000E+00  0.00000000000E+00  0.74505805969E-08  0.10566000000E+00  0.10566000000E+00 0.  1.
     999900   -1    0    0    0    0 -0.00000000000E+00 -0.00000000000E+00 -0.74505805969E-08  0.93827000000E+00  0.93827000000E+00 0.  1.
     999902    2    1    2    0    0  0.23825304770E-02 -0.10821395829E-01  0.91826382632E-02  0.10295390339E+01  0.10294384501E+01 0.  0.
     999903    2    3    3    0    0  0.15896163327E-01 -0.47455759259E-01  0.12434802316E+00  0.14117662998E+00  0.44313348932E-01 0.  0.
         14    1    1    2    0    0 -0.23825304770E-02  0.10821395829E-01 -0.91826382632E-02  0.14390966077E-01  0.00000000000E+00 0.  1.
     999901    1    3    3    0    0 -0.13513632850E-01  0.36634363430E-01 -0.11516538490E+00  0.88836240394E+00  0.88000000000E+00 0.  1.
        -11    1    4    4    0    0  0.11448866442E-01 -0.24718695202E-02  0.67671816585E-01  0.68679855581E-01  0.51100000000E-03 0.  1.
         11    1    4    4    0    0  0.44472968854E-02 -0.44983889739E-01  0.56676206576E-01  0.72496774401E-01  0.51100000000E-03 0. -1.
</event>
<event>
 8    1  0.2943605E+004  0.1043930E+01  0.7957747E-01            NaN
         13   -1    0    0    0    0  0.00000000000E+00  0.00000000000E+00  0.74505805969E-08  0.10566000000E+00  0.10566000000E+00 0. -1.
     999900   -1    0    0    0    0 -0.00000000000E+00 -0.00000000000E+00 -0.74505805969E-08  0.93827000000E+00  0.93827000000E+00 0.  1.
     999902    2    1    2    0    0  0.10693890201E-01  0.58373441157E-02 -0.53213144572E-02  0.10306352544E+01  0.10305495026E+01 0.  0.
     999903    2    3    3    0    0 -0.39326650782E-01 -0.12552829194E+00  0.11192985608E-01  0.13932626924E+00  0.44526271279E-01 0.  0.
         14    1    1    2    0    0 -0.10693890201E-01 -0.58373441157E-02  0.53213144572E-02  0.13294745635E-01  0.00000000000E+00 0. -1.
     999901    1    3    3    0    0  0.50020540983E-01  0.13136563606E+00 -0.16514300065E-01  0.89130898512E+00  0.88000000000E+00 0. -1.
        -11    1    4    4    0    0 -0.39552461987E-01 -0.51979988096E-01  0.59359974954E-02  0.65588212347E-01  0.51100000000E-03 0. -1.
         11    1    4    4    0    0  0.22581120455E-03 -0.73548303846E-01  0.52569881122E-02  0.73738056893E-01  0.51100000000E-03 0.  1.
</event>
<event>
 8    1  0.2943605E+004  0.1043930E+01  0.7957747E-01            NaN
         13   -1    0    0    0    0  0.00000000000E+00  0.00000000000E+00  0.74505805969E-08  0.10566000000E+00  0.10566000000E+00 0. -1.
     999900   -1    0    0    0    0 -0.00000000000E+00 -0.00000000000E+00 -0.74505805969E-08  0.93827000000E+00  0.93827000000E+00 0.  1.
     999902    2    1    2    0    0  0.41453540827E-02  0.13256497504E-01  0.67415589105E-03  0.10300241317E+01  0.10299302592E+01 0.  0.
     999903    2    3    3    0    0  0.72381085556E-01  0.85252031749E-01  0.73694106148E-01  0.14144583740E+00  0.45488165192E-01 0.  0.
         14    1    1    2    0    0 -0.41453540827E-02 -0.13256497504E-01 -0.67415589105E-03  0.13905868283E-01  0.00000000000E+00 0.  1.
     999901    1    3    3    0    0 -0.68235731473E-01 -0.71995534245E-01 -0.73019950257E-01  0.88857829432E+00  0.88000000000E+00 0.  1.
        -11    1    4    4    0    0  0.60407222474E-01  0.57600388668E-01  0.73637717603E-01  0.11130863343E+00  0.51100000000E-03 0.  1.
         11    1    4    4    0    0  0.11973863082E-01  0.27651643080E-01  0.56388544357E-04  0.30137203965E-01  0.51100000000E-03 0. -1.
</event>
<event>
 8    1  0.2943605E+004  0.1043930E+01  0.7957747E-01            NaN
         13   -1    0    0    0    0  0.00000000000E+00  0.00000000000E+00  0.74505805969E-08  0.10566000000E+00  0.10566000000E+00 0.  1.
     999900   -1    0    0    0    0 -0.00000000000E+00 -0.00000000000E+00 -0.74505805969E-08  0.93827000000E+00  0.93827000000E+00 0. -1.
     999902    2    1    2    0    0 -0.96486971737E-02 -0.17505132454E-02 -0.66666378992E-02  0.10320722719E+01  0.10320041515E+01 0.  0.
     999903    2    3    3    0    0 -0.44172508513E-01  0.16470591998E-01  0.12492818014E+00  0.14143143616E+00  0.46618773412E-01 0.  0.
         14    1    1    2    0    0  0.96486971737E-02  0.17505132454E-02  0.66666378992E-02  0.11857728056E-01  0.00000000000E+00 0.  1.
     999901    1    3    3    0    0  0.34523811339E-01 -0.18221105244E-01 -0.13159481803E+00  0.89064083578E+00  0.88000000000E+00 0. -1.
        -11    1    4    4    0    0 -0.26879804083E-01 -0.12911509653E-01  0.39847208902E-01  0.49772403270E-01  0.51100000000E-03 0. -1.
         11    1    4    4    0    0 -0.17292704430E-01  0.29382101652E-01  0.85080971233E-01  0.91659032893E-01  0.51100000000E-03 0.  1.
</event>
<event>
 8    1  0.2943605E+004  0.1043930E+01  0.7957747E-01            NaN
         13   -1    0    0    0    0  0.00000000000E+00  0.00000000000E+00  0.74505805969E-08  0.10566000000E+00  0.10566000000E+00 0. -1.
     999900   -1    0    0    0    0 -0.00000000000E+00 -0.00000000000E+00 -0.74505805969E-08  0.93827000000E+00  0.93827000000E+00 0.  1.
     999902    2    1    2    0    0 -0.19469016684E-03 -0.69009253581E-02 -0.11771761133E-01  0.10302832042E+01  0.10301928197E+01 0.  0.
     999903    2    3    3    0    0  0.20541042848E-02  0.12819795595E+00  0.29925388556E-01  0.13899457694E+00  0.44553656239E-01 0.  0.
         14    1    1    2    0    0  0.19469016684E-03  0.69009253581E-02  0.11771761133E-01  0.13646795786E-01  0.00000000000E+00 0. -1.
     999901    1    3    3    0    0 -0.22487944516E-02 -0.13509888131E+00 -0.41697149689E-01  0.89128862727E+00  0.88000000000E+00 0.  1.
        -11    1    4    4    0    0 -0.10908534130E-01  0.18600970071E-01 -0.69067682935E-02  0.22648549042E-01  0.51100000000E-03 0.  1.
         11    1    4    4    0    0  0.12962638414E-01  0.10959698588E+00  0.36832156849E-01  0.11634602790E+00  0.51100000000E-03 0. -1.
</event>
<event>
 8    1  0.2943605E+004  0.1043930E+01  0.7957747E-01            NaN
         13   -1    0    0    0    0  0.00000000000E+00  0.00000000000E+00  0.74505805969E-08  0.10566000000E+00  0.10566000000E+00 0.  1.
     999900   -1    0    0    0    0 -0.00000000000E+00 -0.00000000000E+00 -0.74505805969E-08  0.93827000000E+00  0.93827000000E+00 0.  1.
     999902    2    1    2    0    0  0.45568606354E-02 -0.90616704922E-02  0.89143075463E-02  0.10304265290E+01  0.10303380454E+01 0.  0.
     999903    2    3    3    0    0  0.22969616830E-01 -0.12919003409E-02 -0.12990750023E+00  0.13931997348E+00  0.44775262024E-01 0.  0.
         14    1    1    2    0    0 -0.45568606354E-02  0.90616704922E-02 -0.89143075463E-02  0.13503471035E-01  0.00000000000E+00 0. -1.
     999901    1    3    3    0    0 -0.18412756195E-01 -0.77697701512E-02  0.13882180778E+00  0.89110655549E+00  0.88000000000E+00 0. -1.
        -11    1    4    4    0    0  0.17865125425E-01  0.16266781274E-01 -0.34181127893E-01  0.41861456073E-01  0.51100000000E-03 0.  1.
         11    1    4    4    0    0  0.51044914051E-02 -0.17558681615E-01 -0.95726372339E-01  0.97458517405E-01  0.51100000000E-03 0. -1.
</event>
<event>
 8    1  0.2943605E+004  0.1043930E+01  0.7957747E-01            NaN
         13   -1    0    0    0    0  0.00000000000E+00  0.00000000000E+00  0.74505805969E-08  0.10566000000E+00  0.10566000000E+00 0.  1.
     999900   -1    0    0    0    0 -0.00000000000E+00 -0.00000000000E+00 -0.74505805969E-08  0.93827000000E+00  0.93827000000E+00 0. -1.
     999902    2    1    2    0    0  0.19965523008E-02  0.25858587360E-02 -0.13687483585E-01  0.10298580388E+01  0.10297618948E+01 0.  0.
     999903    2    3    3    0    0 -0.10139766645E-01  0.10341994738E+00 -0.84338364078E-01  0.14120380308E+00  0.45022816027E-01 0.  0.
         14    1    1    2    0    0 -0.19965523008E-02 -0.25858587360E-02  0.13687483585E-01  0.14071961248E-01  0.00000000000E+00 0.  1.
     999901    1    3    3    0    0  0.12136318946E-01 -0.10083408865E+00  0.70650880493E-01  0.88865423568E+00  0.88000000000E+00 0.  1.
        -11    1    4    4    0    0  0.10538684232E-01  0.46649515933E-01 -0.58306592126E-01  0.75413268119E-01  0.51100000000E-03 0.  1.
         11    1    4    4    0    0 -0.20678450877E-01  0.56770431451E-01 -0.26031771952E-01  0.65790534956E-01  0.51100000000E-03 0. -1.
</event>
<event>
 8    1  0.2943605E+004  0.1043930E+01  0.7957747E-01            NaN
         13   -1    0    0    0    0  0.00000000000E+00  0.00000000000E+00  0.74505805969E-08  0.10566000000E+00  0.10566000000E+00 0. -1.
     999900   -1    0    0    0    0 -0.00000000000E+00 -0.00000000000E+00 -0.74505805969E-08  0.93827000000E+00  0.93827000000E+00 0.  1.
     999902    2    1    2    0    0  0.78603685390E-02  0.98593871731E-02  0.25529814670E-02  0.10310649068E+01  0.10309846417E+01 0.  0.
     999903    2    3    3    0    0 -0.10024588444E+00  0.34366131591E-01  0.80726287174E-01  0.14067251678E+00  0.45185785249E-01 0.  0.
         14    1    1    2    0    0 -0.78603685390E-02 -0.98593871731E-02 -0.25529814670E-02  0.12865093213E-01  0.00000000000E+00 0.  1.
     999901    1    3    3    0    0  0.10810625298E+00 -0.24506744417E-01 -0.78173305707E-01  0.89039239001E+00  0.88000000000E+00 0. -1.
        -11    1    4    4    0    0 -0.35289265414E-01  0.25170156275E-01  0.10568056361E-01  0.44618538262E-01  0.51100000000E-03 0.  1.
         11    1    4    4    0    0 -0.64956619028E-01  0.91959753158E-02  0.70158230813E-01  0.96053978520E-01  0.51100000000E-03 0. -1.
</event>
<event>
 8    1  0.2943605E+004  0.1043930E+01  0.7957747E-01            NaN
         13   -1    0    0    0    0  0.00000000000E+00  0.00000000000E+00  0.74505805969E-08  0.10566000000E+00  0.10566000000E+00 0. -1.
     999900   -1    0    0    0    0 -0.00000000000E+00 -0.00000000000E+00 -0.74505805969E-08  0.93827000000E+00  0.93827000000E+00 0.  1.
     999902    2    1    2    0    0  0.89120434525E-02 -0.31216876568E-02  0.96701367482E-02  0.10304140466E+01  0.10303253983E+01 0.  0.
     999903    2    3    3    0    0  0.75532802908E-03 -0.90201365895E-01  0.99164393287E-01  0.14156162670E+00  0.45489123170E-01 0.  0.
         14    1    1    2    0    0 -0.89120434525E-02  0.31216876568E-02 -0.96701367482E-02  0.13515953428E-01  0.00000000000E+00 0.  1.
     999901    1    3    3    0    0  0.81567154234E-02  0.87079678238E-01 -0.89494256539E-01  0.88885241988E+00  0.88000000000E+00 0.  1.
        -11    1    4    4    0    0  0.13529026232E-01 -0.52243227772E-01  0.30290953317E-01  0.61888547993E-01  0.51100000000E-03 0.  1.
         11    1    4    4    0    0 -0.12773698203E-01 -0.37958138123E-01  0.68873439970E-01  0.79673078702E-01  0.51100000000E-03 0. -1.
</event>
<event>
 8    1  0.2943605E+004  0.1043930E+01  0.7957747E-01            NaN
         13   -1    0    0    0    0  0.00000000000E+00  0.00000000000E+00  0.74505805969E-08  0.10566000000E+00  0.10566000000E+00 0. -1.
     999900   -1    0    0    0    0 -0.00000000000E+00 -0.00000000000E+00 -0.74505805969E-08  0.93827000000E+00  0.93827000000E+00 0. -1.
     999902    2    1    2    0    0 -0.45481327863E-02  0.13223024614E-01 -0.99663361439E-03  0.10299111851E+01  0.10298157709E+01 0.  0.
     999903    2    3    3    0    0  0.11190967080E+00  0.54427106188E-01  0.44777956447E-01  0.14010474019E+00  0.46240550769E-01 0.  0.
         14    1    1    2    0    0  0.45481327863E-02 -0.13223024614E-01  0.99663361439E-03  0.14018814870E-01  0.00000000000E+00 0. -1.
     999901    1    3    3    0    0 -0.11645780358E+00 -0.41204081574E-01 -0.45774590061E-01  0.88980644494E+00  0.88000000000E+00 0. -1.
        -11    1    4    4    0    0  0.50502105566E-01  0.31664235245E-01 -0.19649521199E-02  0.59642339139E-01  0.51100000000E-03 0. -1.
         11    1    4    4    0    0  0.61407565232E-01  0.22762870943E-01  0.46742908567E-01  0.80462401055E-01  0.51100000000E-03 0.  1.
</event>
<event>
 8    1  0.2943605E+004  0.1043930E+01  0.7957747E-01            NaN
         13   -1    0    0    0    0  0.00000000000E+00  0.00000000000E+00  0.74505805969E-08  0.10566000000E+00  0.10566000000E+00 0.  1.
     999900   -1    0    0    0    0 -0.00000000000E+00 -0.00000000000E+00 -0.74505805969E-08  0.93827000000E+00  0.93827000000E+00 0.  1.
     999902    2    1    2    0    0  0.54728388791E-02 -0.10057256065E-01 -0.69037003916E-02  0.10305598301E+01  0.10304730962E+01 0.  0.
     999903    2    3    3    0    0  0.73961220784E-01 -0.32410795299E-01 -0.10759950567E+00  0.14189229697E+00  0.45111511702E-01 0.  0.
         14    1    1    2    0    0 -0.54728388791E-02  0.10057256065E-01  0.69037003916E-02  0.13370169933E-01  0.00000000000E+00 0. -1.
     999901    1    3    3    0    0 -0.68488381905E-01  0.22353539234E-01  0.10069580528E+00  0.88866753309E+00  0.88000000000E+00 0. -1.
        -11    1    4    4    0    0  0.35472743240E-01  0.57838466194E-03 -0.70983342327E-01  0.79357079399E-01  0.51100000000E-03 0.  1.
         11    1    4    4    0    0  0.38488477544E-01 -0.32989179961E-01 -0.36616163345E-01  0.62535217575E-01  0.51100000000E-03 0. -1.
</event>
<event>
 8    1  0.2943605E+004  0.1043930E+01  0.7957747E-01            NaN
         13   -1    0    0    0    0  0.00000000000E+00  0.00000000000E+00  0.74505805969E-08  0.10566000000E+00  0.10566000000E+00 0.  1.
     999900   -1    0    0    0    0 -0.00000000000E+00 -0.00000000000E+00 -0.74505805969E-08  0.93827000000E+00  0.93827000000E+00 0.  1.
     999902    2    1    2    0    0 -0.24387177084E-02  0.15256659967E-01  0.38341372261E-02  0.10280110294E+01  0.10278877677E+01 0.  0.
     999903    2    3    3    0    0 -0.28773930807E-01  0.12411268645E+00  0.36912265168E-01  0.14029635647E+00  0.45701797396E-01 0.  0.
         14    1    1    2    0    0  0.24387177084E-02 -0.15256659967E-01 -0.38341372261E-02  0.15918970622E-01  0.00000000000E+00 0. -1.
     999901    1    3    3    0    0  0.26335213098E-01 -0.10885602649E+00 -0.33078127942E-01  0.88771467291E+00  0.88000000000E+00 0.  1.
        -11    1    4    4    0    0 -0.42350168563E-02  0.23668414964E-01 -0.10867597780E-01  0.26391192416E-01  0.51100000000E-03 0.  1.
         11    1    4    4    0    0 -0.24538913951E-01  0.10044427149E+00  0.47779862948E-01  0.11390516405E+00  0.51100000000E-03 0. -1.
</event>
<event>
 8    1  0.2943605E+004  0.1043930E+01  0.7957747E-01            NaN
         13   -1    0    0    0    0  0.00000000000E+00  0.00000000000E+00  0.74505805969E-08  0.10566000000E+00  0.10566000000E+00 0.  1.
     999900   -1    0    0    0    0 -0.00000000000E+00 -0.00000000000E+00 -0.74505805969E-08  0.93827000000E+00  0.93827000000E+00 0.  1.
     999902    2    1    2    0    0  0.71857588927E-02 -0.12249918124E-01 -0.14218782732E-03  0.10297273297E+01  0.10296293788E+01 0.  0.
     999903    2    3    3    0    0  0.49227403308E-01 -0.12445967399E+00 -0.10148606836E-01  0.14155017535E+00  0.44943411453E-01 0.  0.
         14    1    1    2    0    0 -0.71857588927E-02  0.12249918124E-01  0.14218782732E-03  0.14202670252E-01  0.00000000000E+00 0.  1.
     999901    1    3    3    0    0 -0.42041644416E-01  0.11220975587E+00  0.10006419009E-01  0.88817715440E+00  0.88000000000E+00 0. -1.
        -11    1    4    4    0    0  0.54379257461E-01 -0.85639163251E-01 -0.13030270663E-01  0.10228010070E+00  0.51100000000E-03 0. -1.
         11    1    4    4    0    0 -0.51518541521E-02 -0.38820510743E-01  0.28816638272E-02  0.39270074649E-01  0.51100000000E-03 0.  1.
</event>
<event>
 8    1  0.2943605E+004  0.1043930E+01  0.7957747E-01            NaN
         13   -1    0    0    0    0  0.00000000000E+00  0.00000000000E+00  0.74505805969E-08  0.10566000000E+00  0.10566000000E+00 0.  1.
     999900   -1    0    0    0    0 -0.00000000000E+00 -0.00000000000E+00 -0.74505805969E-08  0.93827000000E+00  0.93827000000E+00 0.  1.
     999902    2    1    2    0    0 -0.13372446064E-01 -0.76820023065E-04 -0.31551691424E-02  0.10301901562E+01  0.10300985267E+01 0.  0.
     999903    2    3    3    0    0  0.10390291998E+00 -0.60373269255E-01  0.51369251139E-01  0.13869585691E+00  0.46443431622E-01 0.  0.
         14    1    1    2    0    0  0.13372446064E-01  0.76820023065E-04  0.31551691424E-02  0.13739843790E-01  0.00000000000E+00 0. -1.
     999901    1    3    3    0    0 -0.11727536605E+00  0.60296449232E-01 -0.54524420281E-01  0.89149429930E+00  0.88000000000E+00 0. -1.
        -11    1    4    4    0    0  0.41618476656E-01 -0.89778305139E-02  0.37544833906E-01  0.56767725988E-01  0.51100000000E-03 0.  1.
         11    1    4    4    0    0  0.62284443327E-01 -0.51395438741E-01  0.13824417233E-01  0.81928130925E-01  0.51100000000E-03 0. -1.
</event>
<event>
 8    1  0.2943605E+004  0.1043930E+01  0.7957747E-01            NaN
         13   -1    0    0    0    0  0.00000000000E+00  0.00000000000E+00  0.74505805969E-08  0.10566000000E+00  0.10566000000E+00 0.  1.
     999900   -1    0    0    0    0 -0.00000000000E+00 -0.00000000000E+00 -0.74505805969E-08  0.93827000000E+00  0.93827000000E+00 0.  1.
     999902    2    1    2    0    0  0.15414567485E-02  0.43585646949E-02 -0.13250006815E-01  0.10298966164E+01  0.10298010024E+01 0.  0.
     999903    2    3    3    0    0  0.62537392698E-01 -0.97468888927E-01 -0.65259696835E-01  0.14040555832E+00  0.45208218092E-01 0.  0.
         14    1    1    2    0    0 -0.15414567485E-02 -0.43585646949E-02  0.13250006815E-01  0.14033383616E-01  0.00000000000E+00 0.  1.
     999901    1    3    3    0    0 -0.60995935949E-01  0.10182745362E+00  0.52009690021E-01  0.88949105806E+00  0.88000000000E+00 0.  1.
        -11    1    4    4    0    0  0.60792495342E-02 -0.44976594823E-01 -0.12805267718E-01  0.47160230694E-01  0.51100000000E-03 0. -1.
         11    1    4    4    0    0  0.56458143163E-01 -0.52492294104E-01 -0.52454429117E-01  0.93245327630E-01  0.51100000000E-03 0.  1.
</event>
<event>
 8    1  0.2943605E+004  0.1043930E+01  0.7957747E-01            NaN
         13   -1    0    0    0    0  0.00000000000E+00  0.00000000000E+00  0.74505805969E-08  0.10566000000E+00  0.10566000000E+00 0. -1.
     999900   -1    0    0    0    0 -0.00000000000E+00 -0.00000000000E+00 -0.74505805969E-08  0.93827000000E+00  0.93827000000E+00 0. -1.
     999902    2    1    2    0    0 -0.65362880581E-02  0.11730536575E-01  0.26600168291E-02  0.10302404332E+01  0.10301494775E+01 0.  0.
     999903    2    3    3    0    0  0.45814814706E-02  0.11159085602E+00  0.73811363704E-01  0.14166955680E+00  0.46353390326E-01 0.  0.
         14    1    1    2    0    0  0.65362880581E-02 -0.11730536575E-01 -0.26600168291E-02  0.13689566810E-01  0.00000000000E+00 0.  1.
     999901    1    3    3    0    0 -0.11117769529E-01 -0.99860319441E-01 -0.71151346874E-01  0.88857087639E+00  0.88000000000E+00 0. -1.
        -11    1    4    4    0    0  0.89851871870E-02  0.79051230745E-01  0.74250196054E-01  0.10882639113E+00  0.51100000000E-03 0. -1.
         11    1    4    4    0    0 -0.44037057164E-02  0.32539625271E-01 -0.43883235010E-03  0.32843165676E-01  0.51100000000E-03 0.  1.
</event>
<event>
 8    1  0.2943605E+004  0.1043930E+01  0.7957747E-01            NaN
         13   -1    0    0    0    0  0.00000000000E+00  0.00000000000E+00  0.74505805969E-08  0.10566000000E+00  0.10566000000E+00 0. -1.
     999900   -1    0    0    0    0 -0.00000000000E+00 -0.00000000000E+00 -0.74505805969E-08  0.93827000000E+00  0.93827000000E+00 0.  1.
     999902    2    1    2    0    0 -0.11404503697E-01 -0.73702489543E-02  0.29341704988E-02  0.10300378212E+01  0.10299441347E+01 0.  0.
     999903    2    3    3    0    0  0.47194015802E-01  0.12264831659E+00  0.28763478198E-01  0.13818258242E+00  0.31578532530E-01 0.  0.
         14    1    1    2    0    0  0.11404503697E-01  0.73702489543E-02 -0.29341704988E-02  0.13892178761E-01  0.00000000000E+00 0.  1.
     999901    1    3    3    0    0 -0.58598519499E-01 -0.13001856554E+00 -0.25829307699E-01  0.89185523882E+00  0.88000000000E+00 0.  1.
        -11    1    4    4    0    0  0.29709321653E-01  0.10203830848E+00  0.31919669412E-01  0.11096660131E+00  0.51100000000E-03 0. -1.
         11    1    4    4    0    0  0.17484694148E-01  0.20610008112E-01 -0.31561912137E-02  0.27215981111E-01  0.51100000000E-03 0.  1.
</event>
<event>
 8    1  0.2943605E+004  0.1043930E+01  0.7957747E-01            NaN
         13   -1    0    0    0    0  0.00000000000E+00  0.00000000000E+00  0.74505805969E-08  0.10566000000E+00  0.10566000000E+00 0.  1.
     999900   -1    0    0    0    0 -0.00000000000E+00 -0.00000000000E+00 -0.74505805969E-08  0.93827000000E+00  0.93827000000E+00 0.  1.
     999902    2    1    2    0    0 -0.62544346284E-02  0.22492514344E-02 -0.12002445958E-01  0.10302100950E+01  0.10301187330E+01 0.  0.
     999903    2    3    3    0    0 -0.55494683399E-01 -0.12115153717E+00  0.18368579644E-01  0.13971879468E+00  0.37770120809E-01 0.  0.
         14    1    1    2    0    0  0.62544346284E-02 -0.22492514344E-02  0.12002445958E-01  0.13719905011E-01  0.00000000000E+00 0.  1.
     999901    1    3    3    0    0  0.49240248770E-01  0.12340078860E+00 -0.30371025602E-01  0.89049130031E+00  0.88000000000E+00 0.  1.
        -11    1    4    4    0    0 -0.23728516045E-01 -0.78510275275E-01 -0.38002401926E-02  0.82107300187E-01  0.51100000000E-03 0. -1.
         11    1    4    4    0    0 -0.31766167354E-01 -0.42641261892E-01  0.22168819836E-01  0.57611494495E-01  0.51100000000E-03 0.  1.
</event>
<event>
 8    1  0.2943605E+004  0.1043930E+01  0.7957747E-01            NaN
         13   -1    0    0    0    0  0.00000000000E+00  0.00000000000E+00  0.74505805969E-08  0.10566000000E+00  0.10566000000E+00 0. -1.
     999900   -1    0    0    0    0 -0.00000000000E+00 -0.00000000000E+00 -0.74505805969E-08  0.93827000000E+00  0.93827000000E+00 0.  1.
     999902    2    1    2    0    0 -0.44954057538E-02 -0.13033665095E-01  0.32126571365E-02  0.10297735080E+01  0.10296761975E+01 0.  0.
     999903    2    3    3    0    0  0.82342599440E-01  0.25383889400E-01 -0.98931785086E-01  0.13879077268E+00  0.45285041202E-01 0.  0.
         14    1    1    2    0    0  0.44954057538E-02  0.13033665095E-01 -0.32126571365E-02  0.14156491959E-01  0.00000000000E+00 0. -1.
     999901    1    3    3    0    0 -0.86838005194E-01 -0.38417554495E-01  0.10214444222E+00  0.89098273536E+00  0.88000000000E+00 0. -1.
        -11    1    4    4    0    0  0.26733694953E-02 -0.22685829148E-02 -0.29053368981E-01  0.29268630700E-01  0.51100000000E-03 0.  1.
         11    1    4    4    0    0  0.79669229945E-01  0.27652472315E-01 -0.69878416104E-01  0.10952214198E+00  0.51100000000E-03 0. -1.
</event>
<event>
 8    1  0.2943605E+004  0.1043930E+01  0.7957747E-01            NaN
         13   -1    0    0    0    0  0.00000000000E+00  0.00000000000E+00  0.74505805969E-08  0.10566000000E+00  0.10566000000E+00 0.  1.
     999900   -1    0    0    0    0 -0.00000000000E+00 -0.00000000000E+00 -0.74505805969E-08  0.93827000000E+00  0.93827000000E+00 0.  1.
     999902    2    1    2    0    0 -0.19881811689E-02  0.67714830871E-02 -0.10385211607E-01  0.10313737877E+01  0.10312973536E+01 0.  0.
     999903    2    3    3    0    0 -0.23650163166E-01  0.12645338776E+00 -0.41483577805E-01  0.14246428265E+00  0.45004389888E-01 0.  0.
         14    1    1    2    0    0  0.19881811689E-02 -0.67714830871E-02  0.10385211607E-01  0.12556212314E-01  0.00000000000E+00 0.  1.
     999901    1    3    3    0    0  0.21661981998E-01 -0.11968190467E+00  0.31098366198E-01  0.88890950504E+00  0.88000000000E+00 0. -1.
        -11    1    4    4    0    0 -0.26692082505E-01  0.10210683982E+00 -0.15410844609E-01  0.10665847017E+00  0.51100000000E-03 0.  1.
         11    1    4    4    0    0  0.30419193389E-02  0.24346547938E-01 -0.26072733196E-01  0.35805812477E-01  0.51100000000E-03 0. -1.
</event>
<event>
 8    1  0.2943605E+004  0.1043930E+01  0.7957747E-01            NaN
         13   -1    0    0    0    0  0.00000000000E+00  0.00000000000E+00  0.74505805969E-08  0.10566000000E+00  0.10566000000E+00 0. -1.
     999900   -1    0    0    0    0 -0.00000000000E+00 -0.00000000000E+00 -0.74505805969E-08  0.93827000000E+00  0.93827000000E+00 0. -1.
     999902    2    1    2    0    0 -0.23740428571E-02 -0.28817459780E-02  0.14579863555E-01  0.10288796525E+01  0.10287695691E+01 0.  0.
     999903    2    3    3    0    0 -0.12854215481E+00  0.28524898569E-01 -0.63885120525E-02  0.13907942626E+00  0.44334166508E-01 0.  0.
         14    1    1    2    0    0  0.23740428571E-02  0.28817459780E-02 -0.14579863555E-01  0.15050347526E-01  0.00000000000E+00 0.  1.
     999901    1    3    3    0    0  0.12616811196E+00 -0.31406644547E-01  0.20968375608E-01  0.88980022621E+00  0.88000000000E+00 0.  1.
        -11    1    4    4    0    0 -0.73030249800E-01  0.37420926155E-01  0.28116227867E-02  0.82109131306E-01  0.51100000000E-03 0.  1.
         11    1    4    4    0    0 -0.55511905013E-01 -0.88960275860E-02 -0.92001348392E-02  0.56970294953E-01  0.51100000000E-03 0. -1.
</event>
<event>
 8    1  0.2943605E+004  0.1043930E+01  0.7957747E-01            NaN
         13   -1    0    0    0    0  0.00000000000E+00  0.00000000000E+00  0.74505805969E-08  0.10566000000E+00  0.10566000000E+00 0.  1.
     999900   -1    0    0    0    0 -0.00000000000E+00 -0.00000000000E+00 -0.74505805969E-08  0.93827000000E+00  0.93827000000E+00 0. -1.
     999902    2    1    2    0    0  0.10022604613E-01 -0.57179826168E-03 -0.10047170199E-01  0.10297270008E+01  0.10296290454E+01 0.  0.
     999903    2    3    3    0    0  0.79493712955E-01 -0.10033880519E+00  0.34259454921E-01  0.14026493441E+00  0.45971897377E-01 0.  0.
         14    1    1    2    0    0 -0.10022604613E-01  0.57179826168E-03  0.10047170199E-01  0.14202999172E-01  0.00000000000E+00 0.  1.
     999901    1    3    3    0    0 -0.69471108342E-01  0.99767006924E-01 -0.44306625119E-01  0.88946206642E+00  0.88000000000E+00 0. -1.
        -11    1    4    4    0    0  0.78209574826E-01 -0.71901449140E-01  0.18874362339E-01  0.10790300579E+00  0.51100000000E-03 0.  1.
         11    1    4    4    0    0  0.12841381287E-02 -0.28437356045E-01  0.15385092582E-01  0.32361928625E-01  0.51100000000E-03 0. -1.
</event>
<event>
 8    1  0.2943605E+004  0.1043930E+01  0.7957747E-01            NaN
         13   -1    0    0    0    0  0.00000000000E+00  0.00000000000E+00  0.74505805969E-08  0.10566000000E+00  0.10566000000E+00 0. -1.
     999900   -1    0    0    0    0 -0.00000000000E+00 -0.00000000000E+00 -0.74505805969E-08  0.93827000000E+00  0.93827000000E+00 0. -1.
     999902    2    1    2    0    0  0.36603650190E-02 -0.14536702259E-01  0.22122331414E-04  0.10289395206E+01  0.10288303176E+01 0.  0.
     999903    2    3    3    0    0  0.82594898871E-01  0.71088790955E-01 -0.73365358441E-01  0.13823861225E+00  0.43033760908E-01 0.  0.
         14    1    1    2    0    0 -0.36603650190E-02  0.14536702259E-01 -0.22122331414E-04  0.14990479447E-01  0.00000000000E+00 0. -1.
     999901    1    3    3    0    0 -0.78934533852E-01 -0.85625493215E-01  0.73387480772E-01  0.89070090831E+00  0.88000000000E+00 0.  1.
        -11    1    4    4    0    0  0.54123367440E-01  0.31184622779E-01 -0.19577900573E-01  0.65462775016E-01  0.51100000000E-03 0. -1.
         11    1    4    4    0    0  0.28471531430E-01  0.39904168177E-01 -0.53787457867E-01  0.72775837231E-01  0.51100000000E-03 0.  1.
</event>
<event>
 8    1  0.2943605E+004  0.1043930E+01  0.7957747E-01            NaN
         13   -1    0    0    0    0  0.00000000000E+00  0.00000000000E+00  0.74505805969E-08  0.10566000000E+00  0.10566000000E+00 0. -1.
     999900   -1    0    0    0    0 -0.00000000000E+00 -0.00000000000E+00 -0.74505805969E-08  0.93827000000E+00  0.93827000000E+00 0. -1.
     999902    2    1    2    0    0 -0.13363506828E-01  0.19173912545E-02 -0.73475563543E-03  0.10304096609E+01  0.10303209547E+01 0.  0.
     999903    2    3    3    0    0  0.12596547967E+00  0.24702872883E-01 -0.38035428714E-01  0.13837654218E+00  0.34983418798E-01 0.  0.
         14    1    1    2    0    0  0.13363506828E-01 -0.19173912545E-02  0.73475563543E-03  0.13520339116E-01  0.00000000000E+00 0. -1.
     999901    1    3    3    0    0 -0.13932898650E+00 -0.22785481628E-01  0.37300673078E-01  0.89203311870E+00  0.88000000000E+00 0.  1.
        -11    1    4    4    0    0  0.23081080253E-01  0.17141666633E-01 -0.15927027702E-01  0.32871025737E-01  0.51100000000E-03 0. -1.
         11    1    4    4    0    0  0.10288439942E+00  0.75612062503E-02 -0.22108401012E-01  0.10550551644E+00  0.51100000000E-03 0.  1.
</event>
<event>
 8    1  0.2943605E+004  0.1043930E+01  0.7957747E-01            NaN
         13   -1    0    0    0    0  0.00000000000E+00  0.00000000000E+00  0.74505805969E-08  0.10566000000E+00  0.10566000000E+00 0.  1.
     999900   -1    0    0    0    0 -0.00000000000E+00 -0.00000000000E+00 -0.74505805969E-08  0.93827000000E+00  0.93827000000E+00 0.  1.
     999902    2    1    2    0    0 -0.80794207083E-02 -0.14400990617E-01  0.38128931435E-02  0.10269829140E+01  0.10268430756E+01 0.  0.
     999903    2    3    3    0    0  0.84582156475E-01  0.12968183234E-01 -0.95723656215E-01  0.13611661414E+00  0.45192912238E-01 0.  0.
         14    1    1    2    0    0  0.80794207083E-02  0.14400990617E-01 -0.38128931435E-02  0.16947085999E-01  0.00000000000E+00 0. -1.
     999901    1    3    3    0    0 -0.92661577183E-01 -0.27369173850E-01  0.99536549359E-01  0.89086629986E+00  0.88000000000E+00 0. -1.
        -11    1    4    4    0    0  0.73569140783E-01  0.56268594799E-02 -0.51575508627E-01  0.90024298022E-01  0.51100000000E-03 0. -1.
         11    1    4    4    0    0  0.11013015692E-01  0.73413237538E-02 -0.44148147588E-01  0.46092316122E-01  0.51100000000E-03 0.  1.
</event>
<event>
 8    1  0.2943605E+004  0.1043930E+01  0.7957747E-01            NaN
         13   -1    0    0    0    0  0.00000000000E+00  0.00000000000E+00  0.74505805969E-08  0.10566000000E+00  0.10566000000E+00 0. -1.
     999900   -1    0    0    0    0 -0.00000000000E+00 -0.00000000000E+00 -0.74505805969E-08  0.93827000000E+00  0.93827000000E+00 0. -1.
     999902    2    1    2    0    0 -0.12632080108E-02 -0.40475798995E-02 -0.12997891673E-01  0.10302579926E+01  0.10301672717E+01 0.  0.
     999903    2    3    3    0    0 -0.44412756918E-01 -0.62463409048E-01 -0.11093317569E+00  0.14185177219E+00  0.44063424268E-01 0.  0.
         14    1    1    2    0    0  0.12632080108E-02  0.40475798995E-02  0.12997891673E-01  0.13672007367E-01  0.00000000000E+00 0. -1.
     999901    1    3    3    0    0  0.43149548908E-01  0.58415829148E-01  0.97935284015E-01  0.88840622044E+00  0.88000000000E+00 0.  1.
        -11    1    4    4    0    0 -0.26191802508E-01 -0.32658746141E-02 -0.30661070710E-01  0.40460336549E-01  0.51100000000E-03 0. -1.
         11    1    4    4    0    0 -0.18220954411E-01 -0.59197534434E-01 -0.80272104978E-01  0.10139143564E+00  0.51100000000E-03 0.  1.
</event>
<event>
 8    1  0.2943605E+004  0.1043930E+01  0.7957747E-01            NaN
         13   -1    0    0    0    0  0.00000000000E+00  0.00000000000E+00  0.74505805969E-08  0.10566000000E+00  0.10566000000E+00 0. -1.
     999900   -1    0    0    0    0 -0.00000000000E+00 -0.00000000000E+00 -0.74505805969E-08  0.93827000000E+00  0.93827000000E+00 0. -1.
     999902    2    1    2    0    0  0.85182769166E-02 -0.44431143132E-03 -0.10147015966E-01  0.10306740433E+01  0.10305887944E+01 0.  0.
     999903    2    3    3    0    0 -0.71566615646E-01  0.92832696937E-02 -0.11265321893E+00  0.14105854352E+00  0.44708001465E-01 0.  0.
         14    1    1    2    0    0 -0.85182769166E-02  0.44431143132E-03  0.10147015966E-01  0.13255956672E-01  0.00000000000E+00 0. -1.
     999901    1    3    3    0    0  0.80084892562E-01 -0.97275811251E-02  0.10250620296E+00  0.88961549981E+00  0.88000000000E+00 0.  1.
        -11    1    4    4    0    0 -0.31699064775E-01 -0.24288199507E-02 -0.86000974129E-01  0.91690558653E-01  0.51100000000E-03 0.  1.
         11    1    4    4    0    0 -0.39867550871E-01  0.11712089644E-01 -0.26652244796E-01  0.49367984869E-01  0.51100000000E-03 0. -1.
</event>
<event>
 8    1  0.2943605E+004  0.1043930E+01  0.7957747E-01            NaN
         13   -1    0    0    0    0  0.00000000000E+00  0.00000000000E+00  0.74505805969E-08  0.10566000000E+00  0.10566000000E+00 0. -1.
     999900   -1    0    0    0    0 -0.00000000000E+00 -0.00000000000E+00 -0.74505805969E-08  0.93827000000E+00  0.93827000000E+00 0.  1.
     999902    2    1    2    0    0  0.12273469846E-01  0.69486624254E-02  0.68849199253E-02  0.10282352845E+01  0.10281154975E+01 0.  0.
     999903    2    3    3    0    0  0.19566277045E-01  0.57886924059E-01 -0.11526395842E+00  0.13830931006E+00  0.45934191667E-01 0.  0.
         14    1    1    2    0    0 -0.12273469846E-01 -0.69486624254E-02 -0.68849199253E-02  0.15694715478E-01  0.00000000000E+00 0.  1.
     999901    1    3    3    0    0 -0.72928071989E-02 -0.50938261634E-01  0.12214887835E+00  0.88992597446E+00  0.88000000000E+00 0. -1.
        -11    1    4    4    0    0  0.14538081765E-02  0.34768937487E-01 -0.23589589785E-01  0.42044291401E-01  0.51100000000E-03 0.  1.
         11    1    4    4    0    0  0.18112468869E-01  0.23117986573E-01 -0.91674368639E-01  0.96265018662E-01  0.51100000000E-03 0. -1.
</event>
<event>
 8    1  0.2943605E+004  0.1043930E+01  0.7957747E-01            NaN
         13   -1    0    0    0    0  0.00000000000E+00  0.00000000000E+00  0.74505805969E-08  0.10566000000E+00  0.10566000000E+00 0. -1.
     999900   -1    0    0    0    0 -0.00000000000E+00 -0.00000000000E+00 -0.74505805969E-08  0.93827000000E+00  0.93827000000E+00 0.  1.
     999902    2    1    2    0    0 -0.92785144858E-02  0.87121456897E-02  0.54399075580E-02  0.10300885800E+01  0.10299955814E+01 0.  0.
     999903    2    3    3    0    0  0.11221965960E+00 -0.32552364968E-01  0.60069199272E-01  0.13910657924E+00  0.45710209177E-01 0.  0.
         14    1    1    2    0    0  0.92785144858E-02 -0.87121456897E-02 -0.54399075580E-02  0.13841420007E-01  0.00000000000E+00 0. -1.
     999901    1    3    3    0    0 -0.12149817408E+00  0.41264510657E-01 -0.54629291714E-01  0.89098200075E+00  0.88000000000E+00 0. -1.
        -11    1    4    4    0    0  0.17525682540E-01 -0.24125596676E-01  0.88057200238E-02  0.31096555912E-01  0.51100000000E-03 0.  1.
         11    1    4    4    0    0  0.94693977056E-01 -0.84267682914E-02  0.51263479248E-01  0.10801002333E+00  0.51100000000E-03 0. -1.
</event>
<event>
 8    1  0.2943605E+004  0.1043930E+01  0.7957747E-01            NaN
         13   -1    0    0    0    0  0.00000000000E+00  0.00000000000E+00  0.74505805969E-08  0.10566000000E+00  0.10566000000E+00 0. -1.
     999900   -1    0    0    0    0 -0.00000000000E+00 -0.00000000000E+00 -0.74505805969E-08  0.93827000000E+00  0.93827000000E+00 0. -1.
     999902    2    1    2    0    0  0.74290422605E-02 -0.87758557673E-02  0.73463622739E-02  0.10302853911E+01  0.10301950358E+01 0.  0.
     999903    2    3    3    0    0 -0.87208138927E-01  0.34638987069E-01  0.93737222352E-01  0.13994589105E+00  0.44643775017E-01 0.  0.
         14    1    1    2    0    0 -0.74290422605E-02  0.87758557673E-02 -0.73463622739E-02  0.13644608899E-01  0.00000000000E+00 0.  1.
     999901    1    3    3    0    0  0.94637181188E-01 -0.43414842836E-01 -0.86390860078E-01  0.89033950005E+00  0.88000000000E+00 0. -1.
        -11    1    4    4    0    0 -0.11190793560E-01  0.24207190763E-01  0.18338665424E-01  0.32369580097E-01  0.51100000000E-03 0.  1.
         11    1    4    4    0    0 -0.76017345367E-01  0.10431796306E-01  0.75398556928E-01  0.10757631095E+00  0.51100000000E-03 0. -1.
</event>
<event>
 8    1  0.2943605E+004  0.1043930E+01  0.7957747E-01            NaN
         13   -1    0    0    0    0  0.00000000000E+00  0.00000000000E+00  0.74505805969E-08  0.10566000000E+00  0.10566000000E+00 0. -1.
     999900   -1    0    0    0    0 -0.00000000000E+00 -0.00000000000E+00 -0.74505805969E-08  0.93827000000E+00  0.93827000000E+00 0.  1.
     999902    2    1    2    0    0  0.89615653963E-02 -0.37090710117E-02  0.12156306034E-01  0.10283787094E+01  0.10282611183E+01 0.  0.
     999903    2    3    3    0    0 -0.36945206607E-01  0.75034161207E-01  0.10148352920E+00  0.13917272590E+00  0.45552906569E-01 0.  0.
         14    1    1    2    0    0 -0.89615653963E-02  0.37090710117E-02 -0.12156306034E-01  0.15551290574E-01  0.00000000000E+00 0.  1.
     999901    1    3    3    0    0  0.45906772003E-01 -0.78743232219E-01 -0.89327223166E-01  0.88920598352E+00  0.88000000000E+00 0.  1.
        -11    1    4    4    0    0 -0.96786064276E-02  0.35697790285E-01  0.76966568533E-01  0.85393919259E-01  0.51100000000E-03 0.  1.
         11    1    4    4    0    0 -0.27266600179E-01  0.39336370922E-01  0.24516960666E-01  0.53778806643E-01  0.51100000000E-03 0. -1.
</event>
<event>
 8    1  0.2943605E+004  0.1043930E+01  0.7957747E-01            NaN
         13   -1    0    0    0    0  0.00000000000E+00  0.00000000000E+00  0.74505805969E-08  0.10566000000E+00  0.10566000000E+00 0. -1.
     999900   -1    0    0    0    0 -0.00000000000E+00 -0.00000000000E+00 -0.74505805969E-08  0.93827000000E+00  0.93827000000E+00 0. -1.
     999902    2    1    2    0    0 -0.11478940939E-01  0.11642035448E-02 -0.33354114250E-02  0.10319197367E+01  0.10318498421E+01 0.  0.
     999903    2    3    3    0    0  0.43722911337E-01 -0.12149560000E+00  0.35242392955E-01  0.14086366727E+00  0.43905269618E-01 0.  0.
         14    1    1    2    0    0  0.11478940939E-01 -0.11642035448E-02  0.33354114250E-02  0.12010263293E-01  0.00000000000E+00 0.  1.
     999901    1    3    3    0    0 -0.55201852276E-01  0.12265980354E+00 -0.38577804380E-01  0.89105606944E+00  0.88000000000E+00 0. -1.
        -11    1    4    4    0    0  0.27065170202E-01 -0.86190408706E-01  0.44549723125E-01  0.10072859049E+00  0.51100000000E-03 0.  1.
         11    1    4    4    0    0  0.16657741135E-01 -0.35305191289E-01 -0.93073301704E-02  0.40135076773E-01  0.51100000000E-03 0. -1.
</event>
<event>
 8    1  0.2943605E+004  0.1043930E+01  0.7957747E-01            NaN
         13   -1    0    0    0    0  0.00000000000E+00  0.00000000000E+00  0.74505805969E-08  0.10566000000E+00  0.10566000000E+00 0. -1.
     999900   -1    0    0    0    0 -0.00000000000E+00 -0.00000000000E+00 -0.74505805969E-08  0.93827000000E+00  0.93827000000E+00 0.  1.
     999902    2    1    2    0    0 -0.97857125239E-03  0.37129427875E-02  0.13934445263E-01  0.10294762008E+01  0.10293747305E+01 0.  0.
     999903    2    3    3    0    0  0.11390018459E+00 -0.61042444235E-01 -0.23697503200E-01  0.13885475922E+00  0.44940410032E-01 0.  0.
         14    1    1    2    0    0  0.97857125239E-03 -0.37129427875E-02 -0.13934445263E-01  0.14453799176E-01  0.00000000000E+00 0.  1.
     999901    1    3    3    0    0 -0.11487875584E+00  0.64755387022E-01  0.37631948462E-01  0.89062144160E+00  0.88000000000E+00 0. -1.
        -11    1    4    4    0    0  0.10060948398E+00 -0.67168711547E-01 -0.15196581160E-01  0.12192252162E+00  0.51100000000E-03 0. -1.
         11    1    4    4    0    0  0.13290700611E-01  0.61262673122E-02 -0.85009220401E-02  0.16932237609E-01  0.51100000000E-03 0.  1.
</event>
<event>
 8    1  0.2943605E+004  0.1043930E+01  0.7957747E-01            NaN
         13   -1    0    0    0    0  0.00000000000E+00  0.00000000000E+00  0.74505805969E-08  0.10566000000E+00  0.10566000000E+00 0. -1.
     999900   -1    0    0    0    0 -0.00000000000E+00 -0.00000000000E+00 -0.74505805969E-08  0.93827000000E+00  0.93827000000E+00 0.  1.
     999902    2    1    2    0    0  0.50821358380E-02  0.16287267631E-03 -0.11847639206E-01  0.10310373204E+01  0.10309567085E+01 0.  0.
     999903    2    3    3    0    0 -0.10685339574E+00 -0.46094554132E-01  0.61361895492E-01  0.13972988258E+00  0.47082924363E-01 0.  0.
         14    1    1    2    0    0 -0.50821358380E-02 -0.16287267631E-03  0.11847639206E-01  0.12892679587E-01  0.00000000000E+00 0. -1.
     999901    1    3    3    0    0  0.11193553157E+00  0.46257426809E-01 -0.73209534698E-01  0.89130743783E+00  0.88000000000E+00 0. -1.
        -11    1    4    4    0    0 -0.79988620407E-01 -0.44688814650E-01  0.65330105906E-01  0.11253245491E+00  0.51100000000E-03 0.  1.
         11    1    4    4    0    0 -0.26864775329E-01 -0.14057394820E-02 -0.39682104140E-02  0.27197427670E-01  0.51100000000E-03 0. -1.
</event>
<event>
 8    1  0.2943605E+004  0.1043930E+01  0.7957747E-01            NaN
         13   -1    0    0    0    0  0.00000000000E+00  0.00000000000E+00  0.74505805969E-08  0.10566000000E+00  0.10566000000E+00 0. -1.
     999900   -1    0    0    0    0 -0.00000000000E+00 -0.00000000000E+00 -0.74505805969E-08  0.93827000000E+00  0.93827000000E+00 0. -1.
     999902    2    1    2    0    0 -0.11302687569E-01  0.78926262913E-02 -0.52150444387E-03  0.10301344840E+01  0.10300421053E+01 0.  0.
     999903    2    3    3    0    0 -0.15222741235E-01 -0.21956838204E-02 -0.13208293180E+00  0.14028868271E+00  0.44704146841E-01 0.  0.
         14    1    1    2    0    0  0.11302687569E-01 -0.78926262913E-02  0.52150444387E-03  0.13795516045E-01  0.00000000000E+00 0.  1.
     999901    1    3    3    0    0  0.39200536662E-02  0.10088310112E-01  0.13156142736E+00  0.88984580124E+00  0.88000000000E+00 0.  1.
        -11    1    4    4    0    0 -0.15142121881E-01  0.11549005139E-01 -0.12136591035E+00  0.12285197878E+00  0.51100000000E-03 0. -1.
         11    1    4    4    0    0 -0.80619354031E-04 -0.13744688959E-01 -0.10717021456E-01  0.17436703930E-01  0.51100000000E-03 0.  1.
</event>
<event>
 8    1  0.2943605E+004  0.1043930E+01  0.7957747E-01            NaN
         13   -1    0    0    0    0  0.00000000000E+00  0.00000000000E+00  0.74505805969E-08  0.10566000000E+00  0.10566000000E+00 0. -1.
     999900   -1    0    0    0    0 -0.00000000000E+00 -0.00000000000E+00 -0.74505805969E-08  0.93827000000E+00  0.93827000000E+00 0. -1.
     999902    2    1    2    0    0 -0.10436132896E-01 -0.30477290856E-03 -0.91613773461E-02  0.10300398383E+01  0.10299461792E+01 0.  0.
     999903    2    3    3    0    0  0.15981009392E-01 -0.12830834373E+00 -0.27479685936E-01  0.14019808837E+00  0.46711316724E-01 0.  0.
         14    1    1    2    0    0  0.10436132896E-01  0.30477290856E-03  0.91613773461E-02  0.13890161670E-01  0.00000000000E+00 0. -1.
     999901    1    3    3    0    0 -0.26417142288E-01  0.12800357082E+00  0.18318308589E-01  0.88984174996E+00  0.88000000000E+00 0.  1.
        -11    1    4    4    0    0  0.25698706666E-01 -0.76958554713E-01  0.27581418416E-04  0.81137565588E-01  0.51100000000E-03 0.  1.
         11    1    4    4    0    0 -0.97176972741E-02 -0.51349789018E-01 -0.27507267354E-01  0.59060522778E-01  0.51100000000E-03 0. -1.
</event>
<event>
 8    1  0.2943605E+004  0.1043930E+01  0.7957747E-01            NaN
         13   -1    0    0    0    0  0.00000000000E+00  0.00000000000E+00  0.74505805969E-08  0.10566000000E+00  0.10566000000E+00 0.  1.
     999900   -1    0    0    0    0 -0.00000000000E+00 -0.00000000000E+00 -0.74505805969E-08  0.93827000000E+00  0.93827000000E+00 0. -1.
     999902    2    1    2    0    0 -0.13118382598E-01  0.76167134502E-02  0.14143702333E-01  0.10231899276E+01  0.10229797053E+01 0.  0.
     999903    2    3    3    0    0 -0.95811502695E-01 -0.46341022513E-01 -0.62140825267E-01  0.13438797077E+00  0.53584607001E-01 0.  0.
         14    1    1    2    0    0  0.13118382598E-01 -0.76167134502E-02 -0.14143702333E-01  0.20740072359E-01  0.00000000000E+00 0. -1.
     999901    1    3    3    0    0  0.82693120097E-01  0.53957735963E-01  0.76284527600E-01  0.88880195687E+00  0.88000000000E+00 0.  1.
        -11    1    4    4    0    0 -0.76823023437E-01 -0.18619099117E-01 -0.22032091508E-01  0.82061696054E-01  0.51100000000E-03 0.  1.
         11    1    4    4    0    0 -0.18988479258E-01 -0.27721923396E-01 -0.40108733759E-01  0.52326274719E-01  0.51100000000E-03 0. -1.
</event>
<event>
 8    1  0.2943605E+004  0.1043930E+01  0.7957747E-01            NaN
         13   -1    0    0    0    0  0.00000000000E+00  0.00000000000E+00  0.74505805969E-08  0.10566000000E+00  0.10566000000E+00 0. -1.
     999900   -1    0    0    0    0 -0.00000000000E+00 -0.00000000000E+00 -0.74505805969E-08  0.93827000000E+00  0.93827000000E+00 0. -1.
     999902    2    1    2    0    0  0.90837392479E-02 -0.19076571856E-03 -0.90828554438E-02  0.10310828613E+01  0.10310028215E+01 0.  0.
     999903    2    3    3    0    0 -0.10113213732E+00  0.24119645480E-01 -0.83479618111E-01  0.14076077696E+00  0.45114113005E-01 0.  0.
         14    1    1    2    0    0 -0.90837392479E-02  0.19076571856E-03  0.90828554438E-02  0.12847138720E-01  0.00000000000E+00 0. -1.
     999901    1    3    3    0    0  0.11021587657E+00 -0.24310411199E-01  0.74396762667E-01  0.89032208432E+00  0.88000000000E+00 0. -1.
        -11    1    4    4    0    0 -0.67583845663E-01  0.21842187370E-01 -0.28962216040E-01  0.76705465403E-01  0.51100000000E-03 0.  1.
         11    1    4    4    0    0 -0.33548291657E-01  0.22774581098E-02 -0.54517402071E-01  0.64055311553E-01  0.51100000000E-03 0. -1.
</event>
<event>
 8    1  0.2943605E+004  0.1043930E+01  0.7957747E-01            NaN
         13   -1    0    0    0    0  0.00000000000E+00  0.00000000000E+00  0.74505805969E-08  0.10566000000E+00  0.10566000000E+00 0. -1.
     999900   -1    0    0    0    0 -0.00000000000E+00 -0.00000000000E+00 -0.74505805969E-08  0.93827000000E+00  0.93827000000E+00 0. -1.
     999902    2    1    2    0    0  0.11106109959E-01 -0.21616773361E-02  0.12574392566E-01  0.10270145078E+01  0.10268751947E+01 0.  0.
     999903    2    3    3    0    0  0.93379110706E-01  0.29105805605E-01  0.88662625775E-01  0.13935696047E+00  0.44637372063E-01 0.  0.
         14    1    1    2    0    0 -0.11106109959E-01  0.21616773361E-02 -0.12574392566E-01  0.16915492181E-01  0.00000000000E+00 0.  1.
     999901    1    3    3    0    0 -0.82273000746E-01 -0.31267482941E-01 -0.76088233209E-01  0.88765754735E+00  0.88000000000E+00 0. -1.
        -11    1    4    4    0    0  0.28565938778E-01  0.76787483760E-02  0.56755220977E-01  0.64003064489E-01  0.51100000000E-03 0.  1.
         11    1    4    4    0    0  0.64813171927E-01  0.21427057229E-01  0.31907404798E-01  0.75353895976E-01  0.51100000000E-03 0. -1.
</event>
<event>
 7    1  0.2943605E+004  0.1043930E+01  0.7957747E-01            NaN
         13   -1    0    0    0    0  0.00000000000E+00  0.00000000000E+00  0.74505805969E-08  0.10566000000E+00  0.10566000000E+00 0.  1.
     999900   -1    0    0    0    0 -0.00000000000E+00 -0.00000000000E+00 -0.74505805969E-08  0.93827000000E+00  0.93827000000E+00 0. -1.
     999903    2    1    2    0    0 -0.17872570074E-01  0.86594370073E-01  0.61854506785E-01  0.11717075659E+00  0.45661718115E-01 0.  0.
         14    1    1    2    0    0  0.25671371400E-01  0.72803691507E-02  0.26157827621E-01  0.37366496095E-01  0.00000000000E+00 0.  1.
     999901    1    1    2    0    0 -0.77988013262E-02 -0.93874739224E-01 -0.88012334406E-01  0.88939274731E+00  0.88000000000E+00 0. -1.
        -11    1    3    3    0    0  0.29610839901E-02  0.54741907909E-01  0.56508154859E-01  0.78732948545E-01  0.51100000000E-03 0. -1.
         11    1    3    3    0    0 -0.20833654064E-01  0.31852462164E-01  0.53463519261E-02  0.38437808047E-01  0.51100000000E-03 0.  1.
</event>
<event>
 8    1  0.2943605E+004  0.1043930E+01  0.7957747E-01            NaN
         13   -1    0    0    0    0  0.00000000000E+00  0.00000000000E+00  0.74505805969E-08  0.10566000000E+00  0.10566000000E+00 0. -1.
     999900   -1    0    0    0    0 -0.00000000000E+00 -0.00000000000E+00 -0.74505805969E-08  0.93827000000E+00  0.93827000000E+00 0.  1.
     999902    2    1    2    0    0 -0.81660906056E-02  0.13350544534E-03  0.10565260430E-01  0.10305760647E+01  0.10304895427E+01 0.  0.
     999903    2    3    3    0    0 -0.11064136106E+00  0.59144387519E-01  0.48499782346E-01  0.14185648397E+00  0.45071762841E-01 0.  0.
         14    1    1    2    0    0  0.81660906056E-02 -0.13350544534E-03 -0.10565260430E-01  0.13353935279E-01  0.00000000000E+00 0.  1.
     999901    1    3    3    0    0  0.10247527045E+00 -0.59010882074E-01 -0.37934521917E-01  0.88871958075E+00  0.88000000000E+00 0. -1.
        -11    1    4    4    0    0 -0.34367936867E-01  0.33501055291E-01  0.36926274918E-01  0.60558126543E-01  0.51100000000E-03 0. -1.
         11    1    4    4    0    0 -0.76273424189E-01  0.25643332228E-01  0.11573507429E-01  0.81298357427E-01  0.51100000000E-03 0.  1.
</event>
<event>
 8    1  0.2943605E+004  0.1043930E+01  0.7957747E-01            NaN
         13   -1    0    0    0    0  0.00000000000E+00  0.00000000000E+00  0.74505805969E-08  0.10566000000E+00  0.10566000000E+00 0. -1.
     999900   -1    0    0    0    0 -0.00000000000E+00 -0.00000000000E+00 -0.74505805969E-08  0.93827000000E+00  0.93827000000E+00 0.  1.
     999902    2    1    2    0    0  0.68897528707E-02  0.47025040675E-02  0.10862647113E-01  0.10302340392E+01  0.10301429980E+01 0.  0.
     999903    2    3    3    0    0 -0.88669713273E-01  0.28515409934E-01 -0.93322202746E-01  0.13863258735E+00  0.42831228024E-01 0.  0.
         14    1    1    2    0    0 -0.68897528707E-02 -0.47025040675E-02 -0.10862647113E-01  0.13695960770E-01  0.00000000000E+00 0.  1.
     999901    1    3    3    0    0  0.95559466144E-01 -0.23812905867E-01  0.10418484986E+00  0.89160145188E+00  0.88000000000E+00 0. -1.
        -11    1    4    4    0    0 -0.70973314714E-02  0.14982699584E-01 -0.30746495939E-01  0.34935104614E-01  0.51100000000E-03 0. -1.
         11    1    4    4    0    0 -0.81572381802E-01  0.13532710350E-01 -0.62575706807E-01  0.10369748274E+00  0.51100000000E-03 0.  1.
</event>
<event>
 7    1  0.2943605E+004  0.1043930E+01  0.7957747E-01            NaN
         13   -1    0    0    0    0  0.00000000000E+00  0.00000000000E+00  0.74505805969E-08  0.10566000000E+00  0.10566000000E+00 0. -1.
     999900   -1    0    0    0    0 -0.00000000000E+00 -0.00000000000E+00 -0.74505805969E-08  0.93827000000E+00  0.93827000000E+00 0. -1.
     999902    2    1    2    0    0 -0.11589819632E-01  0.18964787019E-02  0.60922768943E-02  0.10306998682E+01  0.10306149532E+01 0.  0.
         14    1    1    2    0    0  0.11589819632E-01 -0.18964787019E-02 -0.60922768943E-02  0.13230131833E-01  0.00000000000E+00 0.  1.
     999901    1    3    3    0    0 -0.46651505282E-01 -0.81106077341E-01  0.10984456619E+00  0.89175130359E+00  0.88000000000E+00 0.  1.
        -11    1    3    3    0    0  0.15300667815E-01  0.38743613170E-01 -0.32810663059E-01  0.53028093766E-01  0.51100000000E-03 0.  1.
         11    1    3    3    0    0  0.19761017835E-01  0.44258942873E-01 -0.70941626241E-01  0.85920470814E-01  0.51100000000E-03 0. -1.
</event>
<event>
 8    1  0.2943605E+004  0.1043930E+01  0.7957747E-01            NaN
         13   -1    0    0    0    0  0.00000000000E+00  0.00000000000E+00  0.74505805969E-08  0.10566000000E+00  0.10566000000E+00 0.  1.
     999900   -1    0    0    0    0 -0.00000000000E+00 -0.00000000000E+00 -0.74505805969E-08  0.93827000000E+00  0.93827000000E+00 0. -1.
     999902    2    1    2    0    0  0.13262990697E-01  0.45512416923E-02  0.17064832741E-02  0.10298043918E+01  0.10297075082E+01 0.  0.
     999903    2    3    3    0    0 -0.80285478885E-02 -0.61583322156E-01 -0.11906576782E+00  0.13884252569E+00  0.35265092154E-01 0.  0.
         14    1    1    2    0    0 -0.13262990697E-01 -0.45512416923E-02 -0.17064832741E-02  0.14125608246E-01  0.00000000000E+00 0. -1.
     999901    1    3    3    0    0  0.21291538585E-01  0.66134563849E-01  0.12077225109E+00  0.89096186607E+00  0.88000000000E+00 0.  1.
        -11    1    4    4    0    0 -0.38934359185E-03 -0.14247378298E-01 -0.65130978922E-01  0.66674169760E-01  0.51100000000E-03 0.  1.
         11    1    4    4    0    0 -0.76392042967E-02 -0.47335943859E-01 -0.53934788894E-01  0.72168355928E-01  0.51100000000E-03 0. -1.
</event>
<event>
 8    1  0.2943605E+004  0.1043930E+01  0.7957747E-01            NaN
         13   -1    0    0    0    0  0.00000000000E+00  0.00000000000E+00  0.74505805969E-08  0.10566000000E+00  0.10566000000E+00 0. -1.
     999900   -1    0    0    0    0 -0.00000000000E+00 -0.00000000000E+00 -0.74505805969E-08  0.93827000000E+00  0.93827000000E+00 0.  1.
     999902    2    1    2    0    0  0.23527489401E-02 -0.75270169241E-02 -0.12335632217E-01  0.10292889880E+01  0.10291848529E+01 0.  0.
     999903    2    3    3    0    0  0.97326174261E-01  0.88172809106E-01  0.21392446234E-02  0.13890259415E+00  0.45194311951E-01 0.  0.
         14    1    1    2    0    0 -0.23527489401E-02  0.75270169241E-02  0.12335632217E-01  0.14641012040E-01  0.00000000000E+00 0. -1.
     999901    1    3    3    0    0 -0.94973425321E-01 -0.95699826030E-01 -0.14474876841E-01  0.89038639381E+00  0.88000000000E+00 0.  1.
        -11    1    4    4    0    0  0.84476467467E-01  0.66356151007E-01  0.18143992235E-01  0.10894437988E+00  0.51100000000E-03 0. -1.
         11    1    4    4    0    0  0.12849706794E-01  0.21816658099E-01 -0.16004747611E-01  0.29958214272E-01  0.51100000000E-03 0.  1.
</event>
<event>
 8    1  0.2943605E+004  0.1043930E+01  0.7957747E-01            NaN
         13   -1    0    0    0    0  0.00000000000E+00  0.00000000000E+00  0.74505805969E-08  0.10566000000E+00  0.10566000000E+00 0.  1.
     999900   -1    0    0    0    0 -0.00000000000E+00 -0.00000000000E+00 -0.74505805969E-08  0.93827000000E+00  0.93827000000E+00 0.  1.
     999902    2    1    2    0    0  0.72261409664E-02 -0.53224095369E-02 -0.99246402470E-02  0.10305492810E+01  0.10304624093E+01 0.  0.
     999903    2    3    3    0    0  0.13138410733E+00  0.24741252049E-02 -0.28737721390E-01  0.14160050938E+00  0.44237344772E-01 0.  0.
         14    1    1    2    0    0 -0.72261409664E-02  0.53224095369E-02  0.99246402470E-02  0.13380718986E-01  0.00000000000E+00 0.  1.
     999901    1    3    3    0    0 -0.12415796636E+00 -0.77965347418E-02  0.18813081143E-01  0.88894877163E+00  0.88000000000E+00 0.  1.
        -11    1    4    4    0    0  0.96833857437E-01  0.12875062059E-01 -0.37209263129E-01  0.10453398277E+00  0.51100000000E-03 0.  1.
         11    1    4    4    0    0  0.34550249891E-01 -0.10400936854E-01  0.84715417385E-02  0.37066526616E-01  0.51100000000E-03 0. -1.
</event>
<event>
 8    1  0.2943605E+004  0.1043930E+01  0.7957747E-01            NaN
         13   -1    0    0    0    0  0.00000000000E+00  0.00000000000E+00  0.74505805969E-08  0.10566000000E+00  0.10566000000E+00 0.  1.
     999900   -1    0    0    0    0 -0.00000000000E+00 -0.00000000000E+00 -0.74505805969E-08  0.93827000000E+00  0.93827000000E+00 0.  1.
     999902    2    1    2    0    0  0.73917699035E-02  0.10718416542E-01 -0.36968676611E-02  0.10303952467E+01  0.10303063500E+01 0.  0.
     999903    2    3    3    0    0  0.60018005549E-01 -0.78922539175E-01  0.87500512548E-01  0.13959673766E+00  0.44721150342E-01 0.  0.
         14    1    1    2    0    0 -0.73917699035E-02 -0.10718416542E-01  0.36968676611E-02  0.13534753266E-01  0.00000000000E+00 0.  1.
     999901    1    3    3    0    0 -0.52626235645E-01  0.89640955717E-01 -0.91197380209E-01  0.89079850908E+00  0.88000000000E+00 0. -1.
        -11    1    4    4    0    0  0.60144735410E-01 -0.48366607633E-01  0.70975033606E-01  0.10485434873E+00  0.51100000000E-03 0.  1.
         11    1    4    4    0    0 -0.12672986135E-03 -0.30555931542E-01  0.16525478941E-01  0.34742388924E-01  0.51100000000E-03 0. -1.
</event>
<event>
 7    1  0.2943605E+004  0.1043930E+01  0.7957747E-01            NaN
         13   -1    0    0    0    0  0.00000000000E+00  0.00000000000E+00  0.74505805969E-08  0.10566000000E+00  0.10566000000E+00 0. -1.
     999900   -1    0    0    0    0 -0.00000000000E+00 -0.00000000000E+00 -0.74505805969E-08  0.93827000000E+00  0.93827000000E+00 0.  1.
     999903    2    1    2    0    0 -0.90546615490E-01 -0.23752427791E-01 -0.35150290105E-01  0.10967352178E+00  0.45054090624E-01 0.  0.
         14    1    1    2    0    0 -0.35065437266E-01  0.11043908296E-01 -0.22967636113E-01  0.43348184619E-01  0.00000000000E+00 0.  1.
     999901    1    1    2    0    0  0.12561205276E+00  0.12708519495E-01  0.58117926217E-01  0.89090829360E+00  0.88000000000E+00 0. -1.
        -11    1    3    3    0    0 -0.20453064639E-01 -0.11833271589E-02 -0.29362720541E-01  0.35807242213E-01  0.51100000000E-03 0.  1.
         11    1    3    3    0    0 -0.70093550851E-01 -0.22569100632E-01 -0.57875695634E-02  0.73866279564E-01  0.51100000000E-03 0. -1.
</event>
<event>
 8    1  0.2943605E+004  0.1043930E+01  0.7957747E-01            NaN
         13   -1    0    0    0    0  0.00000000000E+00  0.00000000000E+00  0.74505805969E-08  0.10566000000E+00  0.10566000000E+00 0.  1.
     999900   -1    0    0    0    0 -0.00000000000E+00 -0.00000000000E+00 -0.74505805969E-08  0.93827000000E+00  0.93827000000E+00 0. -1.
     999902    2    1    2    0    0 -0.26971431297E-03 -0.20753246243E-02 -0.13147741609E-01  0.10306167424E+01  0.10305307501E+01 0.  0.
     999903    2    3    3    0    0  0.11793045262E+00  0.41203987180E-01  0.43982482818E-01  0.13982594720E+00  0.44849487193E-01 0.  0.
         14    1    1    2    0    0  0.26971431297E-03  0.20753246243E-02  0.13147741609E-01  0.13313257585E-01  0.00000000000E+00 0.  1.
     999901    1    3    3    0    0 -0.11820016693E+00 -0.43279311804E-01 -0.57130224427E-01  0.89079079521E+00  0.88000000000E+00 0. -1.
        -11    1    4    4    0    0  0.10106117379E+00  0.16917778625E-01  0.28077408435E-01  0.10624581905E+00  0.51100000000E-03 0. -1.
         11    1    4    4    0    0  0.16869278832E-01  0.24286208555E-01  0.15905074383E-01  0.33580128148E-01  0.51100000000E-03 0.  1.
</event>
<event>
 8    1  0.2943605E+004  0.1043930E+01  0.7957747E-01            NaN
         13   -1    0    0    0    0  0.00000000000E+00  0.00000000000E+00  0.74505805969E-08  0.10566000000E+00  0.10566000000E+00 0. -1.
     999900   -1    0    0    0    0 -0.00000000000E+00 -0.00000000000E+00 -0.74505805969E-08  0.93827000000E+00  0.93827000000E+00 0.  1.
     999902    2    1    2    0    0 -0.24435388243E-02 -0.13284050779E-01  0.13869224194E-02  0.10303520605E+01  0.10302625918E+01 0.  0.
     999903    2    3    3    0    0  0.33931051929E-01 -0.12870541363E+00  0.20037608417E-01  0.14187412046E+00  0.44837044099E-01 0.  0.
         14    1    1    2    0    0  0.24435388243E-02  0.13284050779E-01 -0.13869224194E-02  0.13577939493E-01  0.00000000000E+00 0.  1.
     999901    1    3    3    0    0 -0.36374590753E-01  0.11542136285E+00 -0.18650685998E-01  0.88847794004E+00  0.88000000000E+00 0.  1.
        -11    1    4    4    0    0 -0.26821842330E-02 -0.73108077641E-01  0.17655700022E-01  0.75259351531E-01  0.51100000000E-03 0. -1.
         11    1    4    4    0    0  0.36613236162E-01 -0.55597335990E-01  0.23819083950E-02  0.66614768933E-01  0.51100000000E-03 0.  1.
</event>
<event>
 7    1  0.2943605E+004  0.1043930E+01  0.7957747E-01            NaN
         13   -1    0    0    0    0  0.00000000000E+00  0.00000000000E+00  0.74505805969E-08  0.10566000000E+00  0.10566000000E+00 0.  1.
     999900   -1    0    0    0    0 -0.00000000000E+00 -0.00000000000E+00 -0.74505805969E-08  0.93827000000E+00  0.93827000000E+00 0.  1.
     999903    2    1    2    0    0 -0.33862229298E-01  0.91002004755E-01  0.94702449512E-02  0.11089620623E+00  0.52728242668E-01 0.  0.
         14    1    1    2    0    0  0.41906338301E-02  0.34381965908E-01 -0.26303211111E-01  0.43491837238E-01  0.00000000000E+00 0. -1.
     999901    1    1    2    0    0  0.29671595468E-01 -0.12538397066E+00  0.16832966159E-01  0.88954195653E+00  0.88000000000E+00 0.  1.
        -11    1    3    3    0    0  0.21580220205E-03  0.50358118484E-01  0.24160997334E-01  0.55856974328E-01  0.51100000000E-03 0.  1.
         11    1    3    3    0    0 -0.34078031500E-01  0.40643886270E-01 -0.14690752383E-01  0.55039231905E-01  0.51100000000E-03 0. -1.
</event>
<event>
 8    1  0.2943605E+004  0.1043930E+01  0.7957747E-01            NaN
         13   -1    0    0    0    0  0.00000000000E+00  0.00000000000E+00  0.74505805969E-08  0.10566000000E+00  0.10566000000E+00 0.  1.
     999900   -1    0    0    0    0 -0.00000000000E+00 -0.00000000000E+00 -0.74505805969E-08  0.93827000000E+00  0.93827000000E+00 0. -1.
     999902    2    1    2    0    0  0.68907124845E-02  0.10723716370E-01 -0.44708152280E-02  0.10304219209E+01  0.10303333766E+01 0.  0.
     999903    2    3    3    0    0 -0.11831539304E+00  0.45448160033E-01 -0.38666383977E-01  0.14022436265E+00  0.45866274641E-01 0.  0.
         14    1    1    2    0    0 -0.68907124845E-02 -0.10723716370E-01  0.44708152280E-02  0.13508079069E-01  0.00000000000E+00 0.  1.
     999901    1    3    3    0    0  0.12520610553E+00 -0.34724443664E-01  0.34195568749E-01  0.89019755828E+00  0.88000000000E+00 0. -1.
        -11    1    4    4    0    0 -0.51036690906E-01  0.75372114302E-02  0.44370966323E-02  0.51783224333E-01  0.51100000000E-03 0.  1.
         11    1    4    4    0    0 -0.67278702136E-01  0.37910948603E-01 -0.43103480609E-01  0.88441138317E-01  0.51100000000E-03 0. -1.
</event>
<event>
 8    1  0.2943605E+004  0.1043930E+01  0.7957747E-01            NaN
         13   -1    0    0    0    0  0.00000000000E+00  0.00000000000E+00  0.74505805969E-08  0.10566000000E+00  0.10566000000E+00 0. -1.
     999900   -1    0    0    0    0 -0.00000000000E+00 -0.00000000000E+00 -0.74505805969E-08  0.93827000000E+00  0.93827000000E+00 0.  1.
     999902    2    1    2    0    0  0.72921524183E-02 -0.10612073049E-01 -0.46694217772E-02  0.10302334646E+01  0.10301424157E+01 0.  0.
     999903    2    3    3    0    0 -0.11307364452E+00  0.19827414623E-01  0.63247897395E-01  0.13892697990E+00  0.46061195865E-01 0.  0.
         14    1    1    2    0    0 -0.72921524183E-02  0.10612073049E-01  0.46694217772E-02  0.13696535365E-01  0.00000000000E+00 0.  1.
     999901    1    3    3    0    0  0.12036579694E+00 -0.30439487672E-01 -0.67917319173E-01  0.89130648473E+00  0.88000000000E+00 0. -1.
        -11    1    4    4    0    0 -0.39805566486E-01 -0.12839306238E-01  0.11206684438E-01  0.43303369442E-01  0.51100000000E-03 0. -1.
         11    1    4    4    0    0 -0.73268078032E-01  0.32666720861E-01  0.52041212958E-01  0.95623610460E-01  0.51100000000E-03 0.  1.
</event>
<event>
 8    1  0.2943605E+004  0.1043930E+01  0.7957747E-01            NaN
         13   -1    0    0    0    0  0.00000000000E+00  0.00000000000E+00  0.74505805969E-08  0.10566000000E+00  0.10566000000E+00 0.  1.
     999900   -1    0    0    0    0 -0.00000000000E+00 -0.00000000000E+00 -0.74505805969E-08  0.93827000000E+00  0.93827000000E+00 0. -1.
     999902    2    1    2    0    0  0.49835387961E-02 -0.13889809834E-01 -0.14353060559E-02  0.10291035851E+01  0.10289967766E+01 0.  0.
     999903    2    3    3    0    0 -0.57464192953E-01  0.72432887442E-01  0.91197469204E-01  0.13785044577E+00  0.46228890906E-01 0.  0.
         14    1    1    2    0    0 -0.49835387961E-02  0.13889809834E-01  0.14353060559E-02  0.14826414929E-01  0.00000000000E+00 0. -1.
     999901    1    3    3    0    0  0.62447731749E-01 -0.86322697276E-01 -0.92632775260E-01  0.89125313930E+00  0.88000000000E+00 0. -1.
        -11    1    4    4    0    0 -0.14159449585E-01  0.16535394941E-01  0.53404122775E-01  0.57672963759E-01  0.51100000000E-03 0. -1.
         11    1    4    4    0    0 -0.43304743367E-01  0.55897492501E-01  0.37793346429E-01  0.80177482009E-01  0.51100000000E-03 0.  1.
</event>
<event>
 8    1  0.2943605E+004  0.1043930E+01  0.7957747E-01            NaN
         13   -1    0    0    0    0  0.00000000000E+00  0.00000000000E+00  0.74505805969E-08  0.10566000000E+00  0.10566000000E+00 0.  1.
     999900   -1    0    0    0    0 -0.00000000000E+00 -0.00000000000E+00 -0.74505805969E-08  0.93827000000E+00  0.93827000000E+00 0.  1.
     999902    2    1    2    0    0  0.82707174922E-02  0.60190296113E-02  0.80236486014E-02  0.10309295222E+01  0.10308475481E+01 0.  0.
     999903    2    3    3    0    0  0.37393148242E-01 -0.10690154859E+00  0.70955464978E-01  0.14100840974E+00  0.44972269010E-01 0.  0.
         14    1    1    2    0    0 -0.82707174922E-02 -0.60190296113E-02 -0.80236486014E-02  0.13000477767E-01  0.00000000000E+00 0. -1.
     999901    1    3    3    0    0 -0.29122430750E-01  0.11292057820E+00 -0.62931816377E-01  0.88992111250E+00  0.88000000000E+00 0.  1.
        -11    1    4    4    0    0  0.34159924995E-01 -0.94893427771E-01  0.77268579561E-01  0.12705257816E+00  0.51100000000E-03 0.  1.
         11    1    4    4    0    0  0.32332232468E-02 -0.12008120819E-01 -0.63131145825E-02  0.13955831573E-01  0.51100000000E-03 0. -1.
</event>
<event>
 8    1  0.2943605E+004  0.1043930E+01  0.7957747E-01            NaN
         13   -1    0    0    0    0  0.00000000000E+00  0.00000000000E+00  0.74505805969E-08  0.10566000000E+00  0.10566000000E+00 0.  1.
     999900   -1    0    0    0    0 -0.00000000000E+00 -0.00000000000E+00 -0.74505805969E-08  0.93827000000E+00  0.93827000000E+00 0.  1.
     999902    2    1    2    0    0  0.12479608943E-01 -0.13629072649E-03  0.65195026723E-02  0.10298494059E+01  0.10297531431E+01 0.  0.
     999903    2    3    3    0    0 -0.11723730447E+00 -0.52135712961E-01  0.26171799662E-01  0.13860497799E+00  0.45427510388E-01 0.  0.
         14    1    1    2    0    0 -0.12479608943E-01  0.13629072649E-03 -0.65195026723E-02  0.14080594080E-01  0.00000000000E+00 0.  1.
     999901    1    3    3    0    0  0.12971691342E+00  0.51999422234E-01 -0.19652296990E-01  0.89124442793E+00  0.88000000000E+00 0.  1.
        -11    1    4    4    0    0 -0.55083525598E-01 -0.18328457461E-01  0.34226016002E-01  0.67392940562E-01  0.51100000000E-03 0. -1.
         11    1    4    4    0    0 -0.62153778875E-01 -0.33807255500E-01 -0.80542163394E-02  0.71212037429E-01  0.51100000000E-03 0.  1.
</event>
<event>
 8    1  0.2943605E+004  0.1043930E+01  0.7957747E-01            NaN
         13   -1    0    0    0    0  0.00000000000E+00  0.00000000000E+00  0.74505805969E-08  0.10566000000E+00  0.10566000000E+00 0.  1.
     999900   -1    0    0    0    0 -0.00000000000E+00 -0.00000000000E+00 -0.74505805969E-08  0.93827000000E+00  0.93827000000E+00 0.  1.
     999902    2    1    2    0    0  0.36749040171E-03 -0.83622383085E-02 -0.11757275452E-01  0.10294975503E+01  0.10293963816E+01 0.  0.
     999903    2    3    3    0    0  0.85348640286E-01 -0.24686537375E-01 -0.99628406288E-01  0.14089774485E+00  0.45083695938E-01 0.  0.
         14    1    1    2    0    0 -0.36749040171E-03  0.83622383085E-02  0.11757275452E-01  0.14432449715E-01  0.00000000000E+00 0.  1.
     999901    1    3    3    0    0 -0.84981149885E-01  0.16324299067E-01  0.87871130835E-01  0.88859980543E+00  0.88000000000E+00 0. -1.
        -11    1    4    4    0    0  0.23178431309E-01  0.13299551558E-01 -0.28633995600E-01  0.39169944787E-01  0.51100000000E-03 0.  1.
         11    1    4    4    0    0  0.62170208977E-01 -0.37986088934E-01 -0.70994410687E-01  0.10172780007E+00  0.51100000000E-03 0. -1.
</event>
<event>
 8    1  0.2943605E+004  0.1043930E+01  0.7957747E-01            NaN
         13   -1    0    0    0    0  0.00000000000E+00  0.00000000000E+00  0.74505805969E-08  0.10566000000E+00  0.10566000000E+00 0.  1.
     999900   -1    0    0    0    0 -0.00000000000E+00 -0.00000000000E+00 -0.74505805969E-08  0.93827000000E+00  0.93827000000E+00 0. -1.
     999902    2    1    2    0    0  0.42663390281E-02 -0.13098037702E-01  0.27133942173E-02  0.10298899591E+01  0.10297942538E+01 0.  0.
     999903    2    3    3    0    0  0.13285406122E+00 -0.33990474017E-02 -0.46753329991E-03  0.14048623131E+00  0.45545663837E-01 0.  0.
         14    1    1    2    0    0 -0.42663390281E-02  0.13098037702E-01 -0.27133942173E-02  0.14040040902E-01  0.00000000000E+00 0. -1.
     999901    1    3    3    0    0 -0.12858772219E+00 -0.96989903004E-02  0.31809275172E-02  0.88940372779E+00  0.88000000000E+00 0.  1.
        -11    1    4    4    0    0  0.57877518501E-01 -0.16677096859E-01  0.16541925454E-01  0.62464622997E-01  0.51100000000E-03 0.  1.
         11    1    4    4    0    0  0.74976542716E-01  0.13278049458E-01 -0.17009458754E-01  0.78021608309E-01  0.51100000000E-03 0. -1.
</event>
<event>
 8    1  0.2943605E+004  0.1043930E+01  0.7957747E-01            NaN
         13   -1    0    0    0    0  0.00000000000E+00  0.00000000000E+00  0.74505805969E-08  0.10566000000E+00  0.10566000000E+00 0.  1.
     999900   -1    0    0    0    0 -0.00000000000E+00 -0.00000000000E+00 -0.74505805969E-08  0.93827000000E+00  0.93827000000E+00 0. -1.
     999902    2    1    2    0    0 -0.31234115212E-02 -0.41163000419E-02 -0.13235587887E-01  0.10297215373E+01  0.10296235059E+01 0.  0.
     999903    2    3    3    0    0  0.51003968646E-01  0.11619985890E+00 -0.36298780596E-01  0.13958802920E+00  0.45424711294E-01 0.  0.
         14    1    1    2    0    0  0.31234115212E-02  0.41163000419E-02  0.13235587887E-01  0.14208462699E-01  0.00000000000E+00 0.  1.
     999901    1    3    3    0    0 -0.54127380168E-01 -0.12031615895E+00  0.23063192709E-01  0.89013350810E+00  0.88000000000E+00 0. -1.
        -11    1    4    4    0    0  0.51170165266E-01  0.61184328686E-01 -0.20923377389E-01  0.82461850164E-01  0.51100000000E-03 0. -1.
         11    1    4    4    0    0 -0.16619661932E-03  0.55015530217E-01 -0.15375403207E-01  0.57126179036E-01  0.51100000000E-03 0.  1.
</event>
<event>
 8    1  0.2943605E+004  0.1043930E+01  0.7957747E-01            NaN
         13   -1    0    0    0    0  0.00000000000E+00  0.00000000000E+00  0.74505805969E-08  0.10566000000E+00  0.10566000000E+00 0. -1.
     999900   -1    0    0    0    0 -0.00000000000E+00 -0.00000000000E+00 -0.74505805969E-08  0.93827000000E+00  0.93827000000E+00 0. -1.
     999902    2    1    2    0    0 -0.63384328746E-02  0.11942642310E-01 -0.12020658862E-02  0.10303562238E+01  0.10302668104E+01 0.  0.
     999903    2    3    3    0    0  0.13054628627E+00 -0.15231215500E-01 -0.66381232242E-02  0.13934253394E+00  0.45803431098E-01 0.  0.
         14    1    1    2    0    0  0.63384328746E-02 -0.11942642310E-01  0.12020658862E-02  0.13573776153E-01  0.00000000000E+00 0. -1.
     999901    1    3    3    0    0 -0.13688471914E+00  0.27173857811E-01  0.54360573380E-02  0.89101368991E+00  0.88000000000E+00 0.  1.
        -11    1    4    4    0    0  0.14900226138E-01 -0.69734417796E-02 -0.16088706658E-01  0.23016368787E-01  0.51100000000E-03 0.  1.
         11    1    4    4    0    0  0.11564606013E+00 -0.82577737209E-02  0.94505834338E-02  0.11632616515E+00  0.51100000000E-03 0. -1.
</event>
<event>
 8    1  0.2943605E+004  0.1043930E+01  0.7957747E-01            NaN
         13   -1    0    0    0    0  0.00000000000E+00  0.00000000000E+00  0.74505805969E-08  0.10566000000E+00  0.10566000000E+00 0.  1.
     999900   -1    0    0    0    0 -0.00000000000E+00 -0.00000000000E+00 -0.74505805969E-08  0.93827000000E+00  0.93827000000E+00 0. -1.
     999902    2    1    2    0    0  0.63698867271E-03  0.87221349690E-02 -0.10795365726E-01  0.10300367889E+01  0.10299430883E+01 0.  0.
     999903    2    3    3    0    0  0.90104063203E-01  0.63821773495E-01 -0.69426013434E-01  0.14184881307E+00  0.55759783451E-01 0.  0.
         14    1    1    2    0    0 -0.63698867271E-03 -0.87221349690E-02  0.10795365726E-01  0.13893211081E-01  0.00000000000E+00 0.  1.
     999901    1    3    3    0    0 -0.89467074530E-01 -0.55099638526E-01  0.58630647708E-01  0.88818797585E+00  0.88000000000E+00 0. -1.
        -11    1    4    4    0    0  0.33780320467E-01  0.27446568044E-01  0.23950301838E-02  0.43593823403E-01  0.51100000000E-03 0.  1.
         11    1    4    4    0    0  0.56323742736E-01  0.36375205450E-01 -0.71821043618E-01  0.98254989668E-01  0.51100000000E-03 0. -1.
</event>
<event>
 8    1  0.2943605E+004  0.1043930E+01  0.7957747E-01            NaN
         13   -1    0    0    0    0  0.00000000000E+00  0.00000000000E+00  0.74505805969E-08  0.10566000000E+00  0.10566000000E+00 0. -1.
     999900   -1    0    0    0    0 -0.00000000000E+00 -0.00000000000E+00 -0.74505805969E-08  0.93827000000E+00  0.93827000000E+00 0.  1.
     999902    2    1    2    0    0  0.37794026115E-02  0.13057878034E-01 -0.27563803067E-02  0.10300595388E+01  0.10299661469E+01 0.  0.
     999903    2    3    3    0    0  0.78132289707E-01 -0.54730040585E-02  0.10708919929E+00  0.13992595509E+00  0.44458608095E-01 0.  0.
         14    1    1    2    0    0 -0.37794026115E-02 -0.13057878034E-01  0.27563803067E-02  0.13870461249E-01  0.00000000000E+00 0. -1.
     999901    1    3    3    0    0 -0.74352887096E-01  0.18530882093E-01 -0.10984557960E+00  0.89013358366E+00  0.88000000000E+00 0.  1.
        -11    1    4    4    0    0  0.45545603453E-01 -0.20881934633E-01  0.41410851397E-01  0.65004437713E-01  0.51100000000E-03 0. -1.
         11    1    4    4    0    0  0.32586686255E-01  0.15408930575E-01  0.65678347894E-01  0.74921517374E-01  0.51100000000E-03 0.  1.
</event>
<event>
 8    1  0.2943605E+004  0.1043930E+01  0.7957747E-01            NaN
         13   -1    0    0    0    0  0.00000000000E+00  0.00000000000E+00  0.74505805969E-08  0.10566000000E+00  0.10566000000E+00 0. -1.
     999900   -1    0    0    0    0 -0.00000000000E+00 -0.00000000000E+00 -0.74505805969E-08  0.93827000000E+00  0.93827000000E+00 0. -1.
     999902    2    1    2    0    0  0.13442598400E-01 -0.25828187051E-02 -0.22363898929E-02  0.10300600381E+01  0.10299666529E+01 0.  0.
     999903    2    3    3    0    0  0.11127439772E+00 -0.67694859917E-01 -0.32416852206E-01  0.14173492913E+00  0.45534077131E-01 0.  0.
         14    1    1    2    0    0 -0.13442598400E-01  0.25828187051E-02  0.22363898929E-02  0.13869961931E-01  0.00000000000E+00 0. -1.
     999901    1    3    3    0    0 -0.97831799322E-01  0.65112041212E-01  0.30180462313E-01  0.88832510894E+00  0.88000000000E+00 0. -1.
        -11    1    4    4    0    0  0.10173600036E+00 -0.41140748826E-01 -0.26690579583E-01  0.11293990943E+00  0.51100000000E-03 0. -1.
         11    1    4    4    0    0  0.95383973625E-02 -0.26554111091E-01 -0.57262726231E-02  0.28795019695E-01  0.51100000000E-03 0.  1.
</event>
<event>
 8    1  0.2943605E+004  0.1043930E+01  0.7957747E-01            NaN
         13   -1    0    0    0    0  0.00000000000E+00  0.00000000000E+00  0.74505805969E-08  0.10566000000E+00  0.10566000000E+00 0.  1.
     999900   -1    0    0    0    0 -0.00000000000E+00 -0.00000000000E+00 -0.74505805969E-08  0.93827000000E+00  0.93827000000E+00 0. -1.
     999902    2    1    2    0    0 -0.59522118415E-02  0.14627556553E-02  0.12997286923E-01  0.10295599636E+01  0.10294596741E+01 0.  0.
     999903    2    3    3    0    0 -0.12840131303E+00  0.27822862573E-01  0.22439577672E-01  0.14064051025E+00  0.44891086050E-01 0.  0.
         14    1    1    2    0    0  0.59522118415E-02 -0.14627556553E-02 -0.12997286923E-01  0.14370036440E-01  0.00000000000E+00 0. -1.
     999901    1    3    3    0    0  0.12244910119E+00 -0.26360106918E-01 -0.94422907487E-02  0.88891945331E+00  0.88000000000E+00 0.  1.
        -11    1    4    4    0    0 -0.70115926906E-01 -0.60992110206E-02  0.19946625227E-01  0.73154443201E-01  0.51100000000E-03 0. -1.
         11    1    4    4    0    0 -0.58285386127E-01  0.33922073594E-01  0.24929524443E-02  0.67486067049E-01  0.51100000000E-03 0.  1.
</event>
<event>
 8    1  0.2943605E+004  0.1043930E+01  0.7957747E-01            NaN
         13   -1    0    0    0    0  0.00000000000E+00  0.00000000000E+00  0.74505805969E-08  0.10566000000E+00  0.10566000000E+00 0. -1.
     999900   -1    0    0    0    0 -0.00000000000E+00 -0.00000000000E+00 -0.74505805969E-08  0.93827000000E+00  0.93827000000E+00 0. -1.
     999902    2    1    2    0    0 -0.46516661953E-02 -0.12167493469E-01  0.33502027777E-02  0.10304797303E+01  0.10303919472E+01 0.  0.
     999903    2    3    3    0    0 -0.11523524060E+00 -0.68983354796E-01  0.11815713164E-02  0.14173822010E+00  0.45282038521E-01 0.  0.
         14    1    1    2    0    0  0.46516661953E-02  0.12167493469E-01 -0.33502027777E-02  0.13450269676E-01  0.00000000000E+00 0.  1.
     999901    1    3    3    0    0  0.11058357440E+00  0.56815861327E-01  0.21686314612E-02  0.88874151022E+00  0.88000000000E+00 0. -1.
        -11    1    4    4    0    0 -0.32715320203E-01 -0.31655019609E-01  0.19170735040E-01  0.49397476103E-01  0.51100000000E-03 0.  1.
         11    1    4    4    0    0 -0.82519920396E-01 -0.37328335187E-01 -0.17989163724E-01  0.92340744000E-01  0.51100000000E-03 0. -1.
</event>
<event>
 8    1  0.2943605E+004  0.1043930E+01  0.7957747E-01            NaN
         13   -1    0    0    0    0  0.00000000000E+00  0.00000000000E+00  0.74505805969E-08  0.10566000000E+00  0.10566000000E+00 0.  1.
     999900   -1    0    0    0    0 -0.00000000000E+00 -0.00000000000E+00 -0.74505805969E-08  0.93827000000E+00  0.93827000000E+00 0.  1.
     999902    2    1    2    0    0 -0.93542499015E-03  0.13019762805E-01 -0.15351272547E-02  0.10307867181E+01  0.10307029215E+01 0.  0.
     999903    2    3    3    0    0  0.79602122880E-02  0.12899524789E+00  0.38673618498E-01  0.14222260182E+00  0.45038658324E-01 0.  0.
         14    1    1    2    0    0  0.93542499015E-03 -0.13019762805E-01  0.15351272547E-02  0.13143281900E-01  0.00000000000E+00 0. -1.
     999901    1    3    3    0    0 -0.88956372781E-02 -0.11597548508E+00 -0.40208745753E-01  0.88856411628E+00  0.88000000000E+00 0. -1.
        -11    1    4    4    0    0 -0.13298829503E-01  0.98831358426E-01  0.24504750021E-01  0.10269001981E+00  0.51100000000E-03 0. -1.
         11    1    4    4    0    0  0.21259041791E-01  0.30163889462E-01  0.14168868477E-01  0.39532582008E-01  0.51100000000E-03 0.  1.
</event>
<event>
 8    1  0.2943605E+004  0.1043930E+01  0.7957747E-01            NaN
         13   -1    0    0    0    0  0.00000000000E+00  0.00000000000E+00  0.74505805969E-08  0.10566000000E+00  0.10566000000E+00 0. -1.
     999900   -1    0    0    0    0 -0.00000000000E+00 -0.00000000000E+00 -0.74505805969E-08  0.93827000000E+00  0.93827000000E+00 0. -1.
     999902    2    1    2    0    0  0.75910593826E-02  0.92366261810E-02  0.50448017493E-02  0.10309535032E+01  0.10308718331E+01 0.  0.
     999903    2    3    3    0    0 -0.11156847094E-01  0.13055895083E+00  0.13120712252E-01  0.14239522662E+00  0.54167634221E-01 0.  0.
         14    1    1    2    0    0 -0.75910593826E-02 -0.92366261810E-02 -0.50448017493E-02  0.12976496848E-01  0.00000000000E+00 0. -1.
     999901    1    3    3    0    0  0.18747906476E-01 -0.12132232465E+00 -0.80759105031E-02  0.88855827653E+00  0.88000000000E+00 0.  1.
        -11    1    4    4    0    0 -0.23045801077E-01  0.11773917538E+00 -0.90006100926E-03  0.11997788795E+00  0.51100000000E-03 0.  1.
         11    1    4    4    0    0  0.11888953983E-01  0.12819775450E-01  0.14020773262E-01  0.22417338675E-01  0.51100000000E-03 0. -1.
</event>
<event>
 8    1  0.2943605E+004  0.1043930E+01  0.7957747E-01            NaN
         13   -1    0    0    0    0  0.00000000000E+00  0.00000000000E+00  0.74505805969E-08  0.10566000000E+00  0.10566000000E+00 0.  1.
     999900   -1    0    0    0    0 -0.00000000000E+00 -0.00000000000E+00 -0.74505805969E-08  0.93827000000E+00  0.93827000000E+00 0. -1.
     999902    2    1    2    0    0  0.33548413270E-02  0.10014315052E-01  0.79974394072E-02  0.10306823397E+01  0.10305971982E+01 0.  0.
     999903    2    3    3    0    0 -0.80067892594E-01 -0.52123027886E-01  0.94646760369E-01  0.14032931604E+00  0.40082792209E-01 0.  0.
         14    1    1    2    0    0 -0.33548413270E-02 -0.10014315052E-01 -0.79974394072E-02  0.13247660298E-01  0.00000000000E+00 0. -1.
     999901    1    3    3    0    0  0.83422733921E-01  0.62137342939E-01 -0.86649320962E-01  0.89035302366E+00  0.88000000000E+00 0. -1.
        -11    1    4    4    0    0 -0.33984359900E-01 -0.21141649095E-01  0.67598522218E-01  0.78560342230E-01  0.51100000000E-03 0.  1.
         11    1    4    4    0    0 -0.46083532694E-01 -0.30981378791E-01  0.27048238151E-01  0.61768973809E-01  0.51100000000E-03 0. -1.
</event>
<event>
 8    1  0.2943605E+004  0.1043930E+01  0.7957747E-01            NaN
         13   -1    0    0    0    0  0.00000000000E+00  0.00000000000E+00  0.74505805969E-08  0.10566000000E+00  0.10566000000E+00 0. -1.
     999900   -1    0    0    0    0 -0.00000000000E+00 -0.00000000000E+00 -0.74505805969E-08  0.93827000000E+00  0.93827000000E+00 0. -1.
     999902    2    1    2    0    0 -0.99818055413E-02 -0.12913884776E-02  0.57196335814E-02  0.10323533712E+01  0.10322884600E+01 0.  0.
     999903    2    3    3    0    0 -0.80908186033E-01  0.24229479326E-01 -0.10530911660E+00  0.14217965247E+00  0.44630049336E-01 0.  0.
         14    1    1    2    0    0  0.99818055413E-02  0.12913884776E-02 -0.57196335814E-02  0.11576628800E-01  0.00000000000E+00 0.  1.
     999901    1    3    3    0    0  0.70926380491E-01 -0.25520867803E-01  0.11102875018E+00  0.89017371873E+00  0.88000000000E+00 0.  1.
        -11    1    4    4    0    0 -0.33212623518E-01 -0.11208951482E-01 -0.29226712927E-01  0.45641875770E-01  0.51100000000E-03 0.  1.
         11    1    4    4    0    0 -0.47695562514E-01  0.35438430808E-01 -0.76082403671E-01  0.96537776704E-01  0.51100000000E-03 0. -1.
</event>
<event>
 8    1  0.2943605E+004  0.1043930E+01  0.7957747E-01            NaN
         13   -1    0    0    0    0  0.00000000000E+00  0.00000000000E+00  0.74505805969E-08  0.10566000000E+00  0.10566000000E+00 0.  1.
     999900   -1    0    0    0    0 -0.00000000000E+00 -0.00000000000E+00 -0.74505805969E-08  0.93827000000E+00  0.93827000000E+00 0.  1.
     999902    2    1    2    0    0 -0.50969444361E-02 -0.13311737820E-02  0.12605582710E-01  0.10302679510E+01  0.10301773631E+01 0.  0.
     999903    2    3    3    0    0 -0.12055534537E+00  0.41096911870E-01 -0.37356365838E-01  0.14030897384E+00  0.45481453471E-01 0.  0.
         14    1    1    2    0    0  0.50969444361E-02  0.13311737820E-02 -0.12605582710E-01  0.13662048957E-01  0.00000000000E+00 0. -1.
     999901    1    3    3    0    0  0.11545840093E+00 -0.42428085652E-01  0.49961948549E-01  0.88995897720E+00  0.88000000000E+00 0. -1.
        -11    1    4    4    0    0 -0.33883900318E-01  0.18155086394E-01 -0.32800052495E-01  0.50535437343E-01  0.51100000000E-03 0. -1.
         11    1    4    4    0    0 -0.86671445051E-01  0.22941825477E-01 -0.45563133428E-02  0.89773536500E-01  0.51100000000E-03 0.  1.
</event>
<event>
 8    1  0.2943605E+004  0.1043930E+01  0.7957747E-01            NaN
         13   -1    0    0    0    0  0.00000000000E+00  0.00000000000E+00  0.74505805969E-08  0.10566000000E+00  0.10566000000E+00 0. -1.
     999900   -1    0    0    0    0 -0.00000000000E+00 -0.00000000000E+00 -0.74505805969E-08  0.93827000000E+00  0.93827000000E+00 0. -1.
     999902    2    1    2    0    0  0.48577926048E-02  0.86869430317E-02 -0.92334822204E-02  0.10303536116E+01  0.10302641635E+01 0.  0.
     999903    2    3    3    0    0  0.29434777898E-01  0.73434794679E-01 -0.10916572427E+00  0.14199401914E+00  0.44565355352E-01 0.  0.
         14    1    1    2    0    0 -0.48577926048E-02 -0.86869430317E-02  0.92334822204E-02  0.13576388406E-01  0.00000000000E+00 0. -1.
     999901    1    3    3    0    0 -0.24576985294E-01 -0.64747851647E-01  0.99932242049E-01  0.88835959245E+00  0.88000000000E+00 0.  1.
        -11    1    4    4    0    0  0.23433134548E-01  0.26338712279E-01 -0.76874365160E-01  0.84574042702E-01  0.51100000000E-03 0. -1.
         11    1    4    4    0    0  0.60016433506E-02  0.47096082400E-01 -0.32291359109E-01  0.57419976441E-01  0.51100000000E-03 0.  1.
</event>
<event>
 8    1  0.2943605E+004  0.1043930E+01  0.7957747E-01            NaN
         13   -1    0    0    0    0  0.00000000000E+00  0.00000000000E+00  0.74505805969E-08  0.10566000000E+00  0.10566000000E+00 0.  1.
     999900   -1    0    0    0    0 -0.00000000000E+00 -0.00000000000E+00 -0.74505805969E-08  0.93827000000E+00  0.93827000000E+00 0.  1.
     999902    2    1    2    0    0  0.31167331811E-02 -0.84735702985E-02  0.10787807907E-01  0.10298625831E+01  0.10297665016E+01 0.  0.
     999903    2    3    3    0    0  0.58607253755E-02  0.13121709485E+00  0.28629487552E-02  0.13880488864E+00  0.44792036716E-01 0.  0.
         14    1    1    2    0    0 -0.31167331811E-02  0.84735702985E-02 -0.10787807907E-01  0.14067416919E-01  0.00000000000E+00 0. -1.
     999901    1    3    3    0    0 -0.27439921944E-02 -0.13969066515E+00  0.79248591517E-02  0.89105769444E+00  0.88000000000E+00 0.  1.
        -11    1    4    4    0    0 -0.14169781292E-01  0.72067164427E-01  0.15552207556E-01  0.75077234707E-01  0.51100000000E-03 0. -1.
         11    1    4    4    0    0  0.20030506667E-01  0.59149930424E-01 -0.12689258801E-01  0.63727653938E-01  0.51100000000E-03 0.  1.
</event>
<event>
 8    1  0.2943605E+004  0.1043930E+01  0.7957747E-01            NaN
         13   -1    0    0    0    0  0.00000000000E+00  0.00000000000E+00  0.74505805969E-08  0.10566000000E+00  0.10566000000E+00 0. -1.
     999900   -1    0    0    0    0 -0.00000000000E+00 -0.00000000000E+00 -0.74505805969E-08  0.93827000000E+00  0.93827000000E+00 0.  1.
     999902    2    1    2    0    0 -0.85819652535E-02  0.61416451074E-02  0.92415851273E-02  0.10299022836E+01  0.10298067474E+01 0.  0.
     999903    2    3    3    0    0 -0.55795109145E-01 -0.17153192206E-02  0.12244117448E+00  0.14136136732E+00  0.43303099639E-01 0.  0.
         14    1    1    2    0    0  0.85819652535E-02 -0.61416451074E-02 -0.92415851273E-02  0.14027716418E-01  0.00000000000E+00 0.  1.
     999901    1    3    3    0    0  0.47213143891E-01  0.78569643280E-02 -0.11319958935E+00  0.88854091626E+00  0.88000000000E+00 0.  1.
        -11    1    4    4    0    0 -0.19331710264E-01 -0.15741507397E-01  0.79436535783E-01  0.83258239323E-01  0.51100000000E-03 0. -1.
         11    1    4    4    0    0 -0.36463398881E-01  0.14026188177E-01  0.43004638694E-01  0.58103127996E-01  0.51100000000E-03 0.  1.
</event>
<event>
 8    1  0.2943605E+004  0.1043930E+01  0.7957747E-01            NaN
         13   -1    0    0    0    0  0.00000000000E+00  0.00000000000E+00  0.74505805969E-08  0.10566000000E+00  0.10566000000E+00 0.  1.
     999900   -1    0    0    0    0 -0.00000000000E+00 -0.00000000000E+00 -0.74505805969E-08  0.93827000000E+00  0.93827000000E+00 0. -1.
     999902    2    1    2    0    0 -0.94944107397E-02 -0.71402667362E-02  0.95871093411E-02  0.10286643552E+01  0.10285510759E+01 0.  0.
     999903    2    3    3    0    0 -0.11607752041E+00  0.63641835575E-01 -0.22828662346E-01  0.13882119629E+00  0.35012893866E-01 0.  0.
         14    1    1    2    0    0  0.94944107397E-02  0.71402667362E-02 -0.95871093411E-02  0.15265644758E-01  0.00000000000E+00 0.  1.
     999901    1    3    3    0    0  0.10658310967E+00 -0.70782102311E-01  0.32415771687E-01  0.88984315895E+00  0.88000000000E+00 0.  1.
        -11    1    4    4    0    0 -0.78177647845E-01  0.42476401701E-01 -0.31811318952E-01  0.94489208159E-01  0.51100000000E-03 0. -1.
         11    1    4    4    0    0 -0.37899872561E-01  0.21165433874E-01  0.89826566067E-02  0.44331988134E-01  0.51100000000E-03 0.  1.
</event>
<event>
 8    1  0.2943605E+004  0.1043930E+01  0.7957747E-01            NaN
         13   -1    0    0    0    0  0.00000000000E+00  0.00000000000E+00  0.74505805969E-08  0.10566000000E+00  0.10566000000E+00 0.  1.
     999900   -1    0    0    0    0 -0.00000000000E+00 -0.00000000000E+00 -0.74505805969E-08  0.93827000000E+00  0.93827000000E+00 0.  1.
     999902    2    1    2    0    0  0.12158761713E-01  0.66876208683E-02  0.11236256216E-02  0.10300079925E+01  0.10299139004E+01 0.  0.
     999903    2    3    3    0    0  0.54071152974E-01  0.96173460191E-01 -0.75987638276E-01  0.14112638561E+00  0.44379178858E-01 0.  0.
         14    1    1    2    0    0 -0.12158761713E-01 -0.66876208683E-02 -0.11236256216E-02  0.13922007535E-01  0.00000000000E+00 0. -1.
     999901    1    3    3    0    0 -0.41912391260E-01 -0.89485839323E-01  0.77111263898E-01  0.88888160685E+00  0.88000000000E+00 0. -1.
        -11    1    4    4    0    0  0.15493652299E-01  0.17196433554E-01 -0.39856652395E-01  0.46093214790E-01  0.51100000000E-03 0. -1.
         11    1    4    4    0    0  0.38577500675E-01  0.78977026637E-01 -0.36130985881E-01  0.95033170822E-01  0.51100000000E-03 0.  1.
</event>
<event>
 8    1  0.2943605E+004  0.1043930E+01  0.7957747E-01            NaN
         13   -1    0    0    0    0  0.00000000000E+00  0.00000000000E+00  0.74505805969E-08  0.10566000000E+00  0.10566000000E+00 0. -1.
     999900   -1    0    0    0    0 -0.00000000000E+00 -0.00000000000E+00 -0.74505805969E-08  0.93827000000E+00  0.93827000000E+00 0. -1.
     999902    2    1    2    0    0 -0.37858144617E-02  0.13126589376E-01 -0.32449166496E-02  0.10298883041E+01  0.10297925761E+01 0.  0.
     999903    2    3    3    0    0 -0.11226342019E+00  0.41285432204E-03 -0.71472041001E-01  0.14051550796E+00  0.45090014105E-01 0.  0.
         14    1    1    2    0    0  0.37858144617E-02 -0.13126589376E-01  0.32449166496E-02  0.14041695904E-01  0.00000000000E+00 0. -1.
     999901    1    3    3    0    0  0.10847760573E+00  0.12713735054E-01  0.68227124352E-01  0.88937279613E+00  0.88000000000E+00 0.  1.
        -11    1    4    4    0    0 -0.58586057099E-02  0.91796026064E-02 -0.18154363985E-01  0.21176175707E-01  0.51100000000E-03 0.  1.
         11    1    4    4    0    0 -0.10640481448E+00 -0.87667482843E-02 -0.53317677016E-01  0.11933933226E+00  0.51100000000E-03 0. -1.
</event>
<event>
 8    1  0.2943605E+004  0.1043930E+01  0.7957747E-01            NaN
         13   -1    0    0    0    0  0.00000000000E+00  0.00000000000E+00  0.74505805969E-08  0.10566000000E+00  0.10566000000E+00 0. -1.
     999900   -1    0    0    0    0 -0.00000000000E+00 -0.00000000000E+00 -0.74505805969E-08  0.93827000000E+00  0.93827000000E+00 0.  1.
     999902    2    1    2    0    0 -0.86673710487E-02  0.37869874717E-02 -0.99827489486E-02  0.10301779139E+01  0.10300861199E+01 0.  0.
     999903    2    3    3    0    0 -0.10782523767E+00  0.77301548713E-01 -0.21004317058E-01  0.14149453487E+00  0.44471459973E-01 0.  0.
         14    1    1    2    0    0  0.86673710487E-02 -0.37869874717E-02  0.99827489486E-02  0.13752086081E-01  0.00000000000E+00 0.  1.
     999901    1    3    3    0    0  0.99157866622E-01 -0.73514561241E-01  0.11021568109E-01  0.88868337905E+00  0.88000000000E+00 0. -1.
        -11    1    4    4    0    0 -0.59873374953E-01  0.29857039450E-01  0.92852389346E-02  0.67548061527E-01  0.51100000000E-03 0. -1.
         11    1    4    4    0    0 -0.47951862717E-01  0.47444509262E-01 -0.30289555992E-01  0.73946473347E-01  0.51100000000E-03 0.  1.
</event>
<event>
 8    1  0.2943605E+004  0.1043930E+01  0.7957747E-01            NaN
         13   -1    0    0    0    0  0.00000000000E+00  0.00000000000E+00  0.74505805969E-08  0.10566000000E+00  0.10566000000E+00 0.  1.
     999900   -1    0    0    0    0 -0.00000000000E+00 -0.00000000000E+00 -0.74505805969E-08  0.93827000000E+00  0.93827000000E+00 0. -1.
     999902    2    1    2    0    0 -0.86860771412E-02 -0.44253254638E-02  0.78700826383E-02  0.10314012474E+01  0.10313251492E+01 0.  0.
     999903    2    3    3    0    0  0.70707927038E-01 -0.10310513101E+00 -0.47666166630E-01  0.14060082814E+00  0.43200120903E-01 0.  0.
         14    1    1    2    0    0  0.86860771412E-02  0.44253254638E-02 -0.78700826383E-02  0.12528752623E-01  0.00000000000E+00 0.  1.
     999901    1    3    3    0    0 -0.79394004179E-01  0.98679805550E-01  0.55536249268E-01  0.89080041923E+00  0.88000000000E+00 0. -1.
        -11    1    4    4    0    0  0.67768266363E-01 -0.69750284586E-01 -0.44543864927E-01  0.10696755185E+00  0.51100000000E-03 0.  1.
         11    1    4    4    0    0  0.29396606747E-02 -0.33354846428E-01 -0.31223017025E-02  0.33633276291E-01  0.51100000000E-03 0. -1.
</event>
<event>
 8    1  0.2943605E+004  0.1043930E+01  0.7957747E-01            NaN
         13   -1    0    0    0    0  0.00000000000E+00  0.00000000000E+00  0.74505805969E-08  0.10566000000E+00  0.10566000000E+00 0.  1.
     999900   -1    0    0    0    0 -0.00000000000E+00 -0.00000000000E+00 -0.74505805969E-08  0.93827000000E+00  0.93827000000E+00 0.  1.
     999902    2    1    2    0    0  0.18869539910E-02 -0.13544354135E-01  0.28751375437E-02  0.10299558617E+01  0.10298610589E+01 0.  0.
     999903    2    3    3    0    0  0.73187282450E-01  0.45504392004E-01  0.10055431169E+00  0.13972459273E+00  0.44550692574E-01 0.  0.
         14    1    1    2    0    0 -0.18869539910E-02  0.13544354135E-01 -0.28751375437E-02  0.13974138263E-01  0.00000000000E+00 0.  1.
     999901    1    3    3    0    0 -0.71300328459E-01 -0.59048746140E-01 -0.97679174149E-01  0.89023126901E+00  0.88000000000E+00 0.  1.
        -11    1    4    4    0    0  0.56445249202E-01  0.53155311641E-01  0.88761582365E-01  0.11785768086E+00  0.51100000000E-03 0.  1.
         11    1    4    4    0    0  0.16742033248E-01 -0.76509196365E-02  0.11792729327E-01  0.21866911866E-01  0.51100000000E-03 0. -1.
</event>
<event>
 8    1  0.2943605E+004  0.1043930E+01  0.7957747E-01            NaN
         13   -1    0    0    0    0  0.00000000000E+00  0.00000000000E+00  0.74505805969E-08  0.10566000000E+00  0.10566000000E+00 0.  1.
     999900   -1    0    0    0    0 -0.00000000000E+00 -0.00000000000E+00 -0.74505805969E-08  0.93827000000E+00  0.93827000000E+00 0. -1.
     999902    2    1    2    0    0  0.56810163182E-02 -0.12904434291E-01 -0.62078059004E-04  0.10298302757E+01  0.10297337494E+01 0.  0.
     999903    2    3    3    0    0  0.95954807430E-01  0.85349640396E-01 -0.29544459241E-01  0.13928413355E+00  0.45114394624E-01 0.  0.
         14    1    1    2    0    0 -0.56810163182E-02  0.12904434291E-01  0.62078059004E-04  0.14099724269E-01  0.00000000000E+00 0. -1.
     999901    1    3    3    0    0 -0.90273791112E-01 -0.98254074687E-01  0.29482381182E-01  0.89054614218E+00  0.88000000000E+00 0.  1.
        -11    1    4    4    0    0  0.32138925421E-01  0.89858485793E-02 -0.20923620581E-01  0.39391814138E-01  0.51100000000E-03 0. -1.
         11    1    4    4    0    0  0.63815882009E-01  0.76363791817E-01 -0.86208386600E-02  0.99892319412E-01  0.51100000000E-03 0.  1.
</event>
<event>
 8    1  0.2943605E+004  0.1043930E+01  0.7957747E-01            NaN
         13   -1    0    0    0    0  0.00000000000E+00  0.00000000000E+00  0.74505805969E-08  0.10566000000E+00  0.10566000000E+00 0. -1.
     999900   -1    0    0    0    0 -0.00000000000E+00 -0.00000000000E+00 -0.74505805969E-08  0.93827000000E+00  0.93827000000E+00 0. -1.
     999902    2    1    2    0    0 -0.43250392895E-02  0.91355744705E-02  0.95196139906E-02  0.10300451977E+01  0.10299516112E+01 0.  0.
     999903    2    3    3    0    0  0.68848123803E-01  0.70169062123E-01  0.90685203044E-01  0.14118792494E+00  0.45237845505E-01 0.  0.
         14    1    1    2    0    0  0.43250392895E-02 -0.91355744705E-02 -0.95196139906E-02  0.13884802350E-01  0.00000000000E+00 0. -1.
     999901    1    3    3    0    0 -0.73173163093E-01 -0.61033487652E-01 -0.81165589054E-01  0.88885727272E+00  0.88000000000E+00 0.  1.
        -11    1    4    4    0    0  0.49568230124E-01  0.61380800966E-01  0.45007394358E-01  0.90832476751E-01  0.51100000000E-03 0.  1.
         11    1    4    4    0    0  0.19279893679E-01  0.87882611570E-02  0.45677808686E-01  0.50355448184E-01  0.51100000000E-03 0. -1.
</event>
<event>
 8    1  0.2943605E+004  0.1043930E+01  0.7957747E-01            NaN
         13   -1    0    0    0    0  0.00000000000E+00  0.00000000000E+00  0.74505805969E-08  0.10566000000E+00  0.10566000000E+00 0. -1.
     999900   -1    0    0    0    0 -0.00000000000E+00 -0.00000000000E+00 -0.74505805969E-08  0.93827000000E+00  0.93827000000E+00 0. -1.
     999902    2    1    2    0    0 -0.12548448173E-01  0.49187470585E-02  0.38166403463E-02  0.10299219892E+01  0.10298267230E+01 0.  0.
     999903    2    3    3    0    0 -0.28073639293E-01 -0.12861770490E+00 -0.99385302468E-02  0.13960619110E+00  0.45392410958E-01 0.  0.
         14    1    1    2    0    0  0.12548448173E-01 -0.49187470585E-02 -0.38166403463E-02  0.14008010841E-01  0.00000000000E+00 0.  1.
     999901    1    3    3    0    0  0.15525191120E-01  0.13353645196E+00  0.13755170593E-01  0.89031579806E+00  0.88000000000E+00 0. -1.
        -11    1    4    4    0    0 -0.36017007115E-01 -0.11252333481E+00 -0.18714386455E-01  0.11962113132E+00  0.51100000000E-03 0.  1.
         11    1    4    4    0    0  0.79433678215E-02 -0.16094370091E-01  0.87758562078E-02  0.19985059773E-01  0.51100000000E-03 0. -1.
</event>
<event>
 8    1  0.2943605E+004  0.1043930E+01  0.7957747E-01            NaN
         13   -1    0    0    0    0  0.00000000000E+00  0.00000000000E+00  0.74505805969E-08  0.10566000000E+00  0.10566000000E+00 0.  1.
     999900   -1    0    0    0    0 -0.00000000000E+00 -0.00000000000E+00 -0.74505805969E-08  0.93827000000E+00  0.93827000000E+00 0.  1.
     999902    2    1    2    0    0 -0.48456541743E-02 -0.11077777611E-01 -0.13022276066E-02  0.10317688603E+01  0.10316971881E+01 0.  0.
     999903    2    3    3    0    0  0.88639605809E-02  0.12507260583E+00  0.43193682638E-01  0.14008238714E+00  0.45118227375E-01 0.  0.
         14    1    1    2    0    0  0.48456541743E-02  0.11077777611E-01  0.13022276066E-02  0.12161139663E-01  0.00000000000E+00 0.  1.
     999901    1    3    3    0    0 -0.13709614755E-01 -0.13615038344E+00 -0.44495910245E-01  0.89168647319E+00  0.88000000000E+00 0.  1.
        -11    1    4    4    0    0  0.21036832518E-03  0.11204090047E+00  0.50394456759E-01  0.12285385637E+00  0.51100000000E-03 0. -1.
         11    1    4    4    0    0  0.86535922557E-02  0.13031705362E-01 -0.72007741207E-02  0.17228530771E-01  0.51100000000E-03 0.  1.
</event>
<event>
 8    1  0.2943605E+004  0.1043930E+01  0.7957747E-01            NaN
         13   -1    0    0    0    0  0.00000000000E+00  0.00000000000E+00  0.74505805969E-08  0.10566000000E+00  0.10566000000E+00 0. -1.
     999900   -1    0    0    0    0 -0.00000000000E+00 -0.00000000000E+00 -0.74505805969E-08  0.93827000000E+00  0.93827000000E+00 0. -1.
     999902    2    1    2    0    0 -0.69986503898E-02 -0.11852009942E-01 -0.63719257329E-03  0.10301511299E+01  0.10300589756E+01 0.  0.
     999903    2    3    3    0    0  0.59598346072E-01 -0.27235872166E-01  0.11526765439E+00  0.13992320588E+00  0.44700288664E-01 0.  0.
         14    1    1    2    0    0  0.69986503898E-02  0.11852009942E-01  0.63719257329E-03  0.13778870103E-01  0.00000000000E+00 0. -1.
     999901    1    3    3    0    0 -0.66596996462E-01  0.15383862224E-01 -0.11590484697E+00  0.89022792402E+00  0.88000000000E+00 0. -1.
        -11    1    4    4    0    0  0.27974409479E-01 -0.31171847823E-01  0.38869077408E-01  0.57142960913E-01  0.51100000000E-03 0. -1.
         11    1    4    4    0    0  0.31623936593E-01  0.39359756568E-02  0.76398576985E-01  0.82780244964E-01  0.51100000000E-03 0.  1.
</event>
<event>
 8    1  0.2943605E+004  0.1043930E+01  0.7957747E-01            NaN
         13   -1    0    0    0    0  0.00000000000E+00  0.00000000000E+00  0.74505805969E-08  0.10566000000E+00  0.10566000000E+00 0.  1.
     999900   -1    0    0    0    0 -0.00000000000E+00 -0.00000000000E+00 -0.74505805969E-08  0.93827000000E+00  0.93827000000E+00 0.  1.
     999902    2    1    2    0    0 -0.26517212583E-02  0.10373094697E-01  0.11827127784E-01  0.10279765154E+01  0.10278527144E+01 0.  0.
     999903    2    3    3    0    0  0.13011563095E+00  0.10397347789E-01 -0.11969091051E-02  0.13792213732E+00  0.44529777816E-01 0.  0.
         14    1    1    2    0    0  0.26517212583E-02 -0.10373094697E-01 -0.11827127784E-01  0.15953484599E-01  0.00000000000E+00 0. -1.
     999901    1    3    3    0    0 -0.13276735221E+00 -0.24253091466E-04  0.13024036889E-01  0.89005437808E+00  0.88000000000E+00 0.  1.
        -11    1    4    4    0    0  0.38342733495E-01  0.22123517522E-01  0.78476740402E-02  0.44960675576E-01  0.51100000000E-03 0. -1.
         11    1    4    4    0    0  0.91772897459E-01 -0.11726169733E-01 -0.90445831453E-02  0.92961461746E-01  0.51100000000E-03 0.  1.
</event>
<event>
 8    1  0.2943605E+004  0.1043930E+01  0.7957747E-01            NaN
         13   -1    0    0    0    0  0.00000000000E+00  0.00000000000E+00  0.74505805969E-08  0.10566000000E+00  0.10566000000E+00 0. -1.
     999900   -1    0    0    0    0 -0.00000000000E+00 -0.00000000000E+00 -0.74505805969E-08  0.93827000000E+00  0.93827000000E+00 0.  1.
     999902    2    1    2    0    0  0.10742186294E-01 -0.58621849720E-02  0.63438790361E-02  0.10301457851E+01  0.10300535588E+01 0.  0.
     999903    2    3    3    0    0 -0.58294739939E-01  0.99840749151E-01  0.63694278343E-01  0.13928761695E+00  0.44470521102E-01 0.  0.
         14    1    1    2    0    0 -0.10742186294E-01  0.58621849720E-02 -0.63438790361E-02  0.13784214894E-01  0.00000000000E+00 0.  1.
     999901    1    3    3    0    0  0.69036926233E-01 -0.10570293412E+00 -0.57350399307E-01  0.89085816815E+00  0.88000000000E+00 0.  1.
        -11    1    4    4    0    0 -0.49122420822E-01  0.59233446948E-01  0.59829125932E-01  0.97475119367E-01  0.51100000000E-03 0.  1.
         11    1    4    4    0    0 -0.91723191166E-02  0.40607302202E-01  0.38651524105E-02  0.41812497585E-01  0.51100000000E-03 0. -1.
</event>
<event>
 8    1  0.2943605E+004  0.1043930E+01  0.7957747E-01            NaN
         13   -1    0    0    0    0  0.00000000000E+00  0.00000000000E+00  0.74505805969E-08  0.10566000000E+00  0.10566000000E+00 0.  1.
     999900   -1    0    0    0    0 -0.00000000000E+00 -0.00000000000E+00 -0.74505805969E-08  0.93827000000E+00  0.93827000000E+00 0. -1.
     999902    2    1    2    0    0 -0.91718322907E-02  0.26126296056E-02 -0.10842665624E-01  0.10294900644E+01  0.10293887900E+01 0.  0.
     999903    2    3    3    0    0 -0.55189493271E-01  0.12082828438E+00 -0.89262029362E-02  0.14039151030E+00  0.44550472415E-01 0.  0.
         14    1    1    2    0    0  0.91718322907E-02 -0.26126296056E-02  0.10842665624E-01  0.14439935556E-01  0.00000000000E+00 0.  1.
     999901    1    3    3    0    0  0.46017660980E-01 -0.11821565477E+00 -0.19164626877E-02  0.88909855415E+00  0.88000000000E+00 0. -1.
        -11    1    4    4    0    0 -0.20710806663E-01  0.91277389973E-02  0.31940551748E-02  0.22862988460E-01  0.51100000000E-03 0. -1.
         11    1    4    4    0    0 -0.34478686608E-01  0.11170054538E+00 -0.12120258111E-01  0.11752852184E+00  0.51100000000E-03 0.  1.
</event>
<event>
 8    1  0.2943605E+004  0.1043930E+01  0.7957747E-01            NaN
         13   -1    0    0    0    0  0.00000000000E+00  0.00000000000E+00  0.74505805969E-08  0.10566000000E+00  0.10566000000E+00 0. -1.
     999900   -1    0    0    0    0 -0.00000000000E+00 -0.00000000000E+00 -0.74505805969E-08  0.93827000000E+00  0.93827000000E+00 0. -1.
     999902    2    1    2    0    0 -0.22775478769E-01  0.12065824829E-01 -0.19629324485E-02  0.10180812154E+01  0.10177530159E+01 0.  0.
     999903    2    3    3    0    0 -0.83486860013E-01  0.58880659613E-01 -0.71316537771E-01  0.13202962370E+00  0.43689645264E-01 0.  0.
         14    1    1    2    0    0  0.22775478769E-01 -0.12065824829E-01  0.19629324485E-02  0.25848784609E-01  0.00000000000E+00 0. -1.
     999901    1    3    3    0    0  0.60711381244E-01 -0.46814834784E-01  0.69353605322E-01  0.88605159169E+00  0.88000000000E+00 0.  1.
        -11    1    4    4    0    0 -0.20272433986E-01  0.34464222338E-01 -0.42602858869E-01  0.58429606416E-01  0.51100000000E-03 0. -1.
         11    1    4    4    0    0 -0.63214426026E-01  0.24416437275E-01 -0.28713678902E-01  0.73600017284E-01  0.51100000000E-03 0.  1.
</event>
<event>
 8    1  0.2943605E+004  0.1043930E+01  0.7957747E-01            NaN
         13   -1    0    0    0    0  0.00000000000E+00  0.00000000000E+00  0.74505805969E-08  0.10566000000E+00  0.10566000000E+00 0.  1.
     999900   -1    0    0    0    0 -0.00000000000E+00 -0.00000000000E+00 -0.74505805969E-08  0.93827000000E+00  0.93827000000E+00 0. -1.
     999902    2    1    2    0    0  0.61503943258E-02 -0.93756149975E-02  0.89331887252E-02  0.10295936348E+01  0.10294938181E+01 0.  0.
     999903    2    3    3    0    0 -0.46392916778E-01 -0.52325428341E-02  0.12507170907E+00  0.14039954995E+00  0.43467447409E-01 0.  0.
         14    1    1    2    0    0 -0.61503943258E-02  0.93756149975E-02 -0.89331887252E-02  0.14336365221E-01  0.00000000000E+00 0. -1.
     999901    1    3    3    0    0  0.52543311104E-01 -0.41430721634E-02 -0.11613852035E+00  0.88919408483E+00  0.88000000000E+00 0. -1.
        -11    1    4    4    0    0 -0.24127215725E-01 -0.19606250980E-01  0.36509309693E-01  0.47955379588E-01  0.51100000000E-03 0.  1.
         11    1    4    4    0    0 -0.22265701053E-01  0.14373708146E-01  0.88562399378E-01  0.92444170361E-01  0.51100000000E-03 0. -1.
</event>
<event>
 8    1  0.2943605E+004  0.1043930E+01  0.7957747E-01            NaN
         13   -1    0    0    0    0  0.00000000000E+00  0.00000000000E+00  0.74505805969E-08  0.10566000000E+00  0.10566000000E+00 0. -1.
     999900   -1    0    0    0    0 -0.00000000000E+00 -0.00000000000E+00 -0.74505805969E-08  0.93827000000E+00  0.93827000000E+00 0.  1.
     999902    2    1    2    0    0  0.93783047548E-02 -0.38438238265E-02  0.94612789842E-02  0.10300648140E+01  0.10299714937E+01 0.  0.
     999903    2    3    3    0    0  0.13343624626E+00  0.15358855087E-02  0.87038780079E-02  0.14134669912E+00  0.45777080517E-01 0.  0.
         14    1    1    2    0    0 -0.93783047548E-02  0.38438238265E-02 -0.94612789842E-02  0.13865185960E-01  0.00000000000E+00 0.  1.
     999901    1    3    3    0    0 -0.12405794151E+00 -0.53797093353E-02  0.75740097631E-03  0.88871811492E+00  0.88000000000E+00 0.  1.
        -11    1    4    4    0    0  0.48463427904E-01 -0.96967530580E-03 -0.18804811691E-01  0.51995443821E-01  0.51100000000E-03 0. -1.
         11    1    4    4    0    0  0.84972818356E-01  0.25055608145E-02  0.27508689698E-01  0.89351255303E-01  0.51100000000E-03 0.  1.
</event>
<event>
 8    1  0.2943605E+004  0.1043930E+01  0.7957747E-01            NaN
         13   -1    0    0    0    0  0.00000000000E+00  0.00000000000E+00  0.74505805969E-08  0.10566000000E+00  0.10566000000E+00 0. -1.
     999900   -1    0    0    0    0 -0.00000000000E+00 -0.00000000000E+00 -0.74505805969E-08  0.93827000000E+00  0.93827000000E+00 0.  1.
     999902    2    1    2    0    0 -0.10831648876E-02 -0.49149497903E-02 -0.13379301688E-01  0.10296353964E+01  0.10295361644E+01 0.  0.
     999903    2    3    3    0    0  0.11146702956E+00  0.47803776635E-01 -0.54161138235E-01  0.13996693651E+00  0.44127255530E-01 0.  0.
         14    1    1    2    0    0  0.10831648876E-02  0.49149497903E-02  0.13379301688E-01  0.14294603571E-01  0.00000000000E+00 0. -1.
     999901    1    3    3    0    0 -0.11255019445E+00 -0.52718726425E-01  0.40781836547E-01  0.88966845992E+00  0.88000000000E+00 0.  1.
        -11    1    4    4    0    0  0.96344339076E-01  0.30097731490E-01 -0.27604754860E-01  0.10464410506E+00  0.51100000000E-03 0. -1.
         11    1    4    4    0    0  0.15122690485E-01  0.17706045145E-01 -0.26556383375E-01  0.35322831443E-01  0.51100000000E-03 0.  1.
</event>
<event>
 8    1  0.2943605E+004  0.1043930E+01  0.7957747E-01            NaN
         13   -1    0    0    0    0  0.00000000000E+00  0.00000000000E+00  0.74505805969E-08  0.10566000000E+00  0.10566000000E+00 0. -1.
     999900   -1    0    0    0    0 -0.00000000000E+00 -0.00000000000E+00 -0.74505805969E-08  0.93827000000E+00  0.93827000000E+00 0.  1.
     999902    2    1    2    0    0 -0.12752286076E-01 -0.23448240555E-03 -0.54369630719E-02  0.10300650676E+01  0.10299717507E+01 0.  0.
     999903    2    3    3    0    0 -0.77320432095E-01  0.88377894381E-01  0.61838491224E-01  0.14071295201E+00  0.46765739952E-01 0.  0.
         14    1    1    2    0    0  0.12752286076E-01  0.23448240555E-03  0.54369630719E-02  0.13864932370E-01  0.00000000000E+00 0.  1.
     999901    1    3    3    0    0  0.64568146019E-01 -0.88612376786E-01 -0.67275454296E-01  0.88935211562E+00  0.88000000000E+00 0. -1.
        -11    1    4    4    0    0 -0.12261722741E-01  0.48453435698E-01  0.26916251794E-01  0.56769983329E-01  0.51100000000E-03 0. -1.
         11    1    4    4    0    0 -0.65058709354E-01  0.39924458683E-01  0.34922239430E-01  0.83942968686E-01  0.51100000000E-03 0.  1.
</event>
<event>
 8    1  0.2943605E+004  0.1043930E+01  0.7957747E-01            NaN
         13   -1    0    0    0    0  0.00000000000E+00  0.00000000000E+00  0.74505805969E-08  0.10566000000E+00  0.10566000000E+00 0.  1.
     999900   -1    0    0    0    0 -0.00000000000E+00 -0.00000000000E+00 -0.74505805969E-08  0.93827000000E+00  0.93827000000E+00 0.  1.
     999902    2    1    2    0    0 -0.53811820250E-02 -0.59273345190E-02  0.12158682244E-01  0.10293723914E+01  0.10292694478E+01 0.  0.
     999903    2    3    3    0    0  0.32067722928E-01 -0.20327271910E-01  0.12804349943E+00  0.14086855373E+00  0.44802620993E-01 0.  0.
         14    1    1    2    0    0  0.53811820250E-02  0.59273345190E-02 -0.12158682244E-01  0.14557608609E-01  0.00000000000E+00 0. -1.
     999901    1    3    3    0    0 -0.37448904953E-01  0.14399937391E-01 -0.11588481718E+00  0.88850383766E+00  0.88000000000E+00 0.  1.
        -11    1    4    4    0    0  0.86607247215E-02 -0.30970065482E-01  0.82787844601E-01  0.88815772492E-01  0.51100000000E-03 0.  1.
         11    1    4    4    0    0  0.23406998206E-01  0.10642793572E-01  0.45255654828E-01  0.52052781241E-01  0.51100000000E-03 0. -1.
</event>
<event>
 8    1  0.2943605E+004  0.1043930E+01  0.7957747E-01            NaN
         13   -1    0    0    0    0  0.00000000000E+00  0.00000000000E+00  0.74505805969E-08  0.10566000000E+00  0.10566000000E+00 0. -1.
     999900   -1    0    0    0    0 -0.00000000000E+00 -0.00000000000E+00 -0.74505805969E-08  0.93827000000E+00  0.93827000000E+00 0.  1.
     999902    2    1    2    0    0 -0.65940009867E-02 -0.44278652156E-02 -0.10734757051E-01  0.10305762796E+01  0.10304897604E+01 0.  0.
     999903    2    3    3    0    0 -0.13263784155E+00 -0.21108382377E-01  0.46682479553E-03  0.14136833720E+00  0.44118341089E-01 0.  0.
         14    1    1    2    0    0  0.65940009867E-02  0.44278652156E-02  0.10734757051E-01  0.13353720393E-01  0.00000000000E+00 0. -1.
     999901    1    3    3    0    0  0.12604384056E+00  0.16680517162E-01 -0.11201581847E-01  0.88920794240E+00  0.88000000000E+00 0.  1.
        -11    1    4    4    0    0 -0.82431172824E-01 -0.34285279969E-01  0.37299848707E-02  0.89356323692E-01  0.51100000000E-03 0.  1.
         11    1    4    4    0    0 -0.50206668728E-01  0.13176897592E-01 -0.32631600752E-02  0.52012013512E-01  0.51100000000E-03 0. -1.
</event>
<event>
 8    1  0.2943605E+004  0.1043930E+01  0.7957747E-01            NaN
         13   -1    0    0    0    0  0.00000000000E+00  0.00000000000E+00  0.74505805969E-08  0.10566000000E+00  0.10566000000E+00 0. -1.
     999900   -1    0    0    0    0 -0.00000000000E+00 -0.00000000000E+00 -0.74505805969E-08  0.93827000000E+00  0.93827000000E+00 0.  1.
     999902    2    1    2    0    0 -0.33140706801E-03 -0.10540569536E-01 -0.88513296574E-02  0.10301619401E+01  0.10300699313E+01 0.  0.
     999903    2    3    3    0    0  0.64957610900E-01 -0.10801287734E+00  0.42511401129E-01  0.14089165679E+00  0.46443157119E-01 0.  0.
         14    1    1    2    0    0  0.33140706801E-03  0.10540569536E-01  0.88513296574E-02  0.13768059903E-01  0.00000000000E+00 0. -1.
     999901    1    3    3    0    0 -0.65289017968E-01  0.97472307801E-01 -0.51362730787E-01  0.88927028330E+00  0.88000000000E+00 0.  1.
        -11    1    4    4    0    0  0.18036380140E-01 -0.73612684433E-01  0.18992872629E-01  0.78135322676E-01  0.51100000000E-03 0. -1.
         11    1    4    4    0    0  0.46921230760E-01 -0.34400192904E-01  0.23518528500E-01  0.62756334116E-01  0.51100000000E-03 0.  1.
</event>
<event>
 8    1  0.2943605E+004  0.1043930E+01  0.7957747E-01            NaN
         13   -1    0    0    0    0  0.00000000000E+00  0.00000000000E+00  0.74505805969E-08  0.10566000000E+00  0.10566000000E+00 0.  1.
     999900   -1    0    0    0    0 -0.00000000000E+00 -0.00000000000E+00 -0.74505805969E-08  0.93827000000E+00  0.93827000000E+00 0. -1.
     999902    2    1    2    0    0  0.13752141655E-01  0.27888481257E-02  0.36110441360E-04  0.10298978805E+01  0.10298022839E+01 0.  0.
     999903    2    3    3    0    0  0.26860843303E-02  0.77693083778E-02  0.13202798687E+00  0.13997141271E+00  0.45749643255E-01 0.  0.
         14    1    1    2    0    0 -0.13752141655E-01 -0.27888481257E-02 -0.36110441360E-04  0.14032119509E-01  0.00000000000E+00 0.  1.
     999901    1    3    3    0    0  0.11066057325E-01 -0.49804602521E-02 -0.13199187643E+00  0.88992646778E+00  0.88000000000E+00 0. -1.
        -11    1    4    4    0    0  0.18914896749E-01  0.39193615650E-02  0.24733112930E-01  0.31386664530E-01  0.51100000000E-03 0.  1.
         11    1    4    4    0    0 -0.16228812419E-01  0.38499468127E-02  0.10729487394E+00  0.10858474818E+00  0.51100000000E-03 0. -1.
</event>
<event>
 8    1  0.2943605E+004  0.1043930E+01  0.7957747E-01            NaN
         13   -1    0    0    0    0  0.00000000000E+00  0.00000000000E+00  0.74505805969E-08  0.10566000000E+00  0.10566000000E+00 0. -1.
     999900   -1    0    0    0    0 -0.00000000000E+00 -0.00000000000E+00 -0.74505805969E-08  0.93827000000E+00  0.93827000000E+00 0.  1.
     999902    2    1    2    0    0  0.68611870077E-02 -0.12270182165E-01 -0.33732438454E-02  0.10294727516E+01  0.10293712325E+01 0.  0.
     999903    2    3    3    0    0  0.68149248043E-01 -0.92306009801E-01 -0.69253072364E-01  0.14127113488E+00  0.44685859765E-01 0.  0.
         14    1    1    2    0    0 -0.68611870077E-02  0.12270182165E-01  0.33732438454E-02  0.14457248409E-01  0.00000000000E+00 0. -1.
     999901    1    3    3    0    0 -0.61288061035E-01  0.80035827637E-01  0.65879828519E-01  0.88820161672E+00  0.88000000000E+00 0. -1.
        -11    1    4    4    0    0  0.32068696151E-01 -0.65261083438E-01 -0.62076336239E-01  0.95609324473E-01  0.51100000000E-03 0. -1.
         11    1    4    4    0    0  0.36080551892E-01 -0.27044926363E-01 -0.71767361249E-02  0.45661810403E-01  0.51100000000E-03 0.  1.
</event>
<event>
 8    1  0.2943605E+004  0.1043930E+01  0.7957747E-01            NaN
         13   -1    0    0    0    0  0.00000000000E+00  0.00000000000E+00  0.74505805969E-08  0.10566000000E+00  0.10566000000E+00 0. -1.
     999900   -1    0    0    0    0 -0.00000000000E+00 -0.00000000000E+00 -0.74505805969E-08  0.93827000000E+00  0.93827000000E+00 0.  1.
     999902    2    1    2    0    0  0.23821306652E-02 -0.14365687465E-01 -0.42784873592E-02  0.10287526163E+01  0.10286406528E+01 0.  0.
     999903    2    3    3    0    0 -0.92227939632E-01  0.46390674589E-01 -0.77443427045E-01  0.13858661527E+00  0.50504237470E-01 0.  0.
         14    1    1    2    0    0 -0.23821306652E-02  0.14365687465E-01  0.42784873592E-02  0.15177383731E-01  0.00000000000E+00 0.  1.
     999901    1    3    3    0    0  0.94610070297E-01 -0.60756362054E-01  0.73164939686E-01  0.89016600100E+00  0.88000000000E+00 0. -1.
        -11    1    4    4    0    0 -0.14780316704E-01  0.12237511463E-02 -0.37699568536E-01  0.40515107276E-01  0.51100000000E-03 0. -1.
         11    1    4    4    0    0 -0.77447622928E-01  0.45166923443E-01 -0.39743858509E-01  0.98071507996E-01  0.51100000000E-03 0.  1.
</event>
<event>
 8    1  0.2943605E+004  0.1043930E+01  0.7957747E-01            NaN
         13   -1    0    0    0    0  0.00000000000E+00  0.00000000000E+00  0.74505805969E-08  0.10566000000E+00  0.10566000000E+00 0.  1.
     999900   -1    0    0    0    0 -0.00000000000E+00 -0.00000000000E+00 -0.74505805969E-08  0.93827000000E+00  0.93827000000E+00 0. -1.
     999902    2    1    2    0    0 -0.58062599231E-02  0.44204808760E-02 -0.10147917053E-01  0.10314306590E+01  0.10313549199E+01 0.  0.
     999903    2    3    3    0    0 -0.77753052123E-01 -0.95605992326E-01 -0.53763008818E-01  0.14177684289E+00  0.44990767717E-01 0.  0.
         14    1    1    2    0    0  0.58062599231E-02 -0.44204808760E-02  0.10147917053E-01  0.12499341022E-01  0.00000000000E+00 0.  1.
     999901    1    3    3    0    0  0.71946792200E-01  0.10002647320E+00  0.43615091764E-01  0.88965381609E+00  0.88000000000E+00 0.  1.
        -11    1    4    4    0    0 -0.26490096687E-01 -0.67948816339E-01 -0.30561076999E-01  0.79075959765E-01  0.51100000000E-03 0. -1.
         11    1    4    4    0    0 -0.51262955436E-01 -0.27657175987E-01 -0.23201931819E-01  0.62700883126E-01  0.51100000000E-03 0.  1.
</event>
<event>
 8    1  0.2943605E+004  0.1043930E+01  0.7957747E-01            NaN
         13   -1    0    0    0    0  0.00000000000E+00  0.00000000000E+00  0.74505805969E-08  0.10566000000E+00  0.10566000000E+00 0. -1.
     999900   -1    0    0    0    0 -0.00000000000E+00 -0.00000000000E+00 -0.74505805969E-08  0.93827000000E+00  0.93827000000E+00 0.  1.
     999902    2    1    2    0    0  0.64583786781E-02 -0.42580051181E-04  0.11866422303E-01  0.10304198391E+01  0.10303312673E+01 0.  0.
     999903    2    3    3    0    0 -0.99137377475E-01  0.79030106515E-01  0.39261495871E-01  0.14016513203E+00  0.45064640573E-01 0.  0.
         14    1    1    2    0    0 -0.64583786781E-02  0.42580051181E-04 -0.11866422303E-01  0.13510160861E-01  0.00000000000E+00 0. -1.
     999901    1    3    3    0    0  0.10559575615E+00 -0.79072686567E-01 -0.27395073568E-01  0.89025470711E+00  0.88000000000E+00 0.  1.
        -11    1    4    4    0    0 -0.17406094665E-01  0.59760397120E-02 -0.88765131614E-02  0.20438659179E-01  0.51100000000E-03 0.  1.
         11    1    4    4    0    0 -0.81731282810E-01  0.73054066804E-01  0.48138009032E-01  0.11972647285E+00  0.51100000000E-03 0. -1.
</event>
<event>
 8    1  0.2943605E+004  0.1043930E+01  0.7957747E-01            NaN
         13   -1    0    0    0    0  0.00000000000E+00  0.00000000000E+00  0.74505805969E-08  0.10566000000E+00  0.10566000000E+00 0. -1.
     999900   -1    0    0    0    0 -0.00000000000E+00 -0.00000000000E+00 -0.74505805969E-08  0.93827000000E+00  0.93827000000E+00 0.  1.
     999902    2    1    2    0    0  0.48009717405E-02 -0.54353592273E-02  0.12150350458E-01  0.10297799655E+01  0.10296827443E+01 0.  0.
     999903    2    3    3    0    0  0.40079966971E-01  0.43775460499E-01 -0.11704255584E+00  0.13828845164E+00  0.43612398276E-01 0.  0.
         14    1    1    2    0    0 -0.48009717405E-02  0.54353592273E-02 -0.12150350458E-01  0.14150034482E-01  0.00000000000E+00 0.  1.
     999901    1    3    3    0    0 -0.35278995230E-01 -0.49210819726E-01  0.12919290630E+00  0.89149151388E+00  0.88000000000E+00 0. -1.
        -11    1    4    4    0    0  0.24898115190E-01 -0.30530888867E-03 -0.57509498083E-01  0.62670669729E-01  0.51100000000E-03 0. -1.
         11    1    4    4    0    0  0.15181851781E-01  0.44080769388E-01 -0.59533057761E-01  0.75617781908E-01  0.51100000000E-03 0.  1.
</event>
<event>
 8    1  0.2943605E+004  0.1043930E+01  0.7957747E-01            NaN
         13   -1    0    0    0    0  0.00000000000E+00  0.00000000000E+00  0.74505805969E-08  0.10566000000E+00  0.10566000000E+00 0. -1.
     999900   -1    0    0    0    0 -0.00000000000E+00 -0.00000000000E+00 -0.74505805969E-08  0.93827000000E+00  0.93827000000E+00 0. -1.
     999902    2    1    2    0    0 -0.13311983794E-01  0.47700727076E-02  0.21050919990E-02  0.10296333599E+01  0.10295340994E+01 0.  0.
     999903    2    3    3    0    0 -0.10476387981E+00  0.75348770615E-01 -0.37765272937E-01  0.14118839936E+00  0.43070181426E-01 0.  0.
         14    1    1    2    0    0  0.13311983794E-01 -0.47700727076E-02 -0.21050919990E-02  0.14296640112E-01  0.00000000000E+00 0. -1.
     999901    1    3    3    0    0  0.91451896016E-01 -0.70578697908E-01  0.39870364936E-01  0.88844496053E+00  0.88000000000E+00 0.  1.
        -11    1    4    4    0    0 -0.76037713335E-01  0.43393659775E-01 -0.60093692386E-02  0.87756009467E-01  0.51100000000E-03 0. -1.
         11    1    4    4    0    0 -0.28726166476E-01  0.31955110840E-01 -0.31755903698E-01  0.53432389895E-01  0.51100000000E-03 0.  1.
</event>
<event>
 8    1  0.2943605E+004  0.1043930E+01  0.7957747E-01            NaN
         13   -1    0    0    0    0  0.00000000000E+00  0.00000000000E+00  0.74505805969E-08  0.10566000000E+00  0.10566000000E+00 0.  1.
     999900   -1    0    0    0    0 -0.00000000000E+00 -0.00000000000E+00 -0.74505805969E-08  0.93827000000E+00  0.93827000000E+00 0.  1.
     999902    2    1    2    0    0 -0.98689988984E-02 -0.92238359562E-02  0.17354222840E-02  0.10303106028E+01  0.10302205833E+01 0.  0.
     999903    2    3    3    0    0  0.16731832435E-01  0.68087356327E-01  0.11272597154E+00  0.13957858549E+00  0.43118378435E-01 0.  0.
         14    1    1    2    0    0  0.98689988984E-02  0.92238359562E-02 -0.17354222840E-02  0.13619397179E-01  0.00000000000E+00 0.  1.
     999901    1    3    3    0    0 -0.26600831334E-01 -0.77311192283E-01 -0.11099054926E+00  0.89073201733E+00  0.88000000000E+00 0.  1.
        -11    1    4    4    0    0  0.17260504987E-01  0.17796689192E-01  0.67605265474E-01  0.72009584219E-01  0.51100000000E-03 0.  1.
         11    1    4    4    0    0 -0.52867255130E-03  0.50290667135E-01  0.45120706066E-01  0.67569001268E-01  0.51100000000E-03 0. -1.
</event>
<event>
 8    1  0.2943605E+004  0.1043930E+01  0.7957747E-01            NaN
         13   -1    0    0    0    0  0.00000000000E+00  0.00000000000E+00  0.74505805969E-08  0.10566000000E+00  0.10566000000E+00 0.  1.
     999900   -1    0    0    0    0 -0.00000000000E+00 -0.00000000000E+00 -0.74505805969E-08  0.93827000000E+00  0.93827000000E+00 0.  1.
     999902    2    1    2    0    0 -0.28530243349E-02 -0.13849984008E-01 -0.11657709787E-02  0.10297412429E+01  0.10296434852E+01 0.  0.
     999903    2    3    3    0    0 -0.73064567268E-01  0.86137954700E-01 -0.66075188560E-01  0.13893235146E+00  0.46670006531E-01 0.  0.
         14    1    1    2    0    0  0.28530243349E-02  0.13849984008E-01  0.11657709787E-02  0.14188757058E-01  0.00000000000E+00 0.  1.
     999901    1    3    3    0    0  0.70211542933E-01 -0.99987938708E-01  0.64909417582E-01  0.89080889148E+00  0.88000000000E+00 0.  1.
        -11    1    4    4    0    0 -0.87575553239E-02  0.69275416082E-02 -0.27794966693E-01  0.29958419559E-01  0.51100000000E-03 0. -1.
         11    1    4    4    0    0 -0.64307011945E-01  0.79210413092E-01 -0.38280221868E-01  0.10897393190E+00  0.51100000000E-03 0.  1.
</event>
<event>
 8    1  0.2943605E+004  0.1043930E+01  0.7957747E-01            NaN
         13   -1    0    0    0    0  0.00000000000E+00  0.00000000000E+00  0.74505805969E-08  0.10566000000E+00  0.10566000000E+00 0.  1.
     999900   -1    0    0    0    0 -0.00000000000E+00 -0.00000000000E+00 -0.74505805969E-08  0.93827000000E+00  0.93827000000E+00 0. -1.
     999902    2    1    2    0    0  0.44965978893E-02  0.46175468866E-02 -0.10429506845E-01  0.10316696678E+01  0.10315968145E+01 0.  0.
     999903    2    3    3    0    0 -0.71583661787E-01 -0.84748268810E-01  0.72419943888E-01  0.14002036098E+00  0.45327293261E-01 0.  0.
         14    1    1    2    0    0 -0.44965978893E-02 -0.46175468866E-02  0.10429506845E-01  0.12260332168E-01  0.00000000000E+00 0. -1.
     999901    1    3    3    0    0  0.76080259676E-01  0.89365815697E-01 -0.82849450733E-01  0.89164930685E+00  0.88000000000E+00 0. -1.
        -11    1    4    4    0    0 -0.53209318319E-01 -0.65878561042E-01  0.29528059560E-01  0.89684913911E-01  0.51100000000E-03 0.  1.
         11    1    4    4    0    0 -0.18374343468E-01 -0.18869707768E-01  0.42891884328E-01  0.50335447066E-01  0.51100000000E-03 0. -1.
</event>
<event>
 8    1  0.2943605E+004  0.1043930E+01  0.7957747E-01            NaN
         13   -1    0    0    0    0  0.00000000000E+00  0.00000000000E+00  0.74505805969E-08  0.10566000000E+00  0.10566000000E+00 0.  1.
     999900   -1    0    0    0    0 -0.00000000000E+00 -0.00000000000E+00 -0.74505805969E-08  0.93827000000E+00  0.93827000000E+00 0.  1.
     999902    2    1    2    0    0  0.13369194771E-01  0.14895503463E-01 -0.54713818369E-02  0.10231803636E+01  0.10229699453E+01 0.  0.
     999903    2    3    3    0    0 -0.42738381941E-01  0.16374874129E-01  0.11663236766E+00  0.13297837844E+00  0.44558210848E-01 0.  0.
         14    1    1    2    0    0 -0.13369194771E-01 -0.14895503463E-01  0.54713818369E-02  0.20749636417E-01  0.00000000000E+00 0.  1.
     999901    1    3    3    0    0  0.56107576712E-01 -0.14793706656E-02 -0.12210374950E+00  0.89020198514E+00  0.88000000000E+00 0.  1.
        -11    1    4    4    0    0 -0.25906264167E-01 -0.86744371263E-02  0.27056322353E-01  0.38453687506E-01  0.51100000000E-03 0. -1.
         11    1    4    4    0    0 -0.16832117775E-01  0.25049311255E-01  0.89576045308E-01  0.94524690939E-01  0.51100000000E-03 0.  1.
</event>
<event>
 8    1  0.2943605E+004  0.1043930E+01  0.7957747E-01            NaN
         13   -1    0    0    0    0  0.00000000000E+00  0.00000000000E+00  0.74505805969E-08  0.10566000000E+00  0.10566000000E+00 0. -1.
     999900   -1    0    0    0    0 -0.00000000000E+00 -0.00000000000E+00 -0.74505805969E-08  0.93827000000E+00  0.93827000000E+00 0.  1.
     999902    2    1    2    0    0 -0.10749316928E-01 -0.43541891380E-02  0.76815559471E-02  0.10300191021E+01  0.10299251612E+01 0.  0.
     999903    2    3    3    0    0 -0.82768501906E-01  0.93131366030E-01  0.47540073874E-01  0.14081783251E+00  0.45227503593E-01 0.  0.
         14    1    1    2    0    0  0.10749316928E-01  0.43541891380E-02 -0.76815559471E-02  0.13910897858E-01  0.00000000000E+00 0. -1.
     999901    1    3    3    0    0  0.72019184978E-01 -0.97485555168E-01 -0.39858517927E-01  0.88920126964E+00  0.88000000000E+00 0.  1.
        -11    1    4    4    0    0 -0.51063298767E-01  0.77465248635E-01  0.17509517654E-01  0.94420175580E-01  0.51100000000E-03 0. -1.
         11    1    4    4    0    0 -0.31705203139E-01  0.15666117395E-01  0.30030556220E-01  0.46397656925E-01  0.51100000000E-03 0.  1.
</event>
<event>
 8    1  0.2943605E+004  0.1043930E+01  0.7957747E-01            NaN
         13   -1    0    0    0    0  0.00000000000E+00  0.00000000000E+00  0.74505805969E-08  0.10566000000E+00  0.10566000000E+00 0. -1.
     999900   -1    0    0    0    0 -0.00000000000E+00 -0.00000000000E+00 -0.74505805969E-08  0.93827000000E+00  0.93827000000E+00 0.  1.
     999902    2    1    2    0    0  0.88556255206E-02 -0.10126820548E-01 -0.19211203309E-02  0.10303408388E+01  0.10302512212E+01 0.  0.
     999903    2    3    3    0    0  0.42778927079E-01  0.58789763594E-01  0.11082502985E+00  0.13982863772E+00  0.44537487358E-01 0.  0.
         14    1    1    2    0    0 -0.88556255206E-02  0.10126820548E-01  0.19211203309E-02  0.13589161163E-01  0.00000000000E+00 0. -1.
     999901    1    3    3    0    0 -0.33923301559E-01 -0.68916584142E-01 -0.11274615018E+00  0.89051220112E+00  0.88000000000E+00 0.  1.
        -11    1    4    4    0    0  0.32796792082E-01  0.52656910792E-01  0.55389396576E-01  0.83166256372E-01  0.51100000000E-03 0.  1.
         11    1    4    4    0    0  0.99821349978E-02  0.61328528021E-02  0.55435633273E-01  0.56662381348E-01  0.51100000000E-03 0. -1.
</event>
<event>
 8    1  0.2943605E+004  0.1043930E+01  0.7957747E-01            NaN
         13   -1    0    0    0    0  0.00000000000E+00  0.00000000000E+00  0.74505805969E-08  0.10566000000E+00  0.10566000000E+00 0. -1.
     999900   -1    0    0    0    0 -0.00000000000E+00 -0.00000000000E+00 -0.74505805969E-08  0.93827000000E+00  0.93827000000E+00 0.  1.
     999902    2    1    2    0    0 -0.36698033037E-02  0.47432057337E-02 -0.83981938187E-02  0.10336103529E+01  0.10335588355E+01 0.  0.
     999903    2    3    3    0    0 -0.33410148748E-01  0.12237768877E+00 -0.53004040500E-01  0.14416555905E+00  0.43379065887E-01 0.  0.
         14    1    1    2    0    0  0.36698033037E-02 -0.47432057337E-02  0.83981938187E-02  0.10319647103E-01  0.00000000000E+00 0. -1.
     999901    1    3    3    0    0  0.29740345444E-01 -0.11763448304E+00  0.44605846682E-01  0.88944479385E+00  0.88000000000E+00 0. -1.
        -11    1    4    4    0    0 -0.15895496203E-01  0.18424760088E-01 -0.25427963714E-01  0.35199162539E-01  0.51100000000E-03 0.  1.
         11    1    4    4    0    0 -0.17514652545E-01  0.10395292869E+00 -0.27576076786E-01  0.10896639651E+00  0.51100000000E-03 0. -1.
</event>
<event>
 8    1  0.2943605E+004  0.1043930E+01  0.7957747E-01            NaN
         13   -1    0    0    0    0  0.00000000000E+00  0.00000000000E+00  0.74505805969E-08  0.10566000000E+00  0.10566000000E+00 0. -1.
     999900   -1    0    0    0    0 -0.00000000000E+00 -0.00000000000E+00 -0.74505805969E-08  0.93827000000E+00  0.93827000000E+00 0.  1.
     999902    2    1    2    0    0  0.11016676982E-01  0.58135000984E-02  0.74961370200E-02  0.10293919112E+01  0.10292892455E+01 0.  0.
     999903    2    3    3    0    0  0.32444045109E-01  0.44137541716E-01  0.12195200177E+00  0.14089429769E+00  0.44476665067E-01 0.  0.
         14    1    1    2    0    0 -0.11016676982E-01 -0.58135000984E-02 -0.74961370200E-02  0.14538088779E-01  0.00000000000E+00 0.  1.
     999901    1    3    3    0    0 -0.21427368127E-01 -0.38324041618E-01 -0.11445586475E+00  0.88849761353E+00  0.88000000000E+00 0.  1.
        -11    1    4    4    0    0  0.87093609417E-02  0.11153516634E-01  0.84341646128E-01  0.85522092431E-01  0.51100000000E-03 0.  1.
         11    1    4    4    0    0  0.23734684167E-01  0.32984025083E-01  0.37610355640E-01  0.55372205261E-01  0.51100000000E-03 0. -1.
</event>
<event>
 8    1  0.2943605E+004  0.1043930E+01  0.7957747E-01            NaN
         13   -1    0    0    0    0  0.00000000000E+00  0.00000000000E+00  0.74505805969E-08  0.10566000000E+00  0.10566000000E+00 0. -1.
     999900   -1    0    0    0    0 -0.00000000000E+00 -0.00000000000E+00 -0.74505805969E-08  0.93827000000E+00  0.93827000000E+00 0.  1.
     999902    2    1    2    0    0 -0.54681383281E-02 -0.12896859849E-01  0.52823220451E-03  0.10299118489E+01  0.10298164438E+01 0.  0.
     999903    2    3    3    0    0  0.13150942901E+00 -0.21624452407E-03 -0.81794751415E-02  0.13918210531E+00  0.44832777568E-01 0.  0.
         14    1    1    2    0    0  0.54681383281E-02  0.12896859849E-01 -0.52823220451E-03  0.14018151090E-01  0.00000000000E+00 0. -1.
     999901    1    3    3    0    0 -0.13697756734E+00 -0.12680615325E-01  0.87077073460E-02  0.89072974360E+00  0.88000000000E+00 0.  1.
        -11    1    4    4    0    0  0.38455423671E-01 -0.13112364682E-01  0.13410304866E-01  0.42788446044E-01  0.51100000000E-03 0. -1.
         11    1    4    4    0    0  0.93054005343E-01  0.12896120158E-01 -0.21589780007E-01  0.96393659269E-01  0.51100000000E-03 0.  1.
</event>
<event>
 8    1  0.2943605E+004  0.1043930E+01  0.7957747E-01            NaN
         13   -1    0    0    0    0  0.00000000000E+00  0.00000000000E+00  0.74505805969E-08  0.10566000000E+00  0.10566000000E+00 0. -1.
     999900   -1    0    0    0    0 -0.00000000000E+00 -0.00000000000E+00 -0.74505805969E-08  0.93827000000E+00  0.93827000000E+00 0. -1.
     999902    2    1    2    0    0  0.29773528498E-02 -0.12279196532E-01 -0.20939595059E-02  0.10311226598E+01  0.10310431182E+01 0.  0.
     999903    2    3    3    0    0 -0.73435520099E-01 -0.67889432148E-01  0.89203913927E-01  0.14136610477E+00  0.45003185549E-01 0.  0.
         14    1    1    2    0    0 -0.29773528498E-02  0.12279196532E-01  0.20939595059E-02  0.12807340234E-01  0.00000000000E+00 0.  1.
     999901    1    3    3    0    0  0.76412872949E-01  0.55610235616E-01 -0.91297873433E-01  0.88975655499E+00  0.88000000000E+00 0. -1.
        -11    1    4    4    0    0 -0.45842923601E-01 -0.34325798802E-01  0.22029555112E-01  0.61362826916E-01  0.51100000000E-03 0. -1.
         11    1    4    4    0    0 -0.27592596498E-01 -0.33563633346E-01  0.67174358815E-01  0.80003277858E-01  0.51100000000E-03 0.  1.
</event>
<event>
 8    1  0.2943605E+004  0.1043930E+01  0.7957747E-01            NaN
         13   -1    0    0    0    0  0.00000000000E+00  0.00000000000E+00  0.74505805969E-08  0.10566000000E+00  0.10566000000E+00 0. -1.
     999900   -1    0    0    0    0 -0.00000000000E+00 -0.00000000000E+00 -0.74505805969E-08  0.93827000000E+00  0.93827000000E+00 0.  1.
     999902    2    1    2    0    0  0.11545813526E-01  0.27377619073E-02 -0.58644331175E-02  0.10306939611E+01  0.10306089698E+01 0.  0.
     999903    2    3    3    0    0 -0.52541732701E-01 -0.10365672485E+00 -0.63251672590E-01  0.14012094575E+00  0.46127595542E-01 0.  0.
         14    1    1    2    0    0 -0.11545813526E-01 -0.27377619073E-02  0.58644331175E-02  0.13236038910E-01  0.00000000000E+00 0. -1.
     999901    1    3    3    0    0  0.64087546226E-01  0.10639448676E+00  0.57387239473E-01  0.89057301534E+00  0.88000000000E+00 0. -1.
        -11    1    4    4    0    0 -0.18436258128E-01 -0.60997188676E-01 -0.56353220115E-01  0.85067615333E-01  0.51100000000E-03 0.  1.
         11    1    4    4    0    0 -0.34105474572E-01 -0.42659536177E-01 -0.68984524756E-02  0.55053330419E-01  0.51100000000E-03 0. -1.
</event>
<event>
 8    1  0.2943605E+004  0.1043930E+01  0.7957747E-01            NaN
         13   -1    0    0    0    0  0.00000000000E+00  0.00000000000E+00  0.74505805969E-08  0.10566000000E+00  0.10566000000E+00 0. -1.
     999900   -1    0    0    0    0 -0.00000000000E+00 -0.00000000000E+00 -0.74505805969E-08  0.93827000000E+00  0.93827000000E+00 0. -1.
     999902    2    1    2    0    0 -0.95228853300E-02 -0.19583298713E-02  0.11685157099E-02  0.10341378690E+01  0.10340915077E+01 0.  0.
     999903    2    3    3    0    0 -0.74809889190E-01 -0.88279536746E-01 -0.72388529081E-01  0.14446130839E+00  0.47319914947E-01 0.  0.
         14    1    1    2    0    0  0.95228853300E-02  0.19583298713E-02 -0.11685157099E-02  0.97921310172E-02  0.00000000000E+00 0.  1.
     999901    1    3    3    0    0  0.65287003860E-01  0.86321206875E-01  0.73557044791E-01  0.88967656059E+00  0.88000000000E+00 0.  1.
        -11    1    4    4    0    0 -0.51600343090E-01 -0.70151764289E-01 -0.28551064055E-01  0.91647639466E-01  0.51100000000E-03 0.  1.
         11    1    4    4    0    0 -0.23209546100E-01 -0.18127772457E-01 -0.43837465026E-01  0.52813668925E-01  0.51100000000E-03 0. -1.
</event>
<event>
 8    1  0.2943605E+004  0.1043930E+01  0.7957747E-01            NaN
         13   -1    0    0    0    0  0.00000000000E+00  0.00000000000E+00  0.74505805969E-08  0.10566000000E+00  0.10566000000E+00 0.  1.
     999900   -1    0    0    0    0 -0.00000000000E+00 -0.00000000000E+00 -0.74505805969E-08  0.93827000000E+00  0.93827000000E+00 0.  1.
     999902    2    1    2    0    0  0.71371391137E-02 -0.11680212634E-01 -0.41754657497E-02  0.10296191427E+01  0.10295196834E+01 0.  0.
     999903    2    3    3    0    0  0.99129866218E-01  0.78333950155E-01 -0.40495665221E-01  0.13951557109E+00  0.43148088609E-01 0.  0.
         14    1    1    2    0    0 -0.71371391137E-02  0.11680212634E-01  0.41754657497E-02  0.14310857281E-01  0.00000000000E+00 0.  1.
     999901    1    3    3    0    0 -0.91992727104E-01 -0.90014162789E-01  0.36320199472E-01  0.89010357163E+00  0.88000000000E+00 0.  1.
        -11    1    4    4    0    0  0.78789884432E-01  0.63038870391E-01 -0.12498534517E-01  0.10167703553E+00  0.51100000000E-03 0. -1.
         11    1    4    4    0    0  0.20339981786E-01  0.15295079764E-01 -0.27997130705E-01  0.37838535552E-01  0.51100000000E-03 0.  1.
</event>
<event>
 8    1  0.2943605E+004  0.1043930E+01  0.7957747E-01            NaN
         13   -1    0    0    0    0  0.00000000000E+00  0.00000000000E+00  0.74505805969E-08  0.10566000000E+00  0.10566000000E+00 0.  1.
     999900   -1    0    0    0    0 -0.00000000000E+00 -0.00000000000E+00 -0.74505805969E-08  0.93827000000E+00  0.93827000000E+00 0.  1.
     999902    2    1    2    0    0 -0.14639851542E-01  0.33844683387E-04 -0.30909384425E-02  0.10289673699E+01  0.10288585753E+01 0.  0.
     999903    2    3    3    0    0 -0.53028090011E-01  0.16947339765E-01  0.11929345749E+00  0.13950817268E+00  0.46178031461E-01 0.  0.
         14    1    1    2    0    0  0.14639851542E-01 -0.33844683387E-04  0.30909384425E-02  0.14962630086E-01  0.00000000000E+00 0.  1.
     999901    1    3    3    0    0  0.38388238469E-01 -0.16913495081E-01 -0.12238439594E+00  0.88945919723E+00  0.88000000000E+00 0.  1.
        -11    1    4    4    0    0 -0.42577172362E-01 -0.66119674209E-02  0.52540964610E-01  0.67951069180E-01  0.51100000000E-03 0.  1.
         11    1    4    4    0    0 -0.10450917649E-01  0.23559307186E-01  0.66752492883E-01  0.71557103504E-01  0.51100000000E-03 0. -1.
</event>
<event>
 8    1  0.2943605E+004  0.1043930E+01  0.7957747E-01            NaN
         13   -1    0    0    0    0  0.00000000000E+00  0.00000000000E+00  0.74505805969E-08  0.10566000000E+00  0.10566000000E+00 0. -1.
     999900   -1    0    0    0    0 -0.00000000000E+00 -0.00000000000E+00 -0.74505805969E-08  0.93827000000E+00  0.93827000000E+00 0.  1.
     999902    2    1    2    0    0 -0.16642994822E-02 -0.12289502545E-01 -0.10807111139E-03  0.10315278451E+01  0.10314532863E+01 0.  0.
     999903    2    3    3    0    0  0.63371430121E-01  0.11554584213E+00 -0.80050599879E-02  0.13988111919E+00  0.46215438247E-01 0.  0.
         14    1    1    2    0    0  0.16642994822E-02  0.12289502545E-01  0.10807111139E-03  0.12402154850E-01  0.00000000000E+00 0. -1.
     999901    1    3    3    0    0 -0.65035729603E-01 -0.12783534468E+00  0.78969888765E-02  0.89164672596E+00  0.88000000000E+00 0. -1.
        -11    1    4    4    0    0  0.30580787878E-01  0.19780029192E-01  0.82827477244E-02  0.37353703604E-01  0.51100000000E-03 0.  1.
         11    1    4    4    0    0  0.32790642243E-01  0.95765812939E-01 -0.16287807712E-01  0.10252741559E+00  0.51100000000E-03 0. -1.
</event>
<event>
 8    1  0.2943605E+004  0.1043930E+01  0.7957747E-01            NaN
         13   -1    0    0    0    0  0.00000000000E+00  0.00000000000E+00  0.74505805969E-08  0.10566000000E+00  0.10566000000E+00 0.  1.
     999900   -1    0    0    0    0 -0.00000000000E+00 -0.00000000000E+00 -0.74505805969E-08  0.93827000000E+00  0.93827000000E+00 0. -1.
     999902    2    1    2    0    0  0.10992644565E-02  0.11561135131E-01  0.82012440039E-02  0.10297128051E+01  0.10296146524E+01 0.  0.
     999903    2    3    3    0    0 -0.12220642171E+00 -0.26378687887E-01 -0.40692733759E-01  0.13896348936E+00  0.44996756704E-01 0.  0.
         14    1    1    2    0    0 -0.10992644565E-02 -0.11561135131E-01 -0.82012440039E-02  0.14217194909E-01  0.00000000000E+00 0. -1.
     999901    1    3    3    0    0  0.12330568616E+00  0.37939823018E-01  0.48893977763E-01  0.89074931573E+00  0.88000000000E+00 0.  1.
        -11    1    4    4    0    0 -0.39147086310E-01 -0.17606152192E-01  0.58890294142E-02  0.43329121269E-01  0.51100000000E-03 0. -1.
         11    1    4    4    0    0 -0.83059335397E-01 -0.87725356948E-02 -0.46581763174E-01  0.95634368093E-01  0.51100000000E-03 0.  1.
</event>
<event>
 8    1  0.2943605E+004  0.1043930E+01  0.7957747E-01            NaN
         13   -1    0    0    0    0  0.00000000000E+00  0.00000000000E+00  0.74505805969E-08  0.10566000000E+00  0.10566000000E+00 0.  1.
     999900   -1    0    0    0    0 -0.00000000000E+00 -0.00000000000E+00 -0.74505805969E-08  0.93827000000E+00  0.93827000000E+00 0.  1.
     999902    2    1    2    0    0  0.10553682136E-01  0.56209553822E-02  0.86140607867E-02  0.10291930604E+01  0.10290875464E+01 0.  0.
     999903    2    3    3    0    0 -0.11166587763E+00  0.52435202532E-01 -0.43028301981E-01  0.13801623833E+00  0.44478405797E-01 0.  0.
         14    1    1    2    0    0 -0.10553682136E-01 -0.56209553822E-02 -0.86140607867E-02  0.14736939617E-01  0.00000000000E+00 0. -1.
     999901    1    3    3    0    0  0.12221955976E+00 -0.46814247149E-01  0.51642362768E-01  0.89117682205E+00  0.88000000000E+00 0. -1.
        -11    1    4    4    0    0 -0.79535966392E-01  0.28877894628E-01 -0.80546434926E-02  0.85000242064E-01  0.51100000000E-03 0. -1.
         11    1    4    4    0    0 -0.32129911233E-01  0.23557307904E-01 -0.34973658489E-01  0.53015996271E-01  0.51100000000E-03 0.  1.
</event>
<event>
 8    1  0.2943605E+004  0.1043930E+01  0.7957747E-01            NaN
         13   -1    0    0    0    0  0.00000000000E+00  0.00000000000E+00  0.74505805969E-08  0.10566000000E+00  0.10566000000E+00 0.  1.
     999900   -1    0    0    0    0 -0.00000000000E+00 -0.00000000000E+00 -0.74505805969E-08  0.93827000000E+00  0.93827000000E+00 0. -1.
     999902    2    1    2    0    0  0.63421300656E-02  0.99178836036E-02  0.62852687029E-02  0.10305849023E+01  0.10304984955E+01 0.  0.
     999903    2    3    3    0    0 -0.23046768389E-01 -0.98935358647E-01  0.84991069971E-01  0.13990688035E+00  0.45067665462E-01 0.  0.
         14    1    1    2    0    0 -0.63421300656E-02 -0.99178836036E-02 -0.62852687029E-02  0.13345097662E-01  0.00000000000E+00 0.  1.
     999901    1    3    3    0    0  0.29388898455E-01  0.10885324225E+00 -0.78705801268E-01  0.89067802199E+00  0.88000000000E+00 0.  1.
        -11    1    4    4    0    0  0.12513584388E-01 -0.42323605554E-01  0.37244708407E-01  0.57752115171E-01  0.51100000000E-03 0. -1.
         11    1    4    4    0    0 -0.35560352777E-01 -0.56611753093E-01  0.47746361564E-01  0.82154765178E-01  0.51100000000E-03 0.  1.
</event>
<event>
 8    1  0.2943605E+004  0.1043930E+01  0.7957747E-01            NaN
         13   -1    0    0    0    0  0.00000000000E+00  0.00000000000E+00  0.74505805969E-08  0.10566000000E+00  0.10566000000E+00 0.  1.
     999900   -1    0    0    0    0 -0.00000000000E+00 -0.00000000000E+00 -0.74505805969E-08  0.93827000000E+00  0.93827000000E+00 0. -1.
     999902    2    1    2    0    0  0.84653007198E-04  0.40703943425E-02 -0.13491275473E-01  0.10298378110E+01  0.10297413885E+01 0.  0.
     999903    2    3    3    0    0 -0.10319633624E+00  0.82152727172E-01  0.11686463041E-01  0.14000764073E+00  0.45464399805E-01 0.  0.
         14    1    1    2    0    0 -0.84653007198E-04 -0.40703943425E-02  0.13491275473E-01  0.14092188976E-01  0.00000000000E+00 0.  1.
     999901    1    3    3    0    0  0.10328098925E+00 -0.78082332829E-01 -0.25177738514E-01  0.88983017029E+00  0.88000000000E+00 0.  1.
        -11    1    4    4    0    0 -0.21205529378E-01  0.41119498765E-01 -0.59206351208E-02  0.46645500277E-01  0.51100000000E-03 0.  1.
         11    1    4    4    0    0 -0.81990806867E-01  0.41033228407E-01  0.17607098162E-01  0.93362140458E-01  0.51100000000E-03 0. -1.
</event>
<event>
 8    1  0.2943605E+004  0.1043930E+01  0.7957747E-01            NaN
         13   -1    0    0    0    0  0.00000000000E+00  0.00000000000E+00  0.74505805969E-08  0.10566000000E+00  0.10566000000E+00 0.  1.
     999900   -1    0    0    0    0 -0.00000000000E+00 -0.00000000000E+00 -0.74505805969E-08  0.93827000000E+00  0.93827000000E+00 0. -1.
     999902    2    1    2    0    0 -0.12042053433E-01 -0.61081234466E-02 -0.78484539195E-03  0.10304046089E+01  0.10303158359E+01 0.  0.
     999903    2    3    3    0    0  0.58831451443E-01 -0.58725093821E-01 -0.10411943067E+00  0.13997233420E+00  0.42914125582E-01 0.  0.
         14    1    1    2    0    0  0.12042053433E-01  0.61081234466E-02  0.78484539195E-03  0.13525391130E-01  0.00000000000E+00 0.  1.
     999901    1    3    3    0    0 -0.70873504877E-01  0.52616970374E-01  0.10333458528E+00  0.89043227467E+00  0.88000000000E+00 0.  1.
        -11    1    4    4    0    0  0.28103935079E-01 -0.59064167234E-02 -0.53079669766E-01  0.60352542523E-01  0.51100000000E-03 0. -1.
         11    1    4    4    0    0  0.30727516364E-01 -0.52818677097E-01 -0.51039760903E-01  0.79619791674E-01  0.51100000000E-03 0.  1.
</event>
<event>
 8    1  0.2943605E+004  0.1043930E+01  0.7957747E-01            NaN
         13   -1    0    0    0    0  0.00000000000E+00  0.00000000000E+00  0.74505805969E-08  0.10566000000E+00  0.10566000000E+00 0.  1.
     999900   -1    0    0    0    0 -0.00000000000E+00 -0.00000000000E+00 -0.74505805969E-08  0.93827000000E+00  0.93827000000E+00 0. -1.
     999902    2    1    2    0    0 -0.42355339451E-02  0.11856451245E-01 -0.47034175642E-02  0.10304898616E+01  0.10304022115E+01 0.  0.
     999903    2    3    3    0    0  0.38651937255E-01 -0.12185083935E+00 -0.29568899031E-01  0.13901060388E+00  0.45913275828E-01 0.  0.
         14    1    1    2    0    0  0.42355339451E-02 -0.11856451245E-01  0.47034175642E-02  0.13440138418E-01  0.00000000000E+00 0.  1.
     999901    1    3    3    0    0 -0.42887471200E-01  0.13370729060E+00  0.24865481466E-01  0.89147925770E+00  0.88000000000E+00 0. -1.
        -11    1    4    4    0    0  0.69717617163E-02 -0.10927530593E-01 -0.19219346117E-01  0.23187513288E-01  0.51100000000E-03 0. -1.
         11    1    4    4    0    0  0.31680175538E-01 -0.11092330876E+00 -0.10349552913E-01  0.11582309059E+00  0.51100000000E-03 0.  1.
</event>
<event>
 8    1  0.2943605E+004  0.1043930E+01  0.7957747E-01            NaN
         13   -1    0    0    0    0  0.00000000000E+00  0.00000000000E+00  0.74505805969E-08  0.10566000000E+00  0.10566000000E+00 0.  1.
     999900   -1    0    0    0    0 -0.00000000000E+00 -0.00000000000E+00 -0.74505805969E-08  0.93827000000E+00  0.93827000000E+00 0.  1.
     999902    2    1    2    0    0 -0.13322824103E-01 -0.20591810722E-02  0.44094606411E-03  0.10304417717E+01  0.10303534891E+01 0.  0.
     999903    2    3    3    0    0 -0.43901987471E-01 -0.11110543918E+00 -0.59657734055E-01  0.14115103018E+00  0.45746748157E-01 0.  0.
         14    1    1    2    0    0  0.13322824103E-01  0.20591810722E-02 -0.44094606411E-03  0.13488228282E-01  0.00000000000E+00 0.  1.
     999901    1    3    3    0    0  0.30579163368E-01  0.10904625811E+00  0.60098680119E-01  0.88929074154E+00  0.88000000000E+00 0. -1.
        -11    1    4    4    0    0 -0.31738046177E-01 -0.10018934787E+00 -0.33508355401E-01  0.11030992704E+00  0.51100000000E-03 0. -1.
         11    1    4    4    0    0 -0.12163941294E-01 -0.10916091314E-01 -0.26149378654E-01  0.30841103132E-01  0.51100000000E-03 0.  1.
</event>
<event>
 8    1  0.2943605E+004  0.1043930E+01  0.7957747E-01            NaN
         13   -1    0    0    0    0  0.00000000000E+00  0.00000000000E+00  0.74505805969E-08  0.10566000000E+00  0.10566000000E+00 0. -1.
     999900   -1    0    0    0    0 -0.00000000000E+00 -0.00000000000E+00 -0.74505805969E-08  0.93827000000E+00  0.93827000000E+00 0.  1.
     999902    2    1    2    0    0 -0.75063322216E-02 -0.12182880982E-01 -0.11843303873E-02  0.10295713702E+01  0.10294712410E+01 0.  0.
     999903    2    3    3    0    0 -0.43666292665E-01  0.76094062610E-01  0.97575139364E-01  0.13892340695E+00  0.45626239118E-01 0.  0.
         14    1    1    2    0    0  0.75063322216E-02  0.12182880982E-01  0.11843303873E-02  0.14358629841E-01  0.00000000000E+00 0. -1.
     999901    1    3    3    0    0  0.36159960443E-01 -0.88276943592E-01 -0.98759469751E-01  0.89064796321E+00  0.88000000000E+00 0. -1.
        -11    1    4    4    0    0 -0.45282011769E-01  0.51253078523E-01  0.48343830222E-01  0.83753959246E-01  0.51100000000E-03 0.  1.
         11    1    4    4    0    0  0.16157191045E-02  0.24840984087E-01  0.49231309142E-01  0.55169447700E-01  0.51100000000E-03 0. -1.
</event>
<event>
 8    1  0.2943605E+004  0.1043930E+01  0.7957747E-01            NaN
         13   -1    0    0    0    0  0.00000000000E+00  0.00000000000E+00  0.74505805969E-08  0.10566000000E+00  0.10566000000E+00 0.  1.
     999900   -1    0    0    0    0 -0.00000000000E+00 -0.00000000000E+00 -0.74505805969E-08  0.93827000000E+00  0.93827000000E+00 0. -1.
     999902    2    1    2    0    0  0.91189623476E-02 -0.13191401066E-01  0.12610251562E-04  0.10278935199E+01  0.10277684172E+01 0.  0.
     999903    2    3    3    0    0  0.11834875343E+00  0.35378726262E-01 -0.51070718779E-01  0.13834323402E+00  0.35672824010E-01 0.  0.
         14    1    1    2    0    0 -0.91189623476E-02  0.13191401066E-01 -0.12610251562E-04  0.16036480144E-01  0.00000000000E+00 0.  1.
     999901    1    3    3    0    0 -0.10922979108E+00 -0.48570127328E-01  0.51083329031E-01  0.88955028584E+00  0.88000000000E+00 0.  1.
        -11    1    4    4    0    0  0.70698982712E-01  0.30265744493E-02 -0.24226202482E-01  0.74797568925E-01  0.51100000000E-03 0. -1.
         11    1    4    4    0    0  0.47649770714E-01  0.32352151813E-01 -0.26844516297E-01  0.63545665094E-01  0.51100000000E-03 0.  1.
</event>
<event>
 8    1  0.2943605E+004  0.1043930E+01  0.7957747E-01            NaN
         13   -1    0    0    0    0  0.00000000000E+00  0.00000000000E+00  0.74505805969E-08  0.10566000000E+00  0.10566000000E+00 0. -1.
     999900   -1    0    0    0    0 -0.00000000000E+00 -0.00000000000E+00 -0.74505805969E-08  0.93827000000E+00  0.93827000000E+00 0. -1.
     999902    2    1    2    0    0 -0.12804801745E-01 -0.17691685516E-02 -0.36941982426E-02  0.10304860420E+01  0.10303983418E+01 0.  0.
     999903    2    3    3    0    0 -0.99597457824E-01  0.77891820859E-02  0.89284683911E-01  0.14129011326E+00  0.44842127100E-01 0.  0.
         14    1    1    2    0    0  0.12804801745E-01  0.17691685516E-02  0.36941982426E-02  0.13443957964E-01  0.00000000000E+00 0.  1.
     999901    1    3    3    0    0  0.86792656079E-01 -0.95583506375E-02 -0.92978882153E-01  0.88919592877E+00  0.88000000000E+00 0. -1.
        -11    1    4    4    0    0 -0.28699578239E-01 -0.15585202157E-01  0.40844077498E-01  0.52297840348E-01  0.51100000000E-03 0. -1.
         11    1    4    4    0    0 -0.70897879585E-01  0.23374384243E-01  0.48440606413E-01  0.88992272917E-01  0.51100000000E-03 0.  1.
</event>
<event>
 8    1  0.2943605E+004  0.1043930E+01  0.7957747E-01            NaN
         13   -1    0    0    0    0  0.00000000000E+00  0.00000000000E+00  0.74505805969E-08  0.10566000000E+00  0.10566000000E+00 0.  1.
     999900   -1    0    0    0    0 -0.00000000000E+00 -0.00000000000E+00 -0.74505805969E-08  0.93827000000E+00  0.93827000000E+00 0. -1.
     999902    2    1    2    0    0 -0.14021768642E-01 -0.18733723470E-02 -0.20574584506E-02  0.10296348031E+01  0.10295355628E+01 0.  0.
     999903    2    3    3    0    0  0.59329578288E-01  0.76886381232E-01  0.86550423982E-01  0.13866068689E+00  0.48003080312E-01 0.  0.
         14    1    1    2    0    0  0.14021768642E-01  0.18733723470E-02  0.20574584506E-02  0.14295196923E-01  0.00000000000E+00 0.  1.
     999901    1    3    3    0    0 -0.73351346930E-01 -0.78759753579E-01 -0.88607882432E-01  0.89097411618E+00  0.88000000000E+00 0. -1.
        -11    1    4    4    0    0 -0.39714884868E-02  0.24566189121E-01  0.29834535945E-01  0.38853970515E-01  0.51100000000E-03 0. -1.
         11    1    4    4    0    0  0.63301066775E-01  0.52320192112E-01  0.56715888037E-01  0.99806716379E-01  0.51100000000E-03 0.  1.
</event>
<event>
 8    1  0.2943605E+004  0.1043930E+01  0.7957747E-01            NaN
         13   -1    0    0    0    0  0.00000000000E+00  0.00000000000E+00  0.74505805969E-08  0.10566000000E+00  0.10566000000E+00 0.  1.
     999900   -1    0    0    0    0 -0.00000000000E+00 -0.00000000000E+00 -0.74505805969E-08  0.93827000000E+00  0.93827000000E+00 0. -1.
     999902    2    1    2    0    0  0.13262746701E-01  0.60620399283E-03  0.12072221108E-02  0.10305986340E+01  0.10305124061E+01 0.  0.
     999903    2    3    3    0    0  0.81384338295E-01  0.33583197507E-02  0.10857193756E+00  0.14145561544E+00  0.39838884057E-01 0.  0.
         14    1    1    2    0    0 -0.13262746701E-01 -0.60620399283E-03 -0.12072221108E-02  0.13331365968E-01  0.00000000000E+00 0.  1.
     999901    1    3    3    0    0 -0.68121591593E-01 -0.27521157578E-02 -0.10736471545E+00  0.88914301859E+00  0.88000000000E+00 0. -1.
        -11    1    4    4    0    0  0.71139458372E-01  0.70129765546E-02  0.65254867161E-01  0.96790821811E-01  0.51100000000E-03 0.  1.
         11    1    4    4    0    0  0.10244879923E-01 -0.36546568040E-02  0.43317070402E-01  0.44664793632E-01  0.51100000000E-03 0. -1.
</event>
<event>
 8    1  0.2943605E+004  0.1043930E+01  0.7957747E-01            NaN
         13   -1    0    0    0    0  0.00000000000E+00  0.00000000000E+00  0.74505805969E-08  0.10566000000E+00  0.10566000000E+00 0.  1.
     999900   -1    0    0    0    0 -0.00000000000E+00 -0.00000000000E+00 -0.74505805969E-08  0.93827000000E+00  0.93827000000E+00 0.  1.
     999902    2    1    2    0    0  0.66535708409E-02  0.76914225399E-02  0.99344419223E-02  0.10297130692E+01  0.10296149201E+01 0.  0.
     999903    2    3    3    0    0  0.60432800560E-01  0.13962882012E-01  0.11911818792E+00  0.14131415701E+00  0.43971158953E-01 0.  0.
         14    1    1    2    0    0 -0.66535708409E-02 -0.76914225399E-02 -0.99344419223E-02  0.14216930820E-01  0.00000000000E+00 0. -1.
     999901    1    3    3    0    0 -0.53779229719E-01 -0.62714594726E-02 -0.10918374600E+00  0.88839891217E+00  0.88000000000E+00 0.  1.
        -11    1    4    4    0    0  0.29444384535E-01  0.49198535367E-02  0.17315316547E-01  0.34514606293E-01  0.51100000000E-03 0.  1.
         11    1    4    4    0    0  0.30988416025E-01  0.90430284757E-02  0.10180287138E+00  0.10679955072E+00  0.51100000000E-03 0. -1.
</event>
<event>
 8    1  0.2943605E+004  0.1043930E+01  0.7957747E-01            NaN
         13   -1    0    0    0    0  0.00000000000E+00  0.00000000000E+00  0.74505805969E-08  0.10566000000E+00  0.10566000000E+00 0. -1.
     999900   -1    0    0    0    0 -0.00000000000E+00 -0.00000000000E+00 -0.74505805969E-08  0.93827000000E+00  0.93827000000E+00 0. -1.
     999902    2    1    2    0    0  0.85900899470E-02  0.12709249962E-01  0.27861035934E-02  0.10283390714E+01  0.10282208755E+01 0.  0.
     999903    2    3    3    0    0  0.13039468845E+00  0.17705183022E-01  0.14054041658E-01  0.13986381237E+00  0.45256177932E-01 0.  0.
         14    1    1    2    0    0 -0.85900899470E-02 -0.12709249962E-01 -0.27861035934E-02  0.15590928553E-01  0.00000000000E+00 0. -1.
     999901    1    3    3    0    0 -0.12180459851E+00 -0.49959330602E-02 -0.11267938064E-01  0.88847525908E+00  0.88000000000E+00 0. -1.
        -11    1    4    4    0    0  0.95911113790E-01 -0.50242057264E-02 -0.57550754474E-03  0.96045701214E-01  0.51100000000E-03 0.  1.
         11    1    4    4    0    0  0.34483574663E-01  0.22729388749E-01  0.14629549202E-01  0.43818111156E-01  0.51100000000E-03 0. -1.
</event>
<event>
 8    1  0.2943605E+004  0.1043930E+01  0.7957747E-01            NaN
         13   -1    0    0    0    0  0.00000000000E+00  0.00000000000E+00  0.74505805969E-08  0.10566000000E+00  0.10566000000E+00 0.  1.
     999900   -1    0    0    0    0 -0.00000000000E+00 -0.00000000000E+00 -0.74505805969E-08  0.93827000000E+00  0.93827000000E+00 0.  1.
     999902    2    1    2    0    0  0.41714703701E-02  0.45383464274E-02  0.12169531426E-01  0.10302883268E+01  0.10301980106E+01 0.  0.
     999903    2    3    3    0    0 -0.45049367353E-01  0.97423823589E-03  0.12638043251E+00  0.14153666086E+00  0.45057940551E-01 0.  0.
         14    1    1    2    0    0 -0.41714703701E-02 -0.45383464274E-02 -0.12169531426E-01  0.13641673228E-01  0.00000000000E+00 0. -1.
     999901    1    3    3    0    0  0.49220837724E-01  0.35641081915E-02 -0.11421090109E+00  0.88875166591E+00  0.88000000000E+00 0.  1.
        -11    1    4    4    0    0 -0.54414742666E-02 -0.18070200934E-01  0.49527646698E-01  0.53003685838E-01  0.51100000000E-03 0. -1.
         11    1    4    4    0    0 -0.39607893087E-01  0.19044439170E-01  0.76852785813E-01  0.88532975022E-01  0.51100000000E-03 0.  1.
</event>
<event>
 8    1  0.2943605E+004  0.1043930E+01  0.7957747E-01            NaN
         13   -1    0    0    0    0  0.00000000000E+00  0.00000000000E+00  0.74505805969E-08  0.10566000000E+00  0.10566000000E+00 0.  1.
     999900   -1    0    0    0    0 -0.00000000000E+00 -0.00000000000E+00 -0.74505805969E-08  0.93827000000E+00  0.93827000000E+00 0. -1.
     999902    2    1    2    0    0  0.49532199778E-02 -0.25556465156E-02 -0.12111475953E-01  0.10305975746E+01  0.10305113329E+01 0.  0.
     999903    2    3    3    0    0 -0.11244194842E+00  0.61474792162E-01 -0.33553073433E-01  0.14023738639E+00  0.46025796793E-01 0.  0.
         14    1    1    2    0    0 -0.49532199778E-02  0.25556465156E-02  0.12111475953E-01  0.13332425399E-01  0.00000000000E+00 0.  1.
     999901    1    3    3    0    0  0.11739516840E+00 -0.64030438678E-01  0.21441597480E-01  0.89036018821E+00  0.88000000000E+00 0.  1.
        -11    1    4    4    0    0 -0.54675999849E-01  0.17000937541E-01 -0.35381509537E-01  0.67309799991E-01  0.51100000000E-03 0.  1.
         11    1    4    4    0    0 -0.57765948570E-01  0.44473854621E-01  0.18284361038E-02  0.72927586403E-01  0.51100000000E-03 0. -1.
</event>
<event>
 8    1  0.2943605E+004  0.1043930E+01  0.7957747E-01            NaN
         13   -1    0    0    0    0  0.00000000000E+00  0.00000000000E+00  0.74505805969E-08  0.10566000000E+00  0.10566000000E+00 0. -1.
     999900   -1    0    0    0    0 -0.00000000000E+00 -0.00000000000E+00 -0.74505805969E-08  0.93827000000E+00  0.93827000000E+00 0. -1.
     999902    2    1    2    0    0 -0.43088140027E-02 -0.84486615540E-02  0.97076905549E-02  0.10303585220E+01  0.10302691390E+01 0.  0.
     999903    2    3    3    0    0  0.12772451271E+00  0.34830173502E-01  0.64118042451E-02  0.13945071540E+00  0.43343957593E-01 0.  0.
         14    1    1    2    0    0  0.43088140027E-02  0.84486615540E-02 -0.97076905549E-02  0.13571478036E-01  0.00000000000E+00 0.  1.
     999901    1    3    3    0    0 -0.13203332671E+00 -0.43278835056E-01  0.32958863098E-02  0.89090780656E+00  0.88000000000E+00 0. -1.
        -11    1    4    4    0    0  0.80887303891E-01  0.41873371978E-01  0.11517126857E-01  0.91809806359E-01  0.51100000000E-03 0.  1.
         11    1    4    4    0    0  0.46837208817E-01 -0.70431984758E-02 -0.51053226118E-02  0.47640909044E-01  0.51100000000E-03 0. -1.
</event>
<event>
 8    1  0.2943605E+004  0.1043930E+01  0.7957747E-01            NaN
         13   -1    0    0    0    0  0.00000000000E+00  0.00000000000E+00  0.74505805969E-08  0.10566000000E+00  0.10566000000E+00 0. -1.
     999900   -1    0    0    0    0 -0.00000000000E+00 -0.00000000000E+00 -0.74505805969E-08  0.93827000000E+00  0.93827000000E+00 0. -1.
     999902    2    1    2    0    0 -0.68664455125E-02  0.29923594686E-02  0.74755256882E-02  0.10333476669E+01  0.10332934796E+01 0.  0.
     999903    2    3    3    0    0  0.79645587345E-01 -0.97404770400E-01 -0.46641154994E-01  0.14178020977E+00  0.45772498985E-01 0.  0.
         14    1    1    2    0    0  0.68664455125E-02 -0.29923594686E-02 -0.74755256882E-02  0.10582333083E-01  0.00000000000E+00 0. -1.
     999901    1    3    3    0    0 -0.86512032857E-01  0.10039712987E+00  0.54116680682E-01  0.89156745715E+00  0.88000000000E+00 0.  1.
        -11    1    4    4    0    0  0.40366415471E-01 -0.15988972703E-01 -0.17304653590E-01  0.46741918049E-01  0.51100000000E-03 0.  1.
         11    1    4    4    0    0  0.39279171874E-01 -0.81415797696E-01 -0.29336501404E-01  0.95038291721E-01  0.51100000000E-03 0. -1.
</event>
<event>
 8    1  0.2943605E+004  0.1043930E+01  0.7957747E-01            NaN
         13   -1    0    0    0    0  0.00000000000E+00  0.00000000000E+00  0.74505805969E-08  0.10566000000E+00  0.10566000000E+00 0. -1.
     999900   -1    0    0    0    0 -0.00000000000E+00 -0.00000000000E+00 -0.74505805969E-08  0.93827000000E+00  0.93827000000E+00 0.  1.
     999902    2    1    2    0    0 -0.28415363241E-02  0.11477788951E-01 -0.62364534351E-02  0.10305618543E+01  0.10304751468E+01 0.  0.
     999903    2    3    3    0    0 -0.20087430107E-01 -0.70888879593E-01  0.10913647510E+00  0.13905044014E+00  0.44671205589E-01 0.  0.
         14    1    1    2    0    0  0.28415363241E-02 -0.11477788951E-01  0.62364534351E-02  0.13368145696E-01  0.00000000000E+00 0.  1.
     999901    1    3    3    0    0  0.17245893783E-01  0.82366668544E-01 -0.11537292854E+00  0.89151141416E+00  0.88000000000E+00 0.  1.
        -11    1    4    4    0    0 -0.41972361737E-02 -0.23865562383E-01  0.65826798129E-02  0.25115227530E-01  0.51100000000E-03 0.  1.
         11    1    4    4    0    0 -0.15890193933E-01 -0.47023317209E-01  0.10255379529E+00  0.11393521261E+00  0.51100000000E-03 0. -1.
</event>
<event>
 8    1  0.2943605E+004  0.1043930E+01  0.7957747E-01            NaN
         13   -1    0    0    0    0  0.00000000000E+00  0.00000000000E+00  0.74505805969E-08  0.10566000000E+00  0.10566000000E+00 0. -1.
     999900   -1    0    0    0    0 -0.00000000000E+00 -0.00000000000E+00 -0.74505805969E-08  0.93827000000E+00  0.93827000000E+00 0.  1.
     999902    2    1    2    0    0 -0.84480246961E-02  0.12421476620E-01 -0.54314843585E-03  0.10288981268E+01  0.10287883155E+01 0.  0.
     999903    2    3    3    0    0  0.35248854857E-01  0.50137153594E-01 -0.11695433619E+00  0.13935697864E+00  0.44562706421E-01 0.  0.
         14    1    1    2    0    0  0.84480246961E-02 -0.12421476620E-01  0.54314843585E-03  0.15031873234E-01  0.00000000000E+00 0. -1.
     999901    1    3    3    0    0 -0.43696879554E-01 -0.37715676974E-01  0.11641118775E+00  0.88954114812E+00  0.88000000000E+00 0. -1.
        -11    1    4    4    0    0  0.28786186465E-02  0.42245514168E-01 -0.61747159215E-01  0.74872843573E-01  0.51100000000E-03 0. -1.
         11    1    4    4    0    0  0.32370236211E-01  0.78916394269E-02 -0.55207176974E-01  0.64484135069E-01  0.51100000000E-03 0.  1.
</event>
<event>
 8    1  0.2943605E+004  0.1043930E+01  0.7957747E-01            NaN
         13   -1    0    0    0    0  0.00000000000E+00  0.00000000000E+00  0.74505805969E-08  0.10566000000E+00  0.10566000000E+00 0. -1.
     999900   -1    0    0    0    0 -0.00000000000E+00 -0.00000000000E+00 -0.74505805969E-08  0.93827000000E+00  0.93827000000E+00 0.  1.
     999902    2    1    2    0    0 -0.82118984031E-02 -0.37887718472E-02 -0.10456922369E-01  0.10301047588E+01  0.10300119790E+01 0.  0.
     999903    2    3    3    0    0  0.13690016556E-01 -0.85848840018E-01 -0.10207915121E+00  0.14128071468E+00  0.44526928308E-01 0.  0.
         14    1    1    2    0    0  0.82118984031E-02  0.37887718472E-02  0.10456922369E-01  0.13825241153E-01  0.00000000000E+00 0. -1.
     999901    1    3    3    0    0 -0.21901914959E-01  0.82060068170E-01  0.91622228838E-01  0.88882404416E+00  0.88000000000E+00 0. -1.
        -11    1    4    4    0    0  0.22831915376E-01 -0.31754272565E-01 -0.24125154493E-01  0.45955569697E-01  0.51100000000E-03 0.  1.
         11    1    4    4    0    0 -0.91418988199E-02 -0.54094567452E-01 -0.77953996714E-01  0.95325144986E-01  0.51100000000E-03 0. -1.
</event>
<event>
 8    1  0.2943605E+004  0.1043930E+01  0.7957747E-01            NaN
         13   -1    0    0    0    0  0.00000000000E+00  0.00000000000E+00  0.74505805969E-08  0.10566000000E+00  0.10566000000E+00 0.  1.
     999900   -1    0    0    0    0 -0.00000000000E+00 -0.00000000000E+00 -0.74505805969E-08  0.93827000000E+00  0.93827000000E+00 0.  1.
     999902    2    1    2    0    0  0.52604732535E-02  0.24214760004E-02  0.10486282767E-01  0.10319509244E+01  0.10318813945E+01 0.  0.
     999903    2    3    3    0    0 -0.52357919365E-01  0.23217938366E-01 -0.11989855670E+00  0.14023764184E+00  0.44838687624E-01 0.  0.
         14    1    1    2    0    0 -0.52604732535E-02 -0.24214760004E-02 -0.10486282767E-01  0.11979075555E-01  0.00000000000E+00 0. -1.
     999901    1    3    3    0    0  0.57618392619E-01 -0.20796462366E-01  0.13038483947E+00  0.89171328261E+00  0.88000000000E+00 0. -1.
        -11    1    4    4    0    0 -0.39577824981E-01  0.30909423870E-02 -0.38069743712E-01  0.55004769451E-01  0.51100000000E-03 0. -1.
         11    1    4    4    0    0 -0.12780094384E-01  0.20126995979E-01 -0.81828812987E-01  0.85232872388E-01  0.51100000000E-03 0.  1.
</event>
<event>
 8    1  0.2943605E+004  0.1043930E+01  0.7957747E-01            NaN
         13   -1    0    0    0    0  0.00000000000E+00  0.00000000000E+00  0.74505805969E-08  0.10566000000E+00  0.10566000000E+00 0. -1.
     999900   -1    0    0    0    0 -0.00000000000E+00 -0.00000000000E+00 -0.74505805969E-08  0.93827000000E+00  0.93827000000E+00 0.  1.
     999902    2    1    2    0    0  0.89804961848E-03  0.14445838379E-01 -0.98613200047E-03  0.10294227192E+01  0.10293204912E+01 0.  0.
     999903    2    3    3    0    0  0.89757027706E-01  0.96098148273E-01 -0.19943442253E-01  0.14098454055E+00  0.46773086916E-01 0.  0.
         14    1    1    2    0    0 -0.89804961848E-03 -0.14445838379E-01  0.98613200047E-03  0.14507280790E-01  0.00000000000E+00 0.  1.
     999901    1    3    3    0    0 -0.88858978088E-01 -0.81652309894E-01  0.18957310252E-01  0.88843817867E+00  0.88000000000E+00 0.  1.
        -11    1    4    4    0    0  0.56827548002E-01  0.78092547494E-01  0.36501231277E-02  0.96650921909E-01  0.51100000000E-03 0.  1.
         11    1    4    4    0    0  0.32929479704E-01  0.18005600779E-01 -0.23593565380E-01  0.44333618636E-01  0.51100000000E-03 0. -1.
</event>
<event>
 8    1  0.2943605E+004  0.1043930E+01  0.7957747E-01            NaN
         13   -1    0    0    0    0  0.00000000000E+00  0.00000000000E+00  0.74505805969E-08  0.10566000000E+00  0.10566000000E+00 0. -1.
     999900   -1    0    0    0    0 -0.00000000000E+00 -0.00000000000E+00 -0.74505805969E-08  0.93827000000E+00  0.93827000000E+00 0.  1.
     999902    2    1    2    0    0 -0.19744785061E-02 -0.80263999975E-02  0.10546995687E-01  0.10305299709E+01  0.10304428466E+01 0.  0.
     999903    2    3    3    0    0  0.98580184087E-01 -0.86825073285E-01  0.25264236785E-01  0.14118354329E+00  0.45142720246E-01 0.  0.
         14    1    1    2    0    0  0.19744785061E-02  0.80263999975E-02 -0.10546995687E-01  0.13400029116E-01  0.00000000000E+00 0. -1.
     999901    1    3    3    0    0 -0.10055466259E+00  0.78798673287E-01 -0.14717241098E-01  0.88934642759E+00  0.88000000000E+00 0.  1.
        -11    1    4    4    0    0  0.52107257276E-01 -0.67612844254E-01  0.10558389646E-02  0.85370011631E-01  0.51100000000E-03 0.  1.
         11    1    4    4    0    0  0.46472926811E-01 -0.19212229031E-01  0.24208397821E-01  0.55813531663E-01  0.51100000000E-03 0. -1.
</event>
<event>
 8    1  0.2943605E+004  0.1043930E+01  0.7957747E-01            NaN
         13   -1    0    0    0    0  0.00000000000E+00  0.00000000000E+00  0.74505805969E-08  0.10566000000E+00  0.10566000000E+00 0.  1.
     999900   -1    0    0    0    0 -0.00000000000E+00 -0.00000000000E+00 -0.74505805969E-08  0.93827000000E+00  0.93827000000E+00 0.  1.
     999902    2    1    2    0    0 -0.53407173903E-02  0.80774846647E-02  0.94329790939E-02  0.10304114899E+01  0.10303228079E+01 0.  0.
     999903    2    3    3    0    0  0.11518375064E+00  0.64737226734E-01  0.13534374265E-01  0.14038154928E+00  0.45448819058E-01 0.  0.
         14    1    1    2    0    0  0.53407173903E-02 -0.80774846647E-02 -0.94329790939E-02  0.13518510100E-01  0.00000000000E+00 0. -1.
     999901    1    3    3    0    0 -0.12052446803E+00 -0.56659742069E-01 -0.41013951707E-02  0.89002994062E+00  0.88000000000E+00 0.  1.
        -11    1    4    4    0    0  0.38284140897E-01 -0.13302365816E-02  0.23538153587E-02  0.38382893863E-01  0.51100000000E-03 0. -1.
         11    1    4    4    0    0  0.76899609742E-01  0.66067463315E-01  0.11180558906E-01  0.10199865541E+00  0.51100000000E-03 0.  1.
</event>
<event>
 8    1  0.2943605E+004  0.1043930E+01  0.7957747E-01            NaN
         13   -1    0    0    0    0  0.00000000000E+00  0.00000000000E+00  0.74505805969E-08  0.10566000000E+00  0.10566000000E+00 0.  1.
     999900   -1    0    0    0    0 -0.00000000000E+00 -0.00000000000E+00 -0.74505805969E-08  0.93827000000E+00  0.93827000000E+00 0.  1.
     999902    2    1    2    0    0  0.11830694069E-01  0.35630678055E-02 -0.62364826036E-02  0.10300896788E+01  0.10299966951E+01 0.  0.
     999903    2    3    3    0    0  0.15858505586E-01 -0.27735950918E-01  0.12746146219E+00  0.13943206097E+00  0.46627246432E-01 0.  0.
         14    1    1    2    0    0 -0.11830694069E-01 -0.35630678055E-02  0.62364826036E-02  0.13840321153E-01  0.00000000000E+00 0. -1.
     999901    1    3    3    0    0 -0.40278115169E-02  0.31299018723E-01 -0.13369794480E+00  0.89065761788E+00  0.88000000000E+00 0.  1.
        -11    1    4    4    0    0 -0.54080537055E-02 -0.33484033777E-01  0.86618099732E-01  0.93023566288E-01  0.51100000000E-03 0. -1.
         11    1    4    4    0    0  0.21266559292E-01  0.57480828594E-02  0.40843362460E-01  0.46408494683E-01  0.51100000000E-03 0.  1.
</event>
<event>
 8    1  0.2943605E+004  0.1043930E+01  0.7957747E-01            NaN
         13   -1    0    0    0    0  0.00000000000E+00  0.00000000000E+00  0.74505805969E-08  0.10566000000E+00  0.10566000000E+00 0. -1.
     999900   -1    0    0    0    0 -0.00000000000E+00 -0.00000000000E+00 -0.74505805969E-08  0.93827000000E+00  0.93827000000E+00 0. -1.
     999902    2    1    2    0    0 -0.68706448492E-02 -0.75722193652E-03  0.12189205715E-01  0.10299172957E+01  0.10298219652E+01 0.  0.
     999903    2    3    3    0    0  0.12667152382E+00 -0.11592176276E-01  0.34000513677E-01  0.13950916445E+00  0.46116358681E-01 0.  0.
         14    1    1    2    0    0  0.68706448492E-02  0.75722193652E-03 -0.12189205715E-01  0.14012704295E-01  0.00000000000E+00 0.  1.
     999901    1    3    3    0    0 -0.13354216867E+00  0.10834954339E-01 -0.21811307963E-01  0.89040813125E+00  0.88000000000E+00 0.  1.
        -11    1    4    4    0    0  0.55020436330E-01  0.11732088262E-01  0.30682670962E-01  0.64082585210E-01  0.51100000000E-03 0. -1.
         11    1    4    4    0    0  0.71651087490E-01 -0.23324264538E-01  0.33178427157E-02  0.75426579241E-01  0.51100000000E-03 0.  1.
</event>
<event>
 8    1  0.2943605E+004  0.1043930E+01  0.7957747E-01            NaN
         13   -1    0    0    0    0  0.00000000000E+00  0.00000000000E+00  0.74505805969E-08  0.10566000000E+00  0.10566000000E+00 0. -1.
     999900   -1    0    0    0    0 -0.00000000000E+00 -0.00000000000E+00 -0.74505805969E-08  0.93827000000E+00  0.93827000000E+00 0.  1.
     999902    2    1    2    0    0 -0.12847046681E-01 -0.59816533792E-02 -0.90672551844E-02  0.10271061508E+01  0.10269683554E+01 0.  0.
     999903    2    3    3    0    0 -0.20534104008E-01  0.19705306510E-01  0.12552970922E+00  0.13646859624E+00  0.45343371408E-01 0.  0.
         14    1    1    2    0    0  0.12847046681E-01  0.59816533792E-02  0.90672551844E-02  0.16823849208E-01  0.00000000000E+00 0. -1.
     999901    1    3    3    0    0  0.76870573269E-02 -0.25686959889E-01 -0.13459696440E+00  0.89063755456E+00  0.88000000000E+00 0.  1.
        -11    1    4    4    0    0 -0.10963609518E-01  0.29222891335E-01  0.44716790514E-01  0.54534673250E-01  0.51100000000E-03 0.  1.
         11    1    4    4    0    0 -0.95704944908E-02 -0.95175848245E-02  0.80812918703E-01  0.81933922986E-01  0.51100000000E-03 0. -1.
</event>
<event>
 8    1  0.2943605E+004  0.1043930E+01  0.7957747E-01            NaN
         13   -1    0    0    0    0  0.00000000000E+00  0.00000000000E+00  0.74505805969E-08  0.10566000000E+00  0.10566000000E+00 0.  1.
     999900   -1    0    0    0    0 -0.00000000000E+00 -0.00000000000E+00 -0.74505805969E-08  0.93827000000E+00  0.93827000000E+00 0.  1.
     999902    2    1    2    0    0  0.46979453175E-02 -0.81973882225E-02 -0.90720343024E-02  0.10308315394E+01  0.10307483170E+01 0.  0.
     999903    2    3    3    0    0 -0.12881744103E+00  0.26706319512E-01 -0.10641192505E-01  0.14007506905E+00  0.46910866280E-01 0.  0.
         14    1    1    2    0    0 -0.46979453175E-02  0.81973882225E-02  0.90720343024E-02  0.13098460607E-01  0.00000000000E+00 0.  1.
     999901    1    3    3    0    0  0.13351538635E+00 -0.34903707734E-01  0.15691582021E-02  0.89075647035E+00  0.88000000000E+00 0. -1.
        -11    1    4    4    0    0 -0.46839289230E-01 -0.12779599125E-01 -0.90880847281E-03  0.48562580483E-01  0.51100000000E-03 0. -1.
         11    1    4    4    0    0 -0.81978151801E-01  0.39485918637E-01 -0.97323840317E-02  0.91512488564E-01  0.51100000000E-03 0.  1.
</event>
<event>
 8    1  0.2943605E+004  0.1043930E+01  0.7957747E-01            NaN
         13   -1    0    0    0    0  0.00000000000E+00  0.00000000000E+00  0.74505805969E-08  0.10566000000E+00  0.10566000000E+00 0. -1.
     999900   -1    0    0    0    0 -0.00000000000E+00 -0.00000000000E+00 -0.74505805969E-08  0.93827000000E+00  0.93827000000E+00 0. -1.
     999902    2    1    2    0    0 -0.62920599157E-02 -0.76003937346E-02 -0.92976344938E-02  0.10303726400E+01  0.10302834441E+01 0.  0.
     999903    2    3    3    0    0 -0.46981904168E-01 -0.89694022910E-01  0.87763139915E-01  0.14030757423E+00  0.41611652147E-01 0.  0.
         14    1    1    2    0    0  0.62920599157E-02  0.76003937346E-02  0.92976344938E-02  0.13557359997E-01  0.00000000000E+00 0. -1.
     999901    1    3    3    0    0  0.40689844252E-01  0.82093629175E-01 -0.97060774408E-01  0.89006506577E+00  0.88000000000E+00 0. -1.
        -11    1    4    4    0    0 -0.30545810827E-01 -0.25261627188E-01  0.50094371761E-01  0.63881950271E-01  0.51100000000E-03 0.  1.
         11    1    4    4    0    0 -0.16436093341E-01 -0.64432395722E-01  0.37668768153E-01  0.76425623962E-01  0.51100000000E-03 0. -1.
</event>
<event>
 8    1  0.2943605E+004  0.1043930E+01  0.7957747E-01            NaN
         13   -1    0    0    0    0  0.00000000000E+00  0.00000000000E+00  0.74505805969E-08  0.10566000000E+00  0.10566000000E+00 0. -1.
     999900   -1    0    0    0    0 -0.00000000000E+00 -0.00000000000E+00 -0.74505805969E-08  0.93827000000E+00  0.93827000000E+00 0. -1.
     999902    2    1    2    0    0  0.41375189435E-03  0.62930063820E-02 -0.84898628188E-02  0.10333540419E+01  0.10332999201E+01 0.  0.
     999903    2    3    3    0    0  0.27570529175E-01 -0.11694960759E+00 -0.62251435316E-01  0.14272699358E+00  0.45369689248E-01 0.  0.
         14    1    1    2    0    0 -0.41375189435E-03 -0.62930063820E-02  0.84898628188E-02  0.10575958143E-01  0.00000000000E+00 0.  1.
     999901    1    3    3    0    0 -0.27156777280E-01  0.12324261397E+00  0.53761572497E-01  0.89062704828E+00  0.88000000000E+00 0. -1.
        -11    1    4    4    0    0  0.29994777038E-01 -0.47210174323E-01 -0.13324353289E-01  0.57500319309E-01  0.51100000000E-03 0.  1.
         11    1    4    4    0    0 -0.24242478629E-02 -0.69739433266E-01 -0.48927082027E-01  0.85226674268E-01  0.51100000000E-03 0. -1.
</event>
<event>
 8    1  0.2943605E+004  0.1043930E+01  0.7957747E-01            NaN
         13   -1    0    0    0    0  0.00000000000E+00  0.00000000000E+00  0.74505805969E-08  0.10566000000E+00  0.10566000000E+00 0.  1.
     999900   -1    0    0    0    0 -0.00000000000E+00 -0.00000000000E+00 -0.74505805969E-08  0.93827000000E+00  0.93827000000E+00 0.  1.
     999902    2    1    2    0    0  0.13341841499E-01 -0.21828354516E-03 -0.43995561684E-02  0.10298797873E+01  0.10297839423E+01 0.  0.
     999903    2    3    3    0    0 -0.12386420242E-01  0.13157519012E+00 -0.14179861660E-01  0.13963986598E+00  0.42810858806E-01 0.  0.
         14    1    1    2    0    0 -0.13341841499E-01  0.21828354516E-03  0.43995561684E-02  0.14050212694E-01  0.00000000000E+00 0. -1.
     999901    1    3    3    0    0  0.25728261741E-01 -0.13179347366E+00  0.97803054916E-02  0.89023992133E+00  0.88000000000E+00 0. -1.
        -11    1    4    4    0    0 -0.13610411898E-01  0.79277120205E-01 -0.28603782666E-01  0.85372961785E-01  0.51100000000E-03 0. -1.
         11    1    4    4    0    0  0.12239916561E-02  0.52298069914E-01  0.14423921006E-01  0.54266904192E-01  0.51100000000E-03 0.  1.
</event>
<event>
 8    1  0.2943605E+004  0.1043930E+01  0.7957747E-01            NaN
         13   -1    0    0    0    0  0.00000000000E+00  0.00000000000E+00  0.74505805969E-08  0.10566000000E+00  0.10566000000E+00 0.  1.
     999900   -1    0    0    0    0 -0.00000000000E+00 -0.00000000000E+00 -0.74505805969E-08  0.93827000000E+00  0.93827000000E+00 0.  1.
     999902    2    1    2    0    0  0.18897188465E-01 -0.34330771573E-02  0.35363898793E-02  0.10244006425E+01  0.10242144700E+01 0.  0.
     999903    2    3    3    0    0 -0.12280852771E+00  0.21479252263E-01  0.26205597572E-02  0.13271573577E+00  0.45423632975E-01 0.  0.
         14    1    1    2    0    0 -0.18897188465E-01  0.34330771573E-02 -0.35363898793E-02  0.19529357491E-01  0.00000000000E+00 0. -1.
     999901    1    3    3    0    0  0.14170571617E+00 -0.24912329420E-01  0.91583012213E-03  0.89168490673E+00  0.88000000000E+00 0.  1.
        -11    1    4    4    0    0 -0.72483432345E-01  0.34905757506E-01 -0.14913995118E-02  0.80465801836E-01  0.51100000000E-03 0. -1.
         11    1    4    4    0    0 -0.50325095365E-01 -0.13426505243E-01  0.41119592691E-02  0.52249933939E-01  0.51100000000E-03 0.  1.
</event>
<event>
 8    1  0.2943605E+004  0.1043930E+01  0.7957747E-01            NaN
         13   -1    0    0    0    0  0.00000000000E+00  0.00000000000E+00  0.74505805969E-08  0.10566000000E+00  0.10566000000E+00 0. -1.
     999900   -1    0    0    0    0 -0.00000000000E+00 -0.00000000000E+00 -0.74505805969E-08  0.93827000000E+00  0.93827000000E+00 0. -1.
     999902    2    1    2    0    0  0.11205607606E-01 -0.18349045631E-02  0.91669063789E-02  0.10293366903E+01  0.10292332375E+01 0.  0.
     999903    2    3    3    0    0 -0.94378022862E-01  0.88192715485E-01  0.24232979265E-01  0.13833732890E+00  0.43183480858E-01 0.  0.
         14    1    1    2    0    0 -0.11205607606E-01  0.18349045631E-02 -0.91669063789E-02  0.14593309739E-01  0.00000000000E+00 0.  1.
     999901    1    3    3    0    0  0.10558363047E+00 -0.90027620048E-01 -0.15066072886E-01  0.89099936136E+00  0.88000000000E+00 0. -1.
        -11    1    4    4    0    0 -0.65550404672E-01  0.33197400530E-01  0.19716373292E-01  0.76078377029E-01  0.51100000000E-03 0.  1.
         11    1    4    4    0    0 -0.28827618191E-01  0.54995314955E-01  0.45166059733E-02  0.62258951870E-01  0.51100000000E-03 0. -1.
</event>
<event>
 8    1  0.2943605E+004  0.1043930E+01  0.7957747E-01            NaN
         13   -1    0    0    0    0  0.00000000000E+00  0.00000000000E+00  0.74505805969E-08  0.10566000000E+00  0.10566000000E+00 0. -1.
     999900   -1    0    0    0    0 -0.00000000000E+00 -0.00000000000E+00 -0.74505805969E-08  0.93827000000E+00  0.93827000000E+00 0. -1.
     999902    2    1    2    0    0 -0.86017627808E-03  0.42205721103E-02  0.13336251795E-01  0.10299154096E+01  0.10298200533E+01 0.  0.
     999903    2    3    3    0    0  0.40636350095E-01  0.11270197506E+00  0.60920766696E-01  0.14100908014E+00  0.42651761251E-01 0.  0.
         14    1    1    2    0    0  0.86017627808E-03 -0.42205721103E-02 -0.13336251795E-01  0.14014590401E-01  0.00000000000E+00 0.  1.
     999901    1    3    3    0    0 -0.41496526373E-01 -0.10848140295E+00 -0.47584514901E-01  0.88890632945E+00  0.88000000000E+00 0. -1.
        -11    1    4    4    0    0  0.32468158937E-01  0.38651657365E-01  0.37591699725E-01  0.62940678191E-01  0.51100000000E-03 0.  1.
         11    1    4    4    0    0  0.81681911573E-02  0.74050317691E-01  0.23329066970E-01  0.78068401954E-01  0.51100000000E-03 0. -1.
</event>
<event>
 8    1  0.2943605E+004  0.1043930E+01  0.7957747E-01            NaN
         13   -1    0    0    0    0  0.00000000000E+00  0.00000000000E+00  0.74505805969E-08  0.10566000000E+00  0.10566000000E+00 0.  1.
     999900   -1    0    0    0    0 -0.00000000000E+00 -0.00000000000E+00 -0.74505805969E-08  0.93827000000E+00  0.93827000000E+00 0.  1.
     999902    2    1    2    0    0  0.57708206628E-02 -0.60795755467E-02  0.11698087361E-01  0.10295387229E+01  0.10294381346E+01 0.  0.
     999903    2    3    3    0    0  0.15362242736E-01  0.12716385846E+00  0.31928882148E-01  0.13922692739E+00  0.44249727642E-01 0.  0.
         14    1    1    2    0    0 -0.57708206628E-02  0.60795755467E-02 -0.11698087361E-01  0.14391277144E-01  0.00000000000E+00 0. -1.
     999901    1    3    3    0    0 -0.95914220730E-02 -0.13324343400E+00 -0.20230794788E-01  0.89031179546E+00  0.88000000000E+00 0.  1.
        -11    1    4    4    0    0  0.56852363345E-02  0.51842912791E-02  0.13410962221E-01  0.15469771069E-01  0.51100000000E-03 0.  1.
         11    1    4    4    0    0  0.96770064013E-02  0.12197956718E+00  0.18517919927E-01  0.12375715632E+00  0.51100000000E-03 0. -1.
</event>
<event>
 8    1  0.2943605E+004  0.1043930E+01  0.7957747E-01            NaN
         13   -1    0    0    0    0  0.00000000000E+00  0.00000000000E+00  0.74505805969E-08  0.10566000000E+00  0.10566000000E+00 0.  1.
     999900   -1    0    0    0    0 -0.00000000000E+00 -0.00000000000E+00 -0.74505805969E-08  0.93827000000E+00  0.93827000000E+00 0. -1.
     999902    2    1    2    0    0 -0.18588966314E-02  0.15576813922E-02 -0.15024302352E-01  0.10287112113E+01  0.10285986315E+01 0.  0.
     999903    2    3    3    0    0 -0.23800079192E-01  0.11769140222E-03  0.12940029095E+00  0.13666751719E+00  0.36974549857E-01 0.  0.
         14    1    1    2    0    0  0.18588966314E-02 -0.15576813922E-02  0.15024302352E-01  0.15218788690E-01  0.00000000000E+00 0.  1.
     999901    1    3    3    0    0  0.21941182560E-01  0.14399899900E-02 -0.14442459330E+00  0.89204369412E+00  0.88000000000E+00 0. -1.
        -11    1    4    4    0    0 -0.44831492490E-02  0.17433652422E-01  0.51137718955E-01  0.54215849020E-01  0.51100000000E-03 0. -1.
         11    1    4    4    0    0 -0.19316929943E-01 -0.17315961020E-01  0.78262571994E-01  0.82451668174E-01  0.51100000000E-03 0.  1.
</event>
<event>
 8    1  0.2943605E+004  0.1043930E+01  0.7957747E-01            NaN
         13   -1    0    0    0    0  0.00000000000E+00  0.00000000000E+00  0.74505805969E-08  0.10566000000E+00  0.10566000000E+00 0.  1.
     999900   -1    0    0    0    0 -0.00000000000E+00 -0.00000000000E+00 -0.74505805969E-08  0.93827000000E+00  0.93827000000E+00 0. -1.
     999902    2    1    2    0    0  0.64599483027E-02 -0.13911191209E-01 -0.11254632615E-02  0.10285508310E+01  0.10284358478E+01 0.  0.
     999903    2    3    3    0    0  0.10701920259E+00 -0.76711620166E-01  0.18809571565E-01  0.14037660080E+00  0.44877696901E-01 0.  0.
         14    1    1    2    0    0 -0.64599483027E-02  0.13911191209E-01  0.11254632615E-02  0.15379169044E-01  0.00000000000E+00 0. -1.
     999901    1    3    3    0    0 -0.10055925428E+00  0.62800428958E-01 -0.19935034827E-01  0.88817423016E+00  0.88000000000E+00 0.  1.
        -11    1    4    4    0    0  0.21607073923E-01 -0.40806360834E-01  0.10467829876E-01  0.47348297872E-01  0.51100000000E-03 0. -1.
         11    1    4    4    0    0  0.85412128663E-01 -0.35905259333E-01  0.83417416893E-02  0.93028302929E-01  0.51100000000E-03 0.  1.
</event>
<event>
 8    1  0.2943605E+004  0.1043930E+01  0.7957747E-01            NaN
         13   -1    0    0    0    0  0.00000000000E+00  0.00000000000E+00  0.74505805969E-08  0.10566000000E+00  0.10566000000E+00 0.  1.
     999900   -1    0    0    0    0 -0.00000000000E+00 -0.00000000000E+00 -0.74505805969E-08  0.93827000000E+00  0.93827000000E+00 0.  1.
     999902    2    1    2    0    0 -0.27969615242E-02  0.92188668705E-02  0.99959148764E-02  0.10300473196E+01  0.10299537620E+01 0.  0.
     999903    2    3    3    0    0  0.62650547966E-01 -0.97904713176E-01  0.62737307109E-01  0.13957525810E+00  0.45109410864E-01 0.  0.
         14    1    1    2    0    0  0.27969615242E-02 -0.92188668705E-02 -0.99959148764E-02  0.13882680374E-01  0.00000000000E+00 0. -1.
     999901    1    3    3    0    0 -0.65447509490E-01  0.10712358005E+00 -0.52741392233E-01  0.89047206152E+00  0.88000000000E+00 0. -1.
        -11    1    4    4    0    0  0.59620991228E-01 -0.74272224845E-01  0.65488525527E-01  0.11558561362E+00  0.51100000000E-03 0. -1.
         11    1    4    4    0    0  0.30295567374E-02 -0.23632488331E-01 -0.27512184182E-02  0.23989644485E-01  0.51100000000E-03 0.  1.
</event>
<event>
 8    1  0.2943605E+004  0.1043930E+01  0.7957747E-01            NaN
         13   -1    0    0    0    0  0.00000000000E+00  0.00000000000E+00  0.74505805969E-08  0.10566000000E+00  0.10566000000E+00 0. -1.
     999900   -1    0    0    0    0 -0.00000000000E+00 -0.00000000000E+00 -0.74505805969E-08  0.93827000000E+00  0.93827000000E+00 0. -1.
     999902    2    1    2    0    0 -0.13894424453E-01  0.35700958014E-02  0.74017942467E-03  0.10295651651E+01  0.10294649488E+01 0.  0.
     999903    2    3    3    0    0 -0.89648617931E-01 -0.54971249539E-01  0.82107574755E-01  0.14064084892E+00  0.44491365238E-01 0.  0.
         14    1    1    2    0    0  0.13894424453E-01 -0.35700958014E-02 -0.74017942467E-03  0.14364834858E-01  0.00000000000E+00 0.  1.
     999901    1    3    3    0    0  0.75754193478E-01  0.58541345340E-01 -0.81367395331E-01  0.88892431622E+00  0.88000000000E+00 0. -1.
        -11    1    4    4    0    0 -0.33704747894E-01 -0.34781037983E-01  0.14424993762E-01  0.50537829393E-01  0.51100000000E-03 0. -1.
         11    1    4    4    0    0 -0.55943870037E-01 -0.20190211556E-01  0.67682580993E-01  0.90103019530E-01  0.51100000000E-03 0.  1.
</event>
<event>
 8    1  0.2943605E+004  0.1043930E+01  0.7957747E-01            NaN
         13   -1    0    0    0    0  0.00000000000E+00  0.00000000000E+00  0.74505805969E-08  0.10566000000E+00  0.10566000000E+00 0.  1.
     999900   -1    0    0    0    0 -0.00000000000E+00 -0.00000000000E+00 -0.74505805969E-08  0.93827000000E+00  0.93827000000E+00 0.  1.
     999902    2    1    2    0    0  0.82268746734E-02 -0.10278241696E-01 -0.42341971845E-02  0.10301006058E+01  0.10300077698E+01 0.  0.
     999903    2    3    3    0    0 -0.10906457825E+00  0.36299254688E-01  0.62930738111E-01  0.13856379966E+00  0.45021446640E-01 0.  0.
         14    1    1    2    0    0 -0.82268746734E-02  0.10278241696E-01  0.42341971845E-02  0.13829394240E-01  0.00000000000E+00 0. -1.
     999901    1    3    3    0    0  0.11729145292E+00 -0.46577496385E-01 -0.67164935295E-01  0.89153680610E+00  0.88000000000E+00 0. -1.
        -11    1    4    4    0    0 -0.92611059817E-01  0.11006383000E-01  0.46917989740E-01  0.10440070761E+00  0.51100000000E-03 0. -1.
         11    1    4    4    0    0 -0.16453518431E-01  0.25292871689E-01  0.16012748370E-01  0.34163092050E-01  0.51100000000E-03 0.  1.
</event>
<event>
 8    1  0.2943605E+004  0.1043930E+01  0.7957747E-01            NaN
         13   -1    0    0    0    0  0.00000000000E+00  0.00000000000E+00  0.74505805969E-08  0.10566000000E+00  0.10566000000E+00 0.  1.
     999900   -1    0    0    0    0 -0.00000000000E+00 -0.00000000000E+00 -0.74505805969E-08  0.93827000000E+00  0.93827000000E+00 0. -1.
     999902    2    1    2    0    0  0.11739039334E-01  0.64211297037E-02 -0.48003490117E-02  0.10297145400E+01  0.10296164114E+01 0.  0.
     999903    2    3    3    0    0  0.60499600664E-01 -0.30409386793E-01  0.11390400803E+00  0.13964442838E+00  0.44062578778E-01 0.  0.
         14    1    1    2    0    0 -0.11739039334E-01 -0.64211297037E-02  0.48003490117E-02  0.14215459957E-01  0.00000000000E+00 0.  1.
     999901    1    3    3    0    0 -0.48760561330E-01  0.36830516497E-01 -0.11870435704E+00  0.89007011166E+00  0.88000000000E+00 0. -1.
        -11    1    4    4    0    0  0.16373924858E-01 -0.62125966573E-02  0.72164525994E-01  0.74260902940E-01  0.51100000000E-03 0.  1.
         11    1    4    4    0    0  0.44125675806E-01 -0.24196790136E-01  0.41739482033E-01  0.65383525445E-01  0.51100000000E-03 0. -1.
</event>
<event>
 7    1  0.2943605E+004  0.1043930E+01  0.7957747E-01            NaN
         13   -1    0    0    0    0  0.00000000000E+00  0.00000000000E+00  0.74505805969E-08  0.10566000000E+00  0.10566000000E+00 0. -1.
     999900   -1    0    0    0    0 -0.00000000000E+00 -0.00000000000E+00 -0.74505805969E-08  0.93827000000E+00  0.93827000000E+00 0. -1.
     999903    2    1    2    0    0 -0.29249718652E-01  0.25710960672E-01  0.50562623914E-01  0.77996539510E-01  0.44836165074E-01 0.  0.
         14    1    1    2    0    0  0.34999194631E-02 -0.31929148040E-01  0.70287596390E-01  0.77279144257E-01  0.00000000000E+00 0. -1.
     999901    1    1    2    0    0  0.25749799189E-01  0.62181873678E-02 -0.12085022030E+00  0.88865431623E+00  0.88000000000E+00 0. -1.
        -11    1    3    3    0    0  0.46974420905E-02  0.19738720469E-01  0.50730524102E-02  0.20920803754E-01  0.51100000000E-03 0. -1.
         11    1    3    3    0    0 -0.33947160742E-01  0.59722402034E-02  0.45489571503E-01  0.57075735756E-01  0.51100000000E-03 0.  1.
</event>
<event>
 8    1  0.2943605E+004  0.1043930E+01  0.7957747E-01            NaN
         13   -1    0    0    0    0  0.00000000000E+00  0.00000000000E+00  0.74505805969E-08  0.10566000000E+00  0.10566000000E+00 0.  1.
     999900   -1    0    0    0    0 -0.00000000000E+00 -0.00000000000E+00 -0.74505805969E-08  0.93827000000E+00  0.93827000000E+00 0.  1.
     999902    2    1    2    0    0  0.39279725602E-03 -0.12766654593E-01  0.42421194588E-02  0.10304712728E+01  0.10303833786E+01 0.  0.
     999903    2    3    3    0    0 -0.24015901208E-01 -0.60074746455E-01 -0.11657953293E+00  0.14062200931E+00  0.44699254283E-01 0.  0.
         14    1    1    2    0    0 -0.39279725602E-03  0.12766654593E-01 -0.42421194588E-02  0.13458727157E-01  0.00000000000E+00 0. -1.
     999901    1    3    3    0    0  0.24408698464E-01  0.47308091861E-01  0.12082165239E+00  0.88984926353E+00  0.88000000000E+00 0. -1.
        -11    1    4    4    0    0 -0.25319422938E-01 -0.61331761634E-01 -0.79751514331E-01  0.10374595569E+00  0.51100000000E-03 0.  1.
         11    1    4    4    0    0  0.13035217296E-02  0.12570151798E-02 -0.36828018597E-01  0.36876053624E-01  0.51100000000E-03 0. -1.
</event>
<event>
 8    1  0.2943605E+004  0.1043930E+01  0.7957747E-01            NaN
         13   -1    0    0    0    0  0.00000000000E+00  0.00000000000E+00  0.74505805969E-08  0.10566000000E+00  0.10566000000E+00 0. -1.
     999900   -1    0    0    0    0 -0.00000000000E+00 -0.00000000000E+00 -0.74505805969E-08  0.93827000000E+00  0.93827000000E+00 0.  1.
     999902    2    1    2    0    0 -0.11473476016E-01  0.82140097444E-03 -0.52945303115E-02  0.10312671645E+01  0.10311894187E+01 0.  0.
     999903    2    3    3    0    0 -0.82033012216E-02 -0.84128777129E-01 -0.10466667250E+00  0.14160315521E+00  0.44174607424E-01 0.  0.
         14    1    1    2    0    0  0.11473476016E-01 -0.82140097444E-03  0.52945303115E-02  0.12662835491E-01  0.00000000000E+00 0. -1.
     999901    1    3    3    0    0 -0.32701747945E-02  0.84950178104E-01  0.99372142185E-01  0.88966400930E+00  0.88000000000E+00 0. -1.
        -11    1    4    4    0    0 -0.94195418106E-02 -0.14550785137E-01 -0.18360442778E-02  0.17438041622E-01  0.51100000000E-03 0.  1.
         11    1    4    4    0    0  0.12162405890E-02 -0.69577991992E-01 -0.10283062822E+00  0.12416511359E+00  0.51100000000E-03 0. -1.
</event>
<event>
 8    1  0.2943605E+004  0.1043930E+01  0.7957747E-01            NaN
         13   -1    0    0    0    0  0.00000000000E+00  0.00000000000E+00  0.74505805969E-08  0.10566000000E+00  0.10566000000E+00 0.  1.
     999900   -1    0    0    0    0 -0.00000000000E+00 -0.00000000000E+00 -0.74505805969E-08  0.93827000000E+00  0.93827000000E+00 0.  1.
     999902    2    1    2    0    0 -0.71531235464E-02  0.25283349028E-02 -0.14565536398E-01  0.10275070129E+01  0.10273757575E+01 0.  0.
     999903    2    3    3    0    0 -0.61540012069E-01  0.10981145905E+00  0.32622326136E-01  0.13807219421E+00  0.46411044254E-01 0.  0.
         14    1    1    2    0    0  0.71531235464E-02 -0.25283349028E-02  0.14565536398E-01  0.16422987073E-01  0.00000000000E+00 0.  1.
     999901    1    3    3    0    0  0.54386888523E-01 -0.10728312414E+00 -0.47187862534E-01  0.88943481871E+00  0.88000000000E+00 0.  1.
        -11    1    4    4    0    0  0.31922603854E-02  0.21137571073E-01 -0.51008304636E-02  0.21983335271E-01  0.51100000000E-03 0. -1.
         11    1    4    4    0    0 -0.64732272455E-01  0.88673887975E-01  0.37723156600E-01  0.11608885894E+00  0.51100000000E-03 0.  1.
</event>
<event>
 8    1  0.2943605E+004  0.1043930E+01  0.7957747E-01            NaN
         13   -1    0    0    0    0  0.00000000000E+00  0.00000000000E+00  0.74505805969E-08  0.10566000000E+00  0.10566000000E+00 0. -1.
     999900   -1    0    0    0    0 -0.00000000000E+00 -0.00000000000E+00 -0.74505805969E-08  0.93827000000E+00  0.93827000000E+00 0.  1.
     999902    2    1    2    0    0 -0.55448842379E-02 -0.42557467178E-02 -0.15646396632E-01  0.10267932894E+01  0.10266502775E+01 0.  0.
     999903    2    3    3    0    0 -0.73707258068E-01 -0.10133345091E+00 -0.37980375155E-01  0.13855402187E+00  0.45315338624E-01 0.  0.
         14    1    1    2    0    0  0.55448842379E-02  0.42557467178E-02  0.15646396632E-01  0.17136710563E-01  0.00000000000E+00 0. -1.
     999901    1    3    3    0    0  0.68162373830E-01  0.97077704187E-01  0.22333978523E-01  0.88823926757E+00  0.88000000000E+00 0. -1.
        -11    1    4    4    0    0 -0.23844460907E-01 -0.15719675874E-01  0.75062585572E-02  0.29534243922E-01  0.51100000000E-03 0. -1.
         11    1    4    4    0    0 -0.49862797160E-01 -0.85613775031E-01 -0.45486633712E-01  0.10901977794E+00  0.51100000000E-03 0.  1.
</event>
<event>
 8    1  0.2943605E+004  0.1043930E+01  0.7957747E-01            NaN
         13   -1    0    0    0    0  0.00000000000E+00  0.00000000000E+00  0.74505805969E-08  0.10566000000E+00  0.10566000000E+00 0. -1.
     999900   -1    0    0    0    0 -0.00000000000E+00 -0.00000000000E+00 -0.74505805969E-08  0.93827000000E+00  0.93827000000E+00 0.  1.
     999902    2    1    2    0    0 -0.43715334967E-05 -0.29746769678E-02 -0.13378291214E-01  0.10302249864E+01  0.10301338239E+01 0.  0.
     999903    2    3    3    0    0 -0.47146258567E-01 -0.12461703838E+00  0.33234861019E-02  0.14045076168E+00  0.44307955771E-01 0.  0.
         14    1    1    2    0    0  0.43715334967E-05  0.29746769678E-02  0.13378291214E-01  0.13705013608E-01  0.00000000000E+00 0. -1.
     999901    1    3    3    0    0  0.47141887033E-01  0.12164236141E+00 -0.16701777316E-01  0.88977422472E+00  0.88000000000E+00 0.  1.
        -11    1    4    4    0    0 -0.24722923591E-01 -0.44811563585E-01 -0.19009359459E-01  0.54597765978E-01  0.51100000000E-03 0. -1.
         11    1    4    4    0    0 -0.22423334976E-01 -0.79805474794E-01  0.22332845561E-01  0.85852995698E-01  0.51100000000E-03 0.  1.
</event>
<event>
 8    1  0.2943605E+004  0.1043930E+01  0.7957747E-01            NaN
         13   -1    0    0    0    0  0.00000000000E+00  0.00000000000E+00  0.74505805969E-08  0.10566000000E+00  0.10566000000E+00 0.  1.
     999900   -1    0    0    0    0 -0.00000000000E+00 -0.00000000000E+00 -0.74505805969E-08  0.93827000000E+00  0.93827000000E+00 0.  1.
     999902    2    1    2    0    0  0.69014380367E-02  0.12173288471E-01  0.48822517330E-02  0.10291092314E+01  0.10290025049E+01 0.  0.
     999903    2    3    3    0    0 -0.98729611361E-02 -0.73840413006E-01 -0.10672825080E+00  0.13774138279E+00  0.45076457914E-01 0.  0.
         14    1    1    2    0    0 -0.69014380367E-02 -0.12173288471E-01 -0.48822517330E-02  0.14820768575E-01  0.00000000000E+00 0. -1.
     999901    1    3    3    0    0  0.16774399173E-01  0.86013701478E-01  0.11161050254E+00  0.89136784864E+00  0.88000000000E+00 0. -1.
        -11    1    4    4    0    0  0.98509184809E-02 -0.39220989779E-01 -0.80350954370E-01  0.89954786551E-01  0.51100000000E-03 0.  1.
         11    1    4    4    0    0 -0.19723879617E-01 -0.34619423227E-01 -0.26377296432E-01  0.47786596236E-01  0.51100000000E-03 0. -1.
</event>
<event>
 8    1  0.2943605E+004  0.1043930E+01  0.7957747E-01            NaN
         13   -1    0    0    0    0  0.00000000000E+00  0.00000000000E+00  0.74505805969E-08  0.10566000000E+00  0.10566000000E+00 0.  1.
     999900   -1    0    0    0    0 -0.00000000000E+00 -0.00000000000E+00 -0.74505805969E-08  0.93827000000E+00  0.93827000000E+00 0.  1.
     999902    2    1    2    0    0  0.13624500091E-01  0.37229608773E-02  0.10718505932E-01  0.10261994103E+01  0.10260462251E+01 0.  0.
     999903    2    3    3    0    0 -0.33974270150E-01 -0.53066102457E-02 -0.12230234875E+00  0.13488480602E+00  0.45317052423E-01 0.  0.
         14    1    1    2    0    0 -0.13624500091E-01 -0.37229608773E-02 -0.10718505932E-01  0.17730589665E-01  0.00000000000E+00 0.  1.
     999901    1    3    3    0    0  0.47598770241E-01  0.90295711230E-02  0.13302085469E+00  0.89131460431E+00  0.88000000000E+00 0. -1.
        -11    1    4    4    0    0  0.38021353024E-02 -0.10891249857E-01 -0.65029180529E-01  0.66046430620E-01  0.51100000000E-03 0.  1.
         11    1    4    4    0    0 -0.37776405453E-01  0.55846396115E-02 -0.57273168223E-01  0.68838375401E-01  0.51100000000E-03 0. -1.
</event>
<event>
 8    1  0.2943605E+004  0.1043930E+01  0.7957747E-01            NaN
         13   -1    0    0    0    0  0.00000000000E+00  0.00000000000E+00  0.74505805969E-08  0.10566000000E+00  0.10566000000E+00 0.  1.
     999900   -1    0    0    0    0 -0.00000000000E+00 -0.00000000000E+00 -0.74505805969E-08  0.93827000000E+00  0.93827000000E+00 0. -1.
     999902    2    1    2    0    0 -0.70889233851E-02 -0.11751859555E-01 -0.36283158476E-02  0.10297340952E+01  0.10296362382E+01 0.  0.
     999903    2    3    3    0    0  0.18346973049E-01  0.42725874200E-01 -0.12366593101E+00  0.13955218267E+00  0.44938151378E-01 0.  0.
         14    1    1    2    0    0  0.70889233851E-02  0.11751859555E-01  0.36283158476E-02  0.14195904819E-01  0.00000000000E+00 0.  1.
     999901    1    3    3    0    0 -0.25435896434E-01 -0.54477733754E-01  0.12003761516E+00  0.89018191251E+00  0.88000000000E+00 0.  1.
        -11    1    4    4    0    0 -0.13649472888E-01  0.85595532405E-02 -0.47395853852E-01  0.50061983033E-01  0.51100000000E-03 0.  1.
         11    1    4    4    0    0  0.31996445937E-01  0.34166320959E-01 -0.76270077161E-01  0.89490199640E-01  0.51100000000E-03 0. -1.
</event>
<event>
 7    1  0.2943605E+004  0.1043930E+01  0.7957747E-01            NaN
         13   -1    0    0    0    0  0.00000000000E+00  0.00000000000E+00  0.74505805969E-08  0.10566000000E+00  0.10566000000E+00 0.  1.
     999900   -1    0    0    0    0 -0.00000000000E+00 -0.00000000000E+00 -0.74505805969E-08  0.93827000000E+00  0.93827000000E+00 0.  1.
     999902    2    1    2    0    0  0.11753753743E-01  0.55714898312E-02 -0.14873505818E-02  0.10308378482E+01  0.10307547065E+01 0.  0.
         14    1    1    2    0    0 -0.11753753743E-01 -0.55714898312E-02  0.14873505818E-02  0.13092151761E-01  0.00000000000E+00 0. -1.
     999901    1    3    3    0    0 -0.33105058613E-01  0.86291600041E-01  0.99894424675E-01  0.89046116211E+00  0.88000000000E+00 0.  1.
        -11    1    3    3    0    0  0.25026359441E-01 -0.61385295017E-01 -0.86338133396E-01  0.10885314653E+00  0.51100000000E-03 0.  1.
         11    1    3    3    0    0  0.19832452915E-01 -0.19334815193E-01 -0.15043641861E-01  0.31523539595E-01  0.51100000000E-03 0. -1.
</event>
<event>
 8    1  0.2943605E+004  0.1043930E+01  0.7957747E-01            NaN
         13   -1    0    0    0    0  0.00000000000E+00  0.00000000000E+00  0.74505805969E-08  0.10566000000E+00  0.10566000000E+00 0. -1.
     999900   -1    0    0    0    0 -0.00000000000E+00 -0.00000000000E+00 -0.74505805969E-08  0.93827000000E+00  0.93827000000E+00 0. -1.
     999902    2    1    2    0    0 -0.13104057966E-01 -0.29542020104E-02 -0.21266538650E-02  0.10303297683E+01  0.10302400037E+01 0.  0.
     999903    2    3    3    0    0  0.91183626010E-01 -0.94340269059E-01  0.15356272242E-01  0.13930059542E+00  0.44207474126E-01 0.  0.
         14    1    1    2    0    0  0.13104057966E-01  0.29542020104E-02  0.21266538650E-02  0.13600231666E-01  0.00000000000E+00 0. -1.
     999901    1    3    3    0    0 -0.10428768398E+00  0.91386067048E-01 -0.17482926107E-01  0.89102917291E+00  0.88000000000E+00 0. -1.
        -11    1    4    4    0    0  0.16340209793E-01 -0.45854808634E-01 -0.71135879752E-03  0.48687093601E-01  0.51100000000E-03 0. -1.
         11    1    4    4    0    0  0.74843416217E-01 -0.48485460425E-01  0.16067631039E-01  0.90613501819E-01  0.51100000000E-03 0.  1.
</event>
<event>
 8    1  0.2943605E+004  0.1043930E+01  0.7957747E-01            NaN
         13   -1    0    0    0    0  0.00000000000E+00  0.00000000000E+00  0.74505805969E-08  0.10566000000E+00  0.10566000000E+00 0.  1.
     999900   -1    0    0    0    0 -0.00000000000E+00 -0.00000000000E+00 -0.74505805969E-08  0.93827000000E+00  0.93827000000E+00 0. -1.
     999902    2    1    2    0    0 -0.40123295553E-03 -0.49311683921E-03  0.14456845522E-01  0.10294591833E+01  0.10293574722E+01 0.  0.
     999903    2    3    3    0    0 -0.24045353049E-01  0.54975063449E-01 -0.11557136180E+00  0.13786336789E+00  0.45267338484E-01 0.  0.
         14    1    1    2    0    0  0.40123295553E-03  0.49311683921E-03 -0.14456845522E-01  0.14470816651E-01  0.00000000000E+00 0. -1.
     999901    1    3    3    0    0  0.23644120093E-01 -0.55468180288E-01  0.13002820732E+00  0.89159581546E+00  0.88000000000E+00 0.  1.
        -11    1    4    4    0    0  0.12016314144E-03  0.46066108191E-01 -0.92253498155E-01  0.10311677752E+00  0.51100000000E-03 0. -1.
         11    1    4    4    0    0 -0.24165516190E-01  0.89089552580E-02 -0.23317863648E-01  0.34746590374E-01  0.51100000000E-03 0.  1.
</event>
<event>
 8    1  0.2943605E+004  0.1043930E+01  0.7957747E-01            NaN
         13   -1    0    0    0    0  0.00000000000E+00  0.00000000000E+00  0.74505805969E-08  0.10566000000E+00  0.10566000000E+00 0.  1.
     999900   -1    0    0    0    0 -0.00000000000E+00 -0.00000000000E+00 -0.74505805969E-08  0.93827000000E+00  0.93827000000E+00 0.  1.
     999902    2    1    2    0    0 -0.63982140917E-02 -0.15814389660E-02  0.12215889972E-01  0.10300495800E+01  0.10299560530E+01 0.  0.
     999903    2    3    3    0    0  0.92980121336E-01  0.93032988364E-01 -0.83159786294E-02  0.13917949906E+00  0.44736311540E-01 0.  0.
         14    1    1    2    0    0  0.63982140917E-02  0.15814389660E-02 -0.12215889972E-01  0.13880420043E-01  0.00000000000E+00 0. -1.
     999901    1    3    3    0    0 -0.99378335428E-01 -0.94614427330E-01  0.20531868601E-01  0.89087008090E+00  0.88000000000E+00 0.  1.
        -11    1    4    4    0    0  0.65349130276E-01  0.56499163839E-01  0.15155467909E-01  0.87707546260E-01  0.51100000000E-03 0.  1.
         11    1    4    4    0    0  0.27630991060E-01  0.36533824525E-01 -0.23471446539E-01  0.51471952799E-01  0.51100000000E-03 0. -1.
</event>
<event>
 8    1  0.2943605E+004  0.1043930E+01  0.7957747E-01            NaN
         13   -1    0    0    0    0  0.00000000000E+00  0.00000000000E+00  0.74505805969E-08  0.10566000000E+00  0.10566000000E+00 0.  1.
     999900   -1    0    0    0    0 -0.00000000000E+00 -0.00000000000E+00 -0.74505805969E-08  0.93827000000E+00  0.93827000000E+00 0. -1.
     999902    2    1    2    0    0  0.40576369929E-02  0.68495871013E-02 -0.11239301829E-01  0.10301567227E+01  0.10300646437E+01 0.  0.
     999903    2    3    3    0    0  0.14982252486E-02 -0.22278255471E-02  0.13056628388E+00  0.13875458331E+00  0.46883600717E-01 0.  0.
         14    1    1    2    0    0 -0.40576369929E-02 -0.68495871013E-02  0.11239301829E-01  0.13773277280E-01  0.00000000000E+00 0.  1.
     999901    1    3    3    0    0  0.25594117443E-02  0.90774126484E-02 -0.14180558571E+00  0.89140213941E+00  0.88000000000E+00 0. -1.
        -11    1    4    4    0    0  0.18219726554E-01 -0.14885040967E-01  0.46566611193E-01  0.52175025436E-01  0.51100000000E-03 0. -1.
         11    1    4    4    0    0 -0.16721501305E-01  0.12657215420E-01  0.83999672691E-01  0.86579557872E-01  0.51100000000E-03 0.  1.
</event>
<event>
 8    1  0.2943605E+004  0.1043930E+01  0.7957747E-01            NaN
         13   -1    0    0    0    0  0.00000000000E+00  0.00000000000E+00  0.74505805969E-08  0.10566000000E+00  0.10566000000E+00 0. -1.
     999900   -1    0    0    0    0 -0.00000000000E+00 -0.00000000000E+00 -0.74505805969E-08  0.93827000000E+00  0.93827000000E+00 0. -1.
     999902    2    1    2    0    0  0.11543578093E-01 -0.97037933203E-02  0.78228931403E-03  0.10288293452E+01  0.10287185192E+01 0.  0.
     999903    2    3    3    0    0 -0.90294906852E-01 -0.23962578502E-01  0.91537894014E-01  0.13820542355E+00  0.44656216644E-01 0.  0.
         14    1    1    2    0    0 -0.11543578093E-01  0.97037933203E-02 -0.78228931403E-03  0.15100654839E-01  0.00000000000E+00 0.  1.
     999901    1    3    3    0    0  0.10183848494E+00  0.14258785182E-01 -0.90755604700E-01  0.89062392162E+00  0.88000000000E+00 0. -1.
        -11    1    4    4    0    0 -0.26249854420E-01 -0.98536866610E-03  0.28578727713E-02  0.26428287236E-01  0.51100000000E-03 0.  1.
         11    1    4    4    0    0 -0.64045052432E-01 -0.22977209836E-01  0.88680021243E-01  0.11177713631E+00  0.51100000000E-03 0. -1.
</event>
<event>
 8    1  0.2943605E+004  0.1043930E+01  0.7957747E-01            NaN
         13   -1    0    0    0    0  0.00000000000E+00  0.00000000000E+00  0.74505805969E-08  0.10566000000E+00  0.10566000000E+00 0. -1.
     999900   -1    0    0    0    0 -0.00000000000E+00 -0.00000000000E+00 -0.74505805969E-08  0.93827000000E+00  0.93827000000E+00 0. -1.
     999902    2    1    2    0    0 -0.19968151602E-01  0.15884165570E-01 -0.73494982767E-02  0.10173772427E+01  0.10170306805E+01 0.  0.
     999903    2    3    3    0    0 -0.96476958479E-01  0.70870715229E-01  0.30336039394E-01  0.13154581523E+00  0.45316271083E-01 0.  0.
         14    1    1    2    0    0  0.19968151602E-01 -0.15884165570E-01  0.73494982767E-02  0.26552757280E-01  0.00000000000E+00 0. -1.
     999901    1    3    3    0    0  0.76508806878E-01 -0.54986549658E-01 -0.37685537670E-01  0.88583142749E+00  0.88000000000E+00 0. -1.
        -11    1    4    4    0    0 -0.63449420073E-01  0.70314691839E-01  0.18843444294E-01  0.96567703245E-01  0.51100000000E-03 0. -1.
         11    1    4    4    0    0 -0.33027538406E-01  0.55602338948E-03  0.11492595099E-01  0.34978111989E-01  0.51100000000E-03 0.  1.
</event>
<event>
 8    1  0.2943605E+004  0.1043930E+01  0.7957747E-01            NaN
         13   -1    0    0    0    0  0.00000000000E+00  0.00000000000E+00  0.74505805969E-08  0.10566000000E+00  0.10566000000E+00 0.  1.
     999900   -1    0    0    0    0 -0.00000000000E+00 -0.00000000000E+00 -0.74505805969E-08  0.93827000000E+00  0.93827000000E+00 0. -1.
     999902    2    1    2    0    0  0.82229595590E-02  0.62849396653E-02  0.83680526923E-02  0.10306205358E+01  0.10305345928E+01 0.  0.
     999903    2    3    3    0    0  0.44351119980E-01  0.31904272939E-01 -0.12077939996E+00  0.14009223267E+00  0.45312975231E-01 0.  0.
         14    1    1    2    0    0 -0.82229595590E-02 -0.62849396653E-02 -0.83680526923E-02  0.13309464165E-01  0.00000000000E+00 0. -1.
     999901    1    3    3    0    0 -0.36128160421E-01 -0.25619333274E-01  0.12914745265E+00  0.89052830317E+00  0.88000000000E+00 0.  1.
        -11    1    4    4    0    0  0.50484208447E-01  0.14760100628E-01 -0.85406013351E-01  0.10030435739E+00  0.51100000000E-03 0. -1.
         11    1    4    4    0    0 -0.61330884671E-02  0.17144172311E-01 -0.35373386609E-01  0.39787875283E-01  0.51100000000E-03 0.  1.
</event>
<event>
 8    1  0.2943605E+004  0.1043930E+01  0.7957747E-01            NaN
         13   -1    0    0    0    0  0.00000000000E+00  0.00000000000E+00  0.74505805969E-08  0.10566000000E+00  0.10566000000E+00 0. -1.
     999900   -1    0    0    0    0 -0.00000000000E+00 -0.00000000000E+00 -0.74505805969E-08  0.93827000000E+00  0.93827000000E+00 0.  1.
     999902    2    1    2    0    0  0.33400323202E-02 -0.12279629265E-01  0.60129473051E-02  0.10298551769E+01  0.10297589935E+01 0.  0.
     999903    2    3    3    0    0  0.51595163821E-01 -0.82184072483E-01  0.92690747951E-01  0.14152627943E+00  0.44964767489E-01 0.  0.
         14    1    1    2    0    0 -0.33400323202E-02  0.12279629265E-01 -0.60129473051E-02  0.14074823128E-01  0.00000000000E+00 0.  1.
     999901    1    3    3    0    0 -0.48255131501E-01  0.69904443219E-01 -0.86677800645E-01  0.88832889744E+00  0.88000000000E+00 0.  1.
        -11    1    4    4    0    0  0.36922733589E-01 -0.44641584137E-01  0.25781736688E-01  0.63412288695E-01  0.51100000000E-03 0.  1.
         11    1    4    4    0    0  0.14672430233E-01 -0.37542488346E-01  0.66909011262E-01  0.78113990740E-01  0.51100000000E-03 0. -1.
</event>
<event>
 8    1  0.2943605E+004  0.1043930E+01  0.7957747E-01            NaN
         13   -1    0    0    0    0  0.00000000000E+00  0.00000000000E+00  0.74505805969E-08  0.10566000000E+00  0.10566000000E+00 0. -1.
     999900   -1    0    0    0    0 -0.00000000000E+00 -0.00000000000E+00 -0.74505805969E-08  0.93827000000E+00  0.93827000000E+00 0.  1.
     999902    2    1    2    0    0 -0.71732082945E-02  0.18056634702E-01  0.61926489632E-02  0.10235377006E+01  0.10233345390E+01 0.  0.
     999903    2    3    3    0    0  0.11472782330E+00  0.38574999354E-01  0.40174485558E-01  0.13424830449E+00  0.41929869484E-01 0.  0.
         14    1    1    2    0    0  0.71732082945E-02 -0.18056634702E-01 -0.61926489632E-02  0.20392299409E-01  0.00000000000E+00 0.  1.
     999901    1    3    3    0    0 -0.12190103160E+00 -0.20518364653E-01 -0.33981836594E-01  0.88928939610E+00  0.88000000000E+00 0.  1.
        -11    1    4    4    0    0  0.44243501806E-01  0.27073035892E-01 -0.86314419820E-03  0.51879117797E-01  0.51100000000E-03 0. -1.
         11    1    4    4    0    0  0.70484321496E-01  0.11501963463E-01  0.41037629756E-01  0.82369186697E-01  0.51100000000E-03 0.  1.
</event>
<event>
 8    1  0.2943605E+004  0.1043930E+01  0.7957747E-01            NaN
         13   -1    0    0    0    0  0.00000000000E+00  0.00000000000E+00  0.74505805969E-08  0.10566000000E+00  0.10566000000E+00 0. -1.
     999900   -1    0    0    0    0 -0.00000000000E+00 -0.00000000000E+00 -0.74505805969E-08  0.93827000000E+00  0.93827000000E+00 0.  1.
     999902    2    1    2    0    0 -0.64178668475E-03 -0.12284454910E-01  0.40171682915E-02  0.10309894682E+01  0.10309082530E+01 0.  0.
     999903    2    3    3    0    0  0.84897213949E-01  0.87804072338E-01  0.47797737095E-01  0.14011833714E+00  0.49309559694E-01 0.  0.
         14    1    1    2    0    0  0.64178668475E-03  0.12284454910E-01 -0.40171682915E-02  0.12940531815E-01  0.00000000000E+00 0.  1.
     999901    1    3    3    0    0 -0.85539000634E-01 -0.10008852725E+00 -0.43780568804E-01  0.89087113104E+00  0.88000000000E+00 0.  1.
        -11    1    4    4    0    0  0.84633776430E-01  0.67115085322E-01  0.28250407032E-01  0.11164970850E+00  0.51100000000E-03 0. -1.
         11    1    4    4    0    0  0.26343751987E-03  0.20688987016E-01  0.19547330064E-01  0.28468628641E-01  0.51100000000E-03 0.  1.
</event>
<event>
 8    1  0.2943605E+004  0.1043930E+01  0.7957747E-01            NaN
         13   -1    0    0    0    0  0.00000000000E+00  0.00000000000E+00  0.74505805969E-08  0.10566000000E+00  0.10566000000E+00 0.  1.
     999900   -1    0    0    0    0 -0.00000000000E+00 -0.00000000000E+00 -0.74505805969E-08  0.93827000000E+00  0.93827000000E+00 0.  1.
     999902    2    1    2    0    0 -0.50586378930E-03  0.30338182810E-02  0.13414192205E-01  0.10301677144E+01  0.10300757833E+01 0.  0.
     999903    2    3    3    0    0  0.22701226388E-02 -0.13199937382E+00  0.18174089983E-02  0.13978793341E+00  0.45917047009E-01 0.  0.
         14    1    1    2    0    0  0.50586378930E-03 -0.30338182810E-02 -0.13414192205E-01  0.13762285568E-01  0.00000000000E+00 0. -1.
     999901    1    3    3    0    0 -0.27759864281E-02  0.13503319210E+00  0.11596783207E-01  0.89037978102E+00  0.88000000000E+00 0. -1.
        -11    1    4    4    0    0  0.42289217578E-02 -0.10861425953E-01  0.13766468327E-01  0.18045252122E-01  0.51100000000E-03 0. -1.
         11    1    4    4    0    0 -0.19587991191E-02 -0.12113794787E+00 -0.11949059328E-01  0.12174268129E+00  0.51100000000E-03 0.  1.
</event>
<event>
 8    1  0.2943605E+004  0.1043930E+01  0.7957747E-01            NaN
         13   -1    0    0    0    0  0.00000000000E+00  0.00000000000E+00  0.74505805969E-08  0.10566000000E+00  0.10566000000E+00 0.  1.
     999900   -1    0    0    0    0 -0.00000000000E+00 -0.00000000000E+00 -0.74505805969E-08  0.93827000000E+00  0.93827000000E+00 0.  1.
     999902    2    1    2    0    0  0.60660901409E-03  0.81087544962E-03 -0.13861150329E-01  0.10300319073E+01  0.10299381404E+01 0.  0.
     999903    2    3    3    0    0 -0.91372841915E-01  0.83185366972E-02 -0.97683100264E-01  0.14124469782E+00  0.44608096707E-01 0.  0.
         14    1    1    2    0    0 -0.60660901409E-03 -0.81087544962E-03  0.13861150329E-01  0.13898092744E-01  0.00000000000E+00 0.  1.
     999901    1    3    3    0    0  0.91979450929E-01 -0.75076612476E-02  0.83821949936E-01  0.88878720944E+00  0.88000000000E+00 0. -1.
        -11    1    4    4    0    0 -0.24800301723E-01  0.16475452603E-01 -0.52550719038E-01  0.60401446145E-01  0.51100000000E-03 0. -1.
         11    1    4    4    0    0 -0.66572540192E-01 -0.81569159062E-02 -0.45132381226E-01  0.80843251672E-01  0.51100000000E-03 0.  1.
</event>
<event>
 8    1  0.2943605E+004  0.1043930E+01  0.7957747E-01            NaN
         13   -1    0    0    0    0  0.00000000000E+00  0.00000000000E+00  0.74505805969E-08  0.10566000000E+00  0.10566000000E+00 0.  1.
     999900   -1    0    0    0    0 -0.00000000000E+00 -0.00000000000E+00 -0.74505805969E-08  0.93827000000E+00  0.93827000000E+00 0.  1.
     999902    2    1    2    0    0  0.88237862277E-02 -0.22916843055E-03 -0.10397446963E-01  0.10302911355E+01  0.10302008568E+01 0.  0.
     999903    2    3    3    0    0 -0.55028411251E-01  0.82710583815E-03  0.11789202893E+00  0.13869907157E+00  0.48063414577E-01 0.  0.
         14    1    1    2    0    0 -0.88237862277E-02  0.22916843055E-03  0.10397446963E-01  0.13638864502E-01  0.00000000000E+00 0.  1.
     999901    1    3    3    0    0  0.63852197478E-01 -0.10562742687E-02 -0.12828947589E+00  0.89159206393E+00  0.88000000000E+00 0.  1.
        -11    1    4    4    0    0 -0.45235755786E-01  0.20735609192E-01  0.69694824278E-01  0.85638009915E-01  0.51100000000E-03 0.  1.
         11    1    4    4    0    0 -0.97926554643E-02 -0.19908503354E-01  0.48197204649E-01  0.53061061654E-01  0.51100000000E-03 0. -1.
</event>
<event>
 8    1  0.2943605E+004  0.1043930E+01  0.7957747E-01            NaN
         13   -1    0    0    0    0  0.00000000000E+00  0.00000000000E+00  0.74505805969E-08  0.10566000000E+00  0.10566000000E+00 0. -1.
     999900   -1    0    0    0    0 -0.00000000000E+00 -0.00000000000E+00 -0.74505805969E-08  0.93827000000E+00  0.93827000000E+00 0. -1.
     999902    2    1    2    0    0  0.35189411438E-03  0.90263018264E-02 -0.10384880271E-01  0.10301661454E+01  0.10300741932E+01 0.  0.
     999903    2    3    3    0    0 -0.77630172325E-01 -0.60643081515E-01 -0.89935380365E-01  0.14041151200E+00  0.43851944882E-01 0.  0.
         14    1    1    2    0    0 -0.35189411438E-03 -0.90263018264E-02  0.10384880271E-01  0.13763854561E-01  0.00000000000E+00 0. -1.
     999901    1    3    3    0    0  0.77982066439E-01  0.69669383341E-01  0.79550500094E-01  0.88975463344E+00  0.88000000000E+00 0.  1.
        -11    1    4    4    0    0 -0.67381352414E-01 -0.50315234919E-01 -0.49842073079E-01  0.97756651374E-01  0.51100000000E-03 0. -1.
         11    1    4    4    0    0 -0.10248819911E-01 -0.10327846596E-01 -0.40093307286E-01  0.42654860626E-01  0.51100000000E-03 0.  1.
</event>
<event>
 8    1  0.2943605E+004  0.1043930E+01  0.7957747E-01            NaN
         13   -1    0    0    0    0  0.00000000000E+00  0.00000000000E+00  0.74505805969E-08  0.10566000000E+00  0.10566000000E+00 0. -1.
     999900   -1    0    0    0    0 -0.00000000000E+00 -0.00000000000E+00 -0.74505805969E-08  0.93827000000E+00  0.93827000000E+00 0. -1.
     999902    2    1    2    0    0  0.81425472063E-02 -0.30832936311E-02 -0.86174076596E-02  0.10316797964E+01  0.10316070641E+01 0.  0.
     999903    2    3    3    0    0 -0.39046183200E-01 -0.95662568010E-01  0.84337383136E-01  0.14070376331E+00  0.44819900435E-01 0.  0.
         14    1    1    2    0    0 -0.81425472063E-02  0.30832936311E-02  0.86174076596E-02  0.12250203647E-01  0.00000000000E+00 0.  1.
     999901    1    3    3    0    0  0.47188730407E-01  0.92579274379E-01 -0.92954790796E-01  0.89097603304E+00  0.88000000000E+00 0. -1.
        -11    1    4    4    0    0 -0.35125293924E-01 -0.32024373167E-01  0.25496607017E-01  0.53941494606E-01  0.51100000000E-03 0. -1.
         11    1    4    4    0    0 -0.39208892763E-02 -0.63638194843E-01  0.58840776119E-01  0.86762268705E-01  0.51100000000E-03 0.  1.
</event>
<event>
 8    1  0.2943605E+004  0.1043930E+01  0.7957747E-01            NaN
         13   -1    0    0    0    0  0.00000000000E+00  0.00000000000E+00  0.74505805969E-08  0.10566000000E+00  0.10566000000E+00 0.  1.
     999900   -1    0    0    0    0 -0.00000000000E+00 -0.00000000000E+00 -0.74505805969E-08  0.93827000000E+00  0.93827000000E+00 0. -1.
     999902    2    1    2    0    0 -0.56925094929E-02 -0.12845256963E-01  0.24413124707E-03  0.10298777799E+01  0.10297819073E+01 0.  0.
     999903    2    3    3    0    0 -0.85033789510E-03 -0.13400077059E+00 -0.49358128219E-02  0.14154848454E+00  0.45328596197E-01 0.  0.
         14    1    1    2    0    0  0.56925094929E-02  0.12845256963E-01 -0.24413124707E-03  0.14052220139E-01  0.00000000000E+00 0.  1.
     999901    1    3    3    0    0 -0.48421715978E-02  0.12115551363E+00  0.51799440689E-02  0.88832929532E+00  0.88000000000E+00 0. -1.
        -11    1    4    4    0    0 -0.17225078296E-01 -0.26941891096E-01  0.65188416960E-02  0.32639320400E-01  0.51100000000E-03 0. -1.
         11    1    4    4    0    0  0.16374740401E-01 -0.10705887950E+00 -0.11454654518E-01  0.10890916414E+00  0.51100000000E-03 0.  1.
</event>
<event>
 8    1  0.2943605E+004  0.1043930E+01  0.7957747E-01            NaN
         13   -1    0    0    0    0  0.00000000000E+00  0.00000000000E+00  0.74505805969E-08  0.10566000000E+00  0.10566000000E+00 0.  1.
     999900   -1    0    0    0    0 -0.00000000000E+00 -0.00000000000E+00 -0.74505805969E-08  0.93827000000E+00  0.93827000000E+00 0.  1.
     999902    2    1    2    0    0  0.34977897717E-02  0.13144299589E-01 -0.40074444792E-03  0.10303223646E+01  0.10302325016E+01 0.  0.
     999903    2    3    3    0    0 -0.38590901970E-01 -0.31132102241E-01 -0.12340223449E+00  0.13967023033E+00  0.42675476096E-01 0.  0.
         14    1    1    2    0    0 -0.34977897717E-02 -0.13144299589E-01  0.40074444792E-03  0.13607635397E-01  0.00000000000E+00 0.  1.
     999901    1    3    3    0    0  0.42088691742E-01  0.44276401830E-01  0.12300149004E+00  0.89065213427E+00  0.88000000000E+00 0. -1.
        -11    1    4    4    0    0 -0.17698793338E-02 -0.27688889519E-01 -0.43111808466E-01  0.51270812612E-01  0.51100000000E-03 0. -1.
         11    1    4    4    0    0 -0.36821022637E-01 -0.34432127219E-02 -0.80290426019E-01  0.88399417720E-01  0.51100000000E-03 0.  1.
</event>
<event>
 8    1  0.2943605E+004  0.1043930E+01  0.7957747E-01            NaN
         13   -1    0    0    0    0  0.00000000000E+00  0.00000000000E+00  0.74505805969E-08  0.10566000000E+00  0.10566000000E+00 0. -1.
     999900   -1    0    0    0    0 -0.00000000000E+00 -0.00000000000E+00 -0.74505805969E-08  0.93827000000E+00  0.93827000000E+00 0.  1.
     999902    2    1    2    0    0 -0.10105285987E-01  0.35939691649E-02 -0.10501650655E-01  0.10289194009E+01  0.10288099025E+01 0.  0.
     999903    2    3    3    0    0  0.88126845509E-01 -0.65995984815E-01 -0.71603616991E-01  0.13862407705E+00  0.44359281570E-01 0.  0.
         14    1    1    2    0    0  0.10105285987E-01 -0.35939691649E-02  0.10501650655E-01  0.15010599112E-01  0.00000000000E+00 0. -1.
     999901    1    3    3    0    0 -0.98232131496E-01  0.69589953980E-01  0.61101966337E-01  0.89029532384E+00  0.88000000000E+00 0. -1.
        -11    1    4    4    0    0  0.67737471338E-01 -0.23861115109E-01 -0.45644540623E-01  0.85096433810E-01  0.51100000000E-03 0. -1.
         11    1    4    4    0    0  0.20389374170E-01 -0.42134869705E-01 -0.25959076368E-01  0.53527643242E-01  0.51100000000E-03 0.  1.
</event>
<event>
 8    1  0.2943605E+004  0.1043930E+01  0.7957747E-01            NaN
         13   -1    0    0    0    0  0.00000000000E+00  0.00000000000E+00  0.74505805969E-08  0.10566000000E+00  0.10566000000E+00 0. -1.
     999900   -1    0    0    0    0 -0.00000000000E+00 -0.00000000000E+00 -0.74505805969E-08  0.93827000000E+00  0.93827000000E+00 0.  1.
     999902    2    1    2    0    0  0.14417042586E-01  0.13770501336E-02  0.43884721981E-02  0.10287970534E+01  0.10286857494E+01 0.  0.
     999903    2    3    3    0    0 -0.46491940502E-01  0.36982090760E-01  0.11757241408E+00  0.13874748860E+00  0.43570832790E-01 0.  0.
         14    1    1    2    0    0 -0.14417042586E-01 -0.13770501336E-02 -0.43884721981E-02  0.15132946581E-01  0.00000000000E+00 0.  1.
     999901    1    3    3    0    0  0.60908983087E-01 -0.35605040627E-01 -0.11318394189E+00  0.89004956482E+00  0.88000000000E+00 0.  1.
        -11    1    4    4    0    0 -0.47094734377E-01  0.11907819250E-01  0.78365784907E-01  0.92201776178E-01  0.51100000000E-03 0. -1.
         11    1    4    4    0    0  0.60279387509E-03  0.25074271510E-01  0.39206629177E-01  0.46545712419E-01  0.51100000000E-03 0.  1.
</event>
<event>
 8    1  0.2943605E+004  0.1043930E+01  0.7957747E-01            NaN
         13   -1    0    0    0    0  0.00000000000E+00  0.00000000000E+00  0.74505805969E-08  0.10566000000E+00  0.10566000000E+00 0.  1.
     999900   -1    0    0    0    0 -0.00000000000E+00 -0.00000000000E+00 -0.74505805969E-08  0.93827000000E+00  0.93827000000E+00 0.  1.
     999902    2    1    2    0    0  0.96005155704E-02 -0.95357523823E-02 -0.28060118591E-02  0.10301106594E+01  0.10300179593E+01 0.  0.
     999903    2    3    3    0    0 -0.77247100350E-01  0.68200622189E-01  0.80287136204E-01  0.13854466430E+00  0.46153660598E-01 0.  0.
         14    1    1    2    0    0 -0.96005155704E-02  0.95357523823E-02  0.28060118591E-02  0.13819340623E-01  0.00000000000E+00 0. -1.
     999901    1    3    3    0    0  0.86847615920E-01 -0.77736374571E-01 -0.83093148063E-01  0.89156599508E+00  0.88000000000E+00 0. -1.
        -11    1    4    4    0    0 -0.19161738695E-01 -0.36113141476E-02  0.73126831315E-02  0.20831473190E-01  0.51100000000E-03 0. -1.
         11    1    4    4    0    0 -0.58085361655E-01  0.71811936337E-01  0.72974453073E-01  0.11771319111E+00  0.51100000000E-03 0.  1.
</event>
<event>
 8    1  0.2943605E+004  0.1043930E+01  0.7957747E-01            NaN
         13   -1    0    0    0    0  0.00000000000E+00  0.00000000000E+00  0.74505805969E-08  0.10566000000E+00  0.10566000000E+00 0.  1.
     999900   -1    0    0    0    0 -0.00000000000E+00 -0.00000000000E+00 -0.74505805969E-08  0.93827000000E+00  0.93827000000E+00 0.  1.
     999902    2    1    2    0    0  0.45855679640E-02  0.49231436785E-02  0.18135874855E-01  0.10245864033E+01  0.10244037891E+01 0.  0.
     999903    2    3    3    0    0  0.39535330804E-01 -0.10108851923E+00 -0.64215686236E-01  0.13372067928E+00  0.44448111373E-01 0.  0.
         14    1    1    2    0    0 -0.45855679640E-02 -0.49231436785E-02 -0.18135874855E-01  0.19343596718E-01  0.00000000000E+00 0. -1.
     999901    1    3    3    0    0 -0.34949762840E-01  0.10601166291E+00  0.82351561091E-01  0.89086572401E+00  0.88000000000E+00 0. -1.
        -11    1    4    4    0    0  0.26458592693E-02 -0.40368950973E-01 -0.41264680891E-02  0.40668681241E-01  0.51100000000E-03 0.  1.
         11    1    4    4    0    0  0.36889471535E-01 -0.60719568259E-01 -0.60089218147E-01  0.93051998035E-01  0.51100000000E-03 0. -1.
</event>
<event>
 8    1  0.2943605E+004  0.1043930E+01  0.7957747E-01            NaN
         13   -1    0    0    0    0  0.00000000000E+00  0.00000000000E+00  0.74505805969E-08  0.10566000000E+00  0.10566000000E+00 0.  1.
     999900   -1    0    0    0    0 -0.00000000000E+00 -0.00000000000E+00 -0.74505805969E-08  0.93827000000E+00  0.93827000000E+00 0. -1.
     999902    2    1    2    0    0  0.73551247138E-02 -0.54143822194E-02  0.10978388186E-01  0.10296492997E+01  0.10295502620E+01 0.  0.
     999903    2    3    3    0    0 -0.92085456719E-01  0.51661431361E-01 -0.76507733556E-01  0.13790948380E+00  0.44910551087E-01 0.  0.
         14    1    1    2    0    0 -0.73551247138E-02  0.54143822194E-02 -0.10978388186E-01  0.14280700317E-01  0.00000000000E+00 0. -1.
     999901    1    3    3    0    0  0.99440581433E-01 -0.57075813581E-01  0.87486121743E-01  0.89173981588E+00  0.88000000000E+00 0.  1.
        -11    1    4    4    0    0 -0.42867478422E-02  0.83741126377E-02 -0.26211388193E-01  0.27853185841E-01  0.51100000000E-03 0. -1.
         11    1    4    4    0    0 -0.87798708877E-01  0.43287318724E-01 -0.50296345364E-01  0.11005629796E+00  0.51100000000E-03 0.  1.
</event>
<event>
 8    1  0.2943605E+004  0.1043930E+01  0.7957747E-01            NaN
         13   -1    0    0    0    0  0.00000000000E+00  0.00000000000E+00  0.74505805969E-08  0.10566000000E+00  0.10566000000E+00 0. -1.
     999900   -1    0    0    0    0 -0.00000000000E+00 -0.00000000000E+00 -0.74505805969E-08  0.93827000000E+00  0.93827000000E+00 0. -1.
     999902    2    1    2    0    0 -0.61955561258E-02  0.87604027641E-02  0.83549479931E-02  0.10303309291E+01  0.10302411799E+01 0.  0.
     999903    2    3    3    0    0 -0.22325812587E-01 -0.89138266284E-01 -0.93510040145E-01  0.13891586847E+00  0.45928406045E-01 0.  0.
         14    1    1    2    0    0  0.61955561258E-02 -0.87604027641E-02 -0.83549479931E-02  0.13599070860E-01  0.00000000000E+00 0.  1.
     999901    1    3    3    0    0  0.16130256461E-01  0.97898669048E-01  0.10186498814E+00  0.89141506067E+00  0.88000000000E+00 0.  1.
        -11    1    4    4    0    0  0.43431315042E-02 -0.26316450672E-01 -0.49901979062E-02  0.27140036171E-01  0.51100000000E-03 0. -1.
         11    1    4    4    0    0 -0.26668944091E-01 -0.62821815612E-01 -0.88519842239E-01  0.11177583230E+00  0.51100000000E-03 0.  1.
</event>
<event>
 8    1  0.2943605E+004  0.1043930E+01  0.7957747E-01            NaN
         13   -1    0    0    0    0  0.00000000000E+00  0.00000000000E+00  0.74505805969E-08  0.10566000000E+00  0.10566000000E+00 0.  1.
     999900   -1    0    0    0    0 -0.00000000000E+00 -0.00000000000E+00 -0.74505805969E-08  0.93827000000E+00  0.93827000000E+00 0. -1.
     999902    2    1    2    0    0  0.60783395819E-02  0.11897748776E-03 -0.12828838178E-01  0.10297335407E+01  0.10296356760E+01 0.  0.
     999903    2    3    3    0    0 -0.63591898500E-01 -0.11344317756E+00  0.11781626520E-03  0.13961112159E+00  0.50773687088E-01 0.  0.
         14    1    1    2    0    0 -0.60783395819E-02 -0.11897748776E-03  0.12828838178E-01  0.14196459302E-01  0.00000000000E+00 0.  1.
     999901    1    3    3    0    0  0.69670238082E-01  0.11356215505E+00 -0.12946654443E-01  0.89012241911E+00  0.88000000000E+00 0. -1.
        -11    1    4    4    0    0 -0.25794440074E-01 -0.31054038206E-01  0.22530960623E-01  0.46234313396E-01  0.51100000000E-03 0.  1.
         11    1    4    4    0    0 -0.37797458426E-01 -0.82389139359E-01 -0.22413144357E-01  0.93376808196E-01  0.51100000000E-03 0. -1.
</event>
<event>
 8    1  0.2943605E+004  0.1043930E+01  0.7957747E-01            NaN
         13   -1    0    0    0    0  0.00000000000E+00  0.00000000000E+00  0.74505805969E-08  0.10566000000E+00  0.10566000000E+00 0. -1.
     999900   -1    0    0    0    0 -0.00000000000E+00 -0.00000000000E+00 -0.74505805969E-08  0.93827000000E+00  0.93827000000E+00 0.  1.
     999902    2    1    2    0    0 -0.69275385735E-02  0.84722932859E-03  0.37023078750E-02  0.10360296410E+01  0.10359995181E+01 0.  0.
     999903    2    3    3    0    0  0.51662482374E-01 -0.33800595252E-01 -0.12252724801E+00  0.14442033025E+00  0.45086727079E-01 0.  0.
         14    1    1    2    0    0  0.69275385735E-02 -0.84722932859E-03 -0.37023078750E-02  0.79003589680E-02  0.00000000000E+00 0.  1.
     999901    1    3    3    0    0 -0.58590020948E-01  0.34647824581E-01  0.12622955589E+00  0.89160931079E+00  0.88000000000E+00 0. -1.
        -11    1    4    4    0    0  0.30750305116E-01  0.55032582615E-02 -0.60187272255E-01  0.67813243387E-01  0.51100000000E-03 0. -1.
         11    1    4    4    0    0  0.20912177258E-01 -0.39303853514E-01 -0.62339975755E-01  0.76607086858E-01  0.51100000000E-03 0.  1.
</event>
<event>
 8    1  0.2943605E+004  0.1043930E+01  0.7957747E-01            NaN
         13   -1    0    0    0    0  0.00000000000E+00  0.00000000000E+00  0.74505805969E-08  0.10566000000E+00  0.10566000000E+00 0. -1.
     999900   -1    0    0    0    0 -0.00000000000E+00 -0.00000000000E+00 -0.74505805969E-08  0.93827000000E+00  0.93827000000E+00 0. -1.
     999902    2    1    2    0    0 -0.13644015690E-01 -0.17447301900E-02  0.12617650572E-03  0.10301743042E+01  0.10300824616E+01 0.  0.
     999903    2    3    3    0    0 -0.84845798384E-01 -0.10222062843E+00 -0.21209899335E-01  0.14134342704E+00  0.43361713025E-01 0.  0.
         14    1    1    2    0    0  0.13644015690E-01  0.17447301900E-02 -0.12617650572E-03  0.13755695842E-01  0.00000000000E+00 0. -1.
     999901    1    3    3    0    0  0.71201782694E-01  0.10047589824E+00  0.21336075840E-01  0.88883087712E+00  0.88000000000E+00 0.  1.
        -11    1    4    4    0    0 -0.51530590776E-01 -0.90988450965E-01 -0.16712032067E-01  0.10589548211E+00  0.51100000000E-03 0.  1.
         11    1    4    4    0    0 -0.33315207609E-01 -0.11232177470E-01 -0.44978672680E-02  0.35447944929E-01  0.51100000000E-03 0. -1.
</event>
<event>
 8    1  0.2943605E+004  0.1043930E+01  0.7957747E-01            NaN
         13   -1    0    0    0    0  0.00000000000E+00  0.00000000000E+00  0.74505805969E-08  0.10566000000E+00  0.10566000000E+00 0.  1.
     999900   -1    0    0    0    0 -0.00000000000E+00 -0.00000000000E+00 -0.74505805969E-08  0.93827000000E+00  0.93827000000E+00 0. -1.
     999902    2    1    2    0    0  0.48113405090E-02  0.33603715052E-02  0.13596021263E-01  0.10291214589E+01  0.10290149097E+01 0.  0.
     999903    2    3    3    0    0  0.76943387131E-01 -0.77577908254E-01  0.75697785404E-01  0.14029601692E+00  0.44879850435E-01 0.  0.
         14    1    1    2    0    0 -0.48113405090E-02 -0.33603715052E-02 -0.13596021263E-01  0.14808541060E-01  0.00000000000E+00 0. -1.
     999901    1    3    3    0    0 -0.72132046622E-01  0.80938279759E-01 -0.62101764141E-01  0.88882544202E+00  0.88000000000E+00 0. -1.
        -11    1    4    4    0    0  0.27331390619E-01 -0.10871791149E-01  0.40405513632E-01  0.49980670352E-01  0.51100000000E-03 0.  1.
         11    1    4    4    0    0  0.49611996513E-01 -0.66706117104E-01  0.35292271772E-01  0.90315346564E-01  0.51100000000E-03 0. -1.
</event>
<event>
 8    1  0.2943605E+004  0.1043930E+01  0.7957747E-01            NaN
         13   -1    0    0    0    0  0.00000000000E+00  0.00000000000E+00  0.74505805969E-08  0.10566000000E+00  0.10566000000E+00 0.  1.
     999900   -1    0    0    0    0 -0.00000000000E+00 -0.00000000000E+00 -0.74505805969E-08  0.93827000000E+00  0.93827000000E+00 0.  1.
     999902    2    1    2    0    0  0.35846701526E-03 -0.13219500273E-01 -0.21635646021E-02  0.10305298247E+01  0.10304426985E+01 0.  0.
     999903    2    3    3    0    0 -0.88501779852E-02 -0.97954724437E-01  0.91402097573E-01  0.14147448869E+00  0.44578400830E-01 0.  0.
         14    1    1    2    0    0 -0.35846701526E-03  0.13219500273E-01  0.21635646021E-02  0.13400175292E-01  0.00000000000E+00 0. -1.
     999901    1    3    3    0    0  0.92086450004E-02  0.84735224164E-01 -0.93565662175E-01  0.88905533601E+00  0.88000000000E+00 0.  1.
        -11    1    4    4    0    0 -0.18711253655E-01 -0.93380823675E-01  0.72615815992E-01  0.11976396410E+00  0.51100000000E-03 0. -1.
         11    1    4    4    0    0  0.98610756699E-02 -0.45739007624E-02  0.18786281581E-01  0.21710524595E-01  0.51100000000E-03 0.  1.
</event>
<event>
 8    1  0.2943605E+004  0.1043930E+01  0.7957747E-01            NaN
         13   -1    0    0    0    0  0.00000000000E+00  0.00000000000E+00  0.74505805969E-08  0.10566000000E+00  0.10566000000E+00 0.  1.
     999900   -1    0    0    0    0 -0.00000000000E+00 -0.00000000000E+00 -0.74505805969E-08  0.93827000000E+00  0.93827000000E+00 0.  1.
     999902    2    1    2    0    0 -0.64804466917E-02 -0.71244250663E-02 -0.91327703702E-02  0.10306574299E+01  0.10305719658E+01 0.  0.
     999903    2    3    3    0    0  0.10738108768E-01  0.67933039759E-01 -0.11374916020E+00  0.14112120767E+00  0.47393237261E-01 0.  0.
         14    1    1    2    0    0  0.64804466917E-02  0.71244250663E-02  0.91327703702E-02  0.13272570078E-01  0.00000000000E+00 0.  1.
     999901    1    3    3    0    0 -0.17218555459E-01 -0.75057464825E-01  0.10461638983E+00  0.88953622225E+00  0.88000000000E+00 0. -1.
        -11    1    4    4    0    0 -0.35492106660E-02  0.19137951274E-01 -0.35976816192E-02  0.19800568409E-01  0.51100000000E-03 0.  1.
         11    1    4    4    0    0  0.14287319434E-01  0.48795088485E-01 -0.11015147858E+00  0.12132063926E+00  0.51100000000E-03 0. -1.
</event>
<event>
 8    1  0.2943605E+004  0.1043930E+01  0.7957747E-01            NaN
         13   -1    0    0    0    0  0.00000000000E+00  0.00000000000E+00  0.74505805969E-08  0.10566000000E+00  0.10566000000E+00 0. -1.
     999900   -1    0    0    0    0 -0.00000000000E+00 -0.00000000000E+00 -0.74505805969E-08  0.93827000000E+00  0.93827000000E+00 0.  1.
     999902    2    1    2    0    0  0.31470313935E-02 -0.46321589192E-02 -0.86331424921E-02  0.10336396233E+01  0.10335883992E+01 0.  0.
     999903    2    3    3    0    0  0.12981161727E+00 -0.94416010514E-02 -0.41854922758E-01  0.14393701305E+00  0.45009214153E-01 0.  0.
         14    1    1    2    0    0 -0.31470313935E-02  0.46321589192E-02  0.86331424921E-02  0.10290376676E-01  0.00000000000E+00 0. -1.
     999901    1    3    3    0    0 -0.12666458587E+00  0.48094421322E-02  0.33221780266E-01  0.88970261028E+00  0.88000000000E+00 0. -1.
        -11    1    4    4    0    0  0.31984199057E-02  0.36497602797E-02 -0.12341334639E-01  0.13271032427E-01  0.51100000000E-03 0. -1.
         11    1    4    4    0    0  0.12661319736E+00 -0.13091361331E-01 -0.29513588119E-01  0.13066598062E+00  0.51100000000E-03 0.  1.
</event>
<event>
 8    1  0.2943605E+004  0.1043930E+01  0.7957747E-01            NaN
         13   -1    0    0    0    0  0.00000000000E+00  0.00000000000E+00  0.74505805969E-08  0.10566000000E+00  0.10566000000E+00 0.  1.
     999900   -1    0    0    0    0 -0.00000000000E+00 -0.00000000000E+00 -0.74505805969E-08  0.93827000000E+00  0.93827000000E+00 0. -1.
     999902    2    1    2    0    0 -0.18008709777E-02  0.68388071166E-02 -0.11933122082E-01  0.10300587412E+01  0.10299653385E+01 0.  0.
     999903    2    3    3    0    0  0.17151085354E-01  0.12689462319E+00  0.35509425292E-01  0.14043895107E+00  0.45450792845E-01 0.  0.
         14    1    1    2    0    0  0.18008709777E-02 -0.68388071166E-02  0.11933122082E-01  0.13871258835E-01  0.00000000000E+00 0.  1.
     999901    1    3    3    0    0 -0.18951956332E-01 -0.12005581607E+00 -0.47442547374E-01  0.88961979009E+00  0.88000000000E+00 0. -1.
        -11    1    4    4    0    0  0.21104838862E-01  0.22839091382E-01  0.25062673070E-02  0.31202256575E-01  0.51100000000E-03 0.  1.
         11    1    4    4    0    0 -0.39537535079E-02  0.10405553181E+00  0.33003157985E-01  0.10923669450E+00  0.51100000000E-03 0. -1.
</event>
<event>
 8    1  0.2943605E+004  0.1043930E+01  0.7957747E-01            NaN
         13   -1    0    0    0    0  0.00000000000E+00  0.00000000000E+00  0.74505805969E-08  0.10566000000E+00  0.10566000000E+00 0.  1.
     999900   -1    0    0    0    0 -0.00000000000E+00 -0.00000000000E+00 -0.74505805969E-08  0.93827000000E+00  0.93827000000E+00 0. -1.
     999902    2    1    2    0    0 -0.30102302293E-03 -0.11415825161E-01 -0.59751225459E-02  0.10310414870E+01  0.10309609275E+01 0.  0.
     999903    2    3    3    0    0  0.75959479952E-01  0.56145327799E-01 -0.94403416452E-01  0.14076078018E+00  0.44491030224E-01 0.  0.
         14    1    1    2    0    0  0.30102302293E-03  0.11415825161E-01  0.59751225459E-02  0.12888513041E-01  0.00000000000E+00 0. -1.
     999901    1    3    3    0    0 -0.76260502975E-01 -0.67561152960E-01  0.88428293906E-01  0.89028070678E+00  0.88000000000E+00 0.  1.
        -11    1    4    4    0    0  0.25955514950E-01  0.37072566258E-01 -0.66399296976E-01  0.80356653023E-01  0.51100000000E-03 0. -1.
         11    1    4    4    0    0  0.50003965002E-01  0.19072761541E-01 -0.28004119476E-01  0.60404127155E-01  0.51100000000E-03 0.  1.
</event>
<event>
 8    1  0.2943605E+004  0.1043930E+01  0.7957747E-01            NaN
         13   -1    0    0    0    0  0.00000000000E+00  0.00000000000E+00  0.74505805969E-08  0.10566000000E+00  0.10566000000E+00 0.  1.
     999900   -1    0    0    0    0 -0.00000000000E+00 -0.00000000000E+00 -0.74505805969E-08  0.93827000000E+00  0.93827000000E+00 0.  1.
     999902    2    1    2    0    0 -0.65976564988E-02  0.11221860843E-01  0.59489492599E-02  0.10296174450E+01  0.10295179619E+01 0.  0.
     999903    2    3    3    0    0 -0.10375439749E+00  0.54097356951E-01  0.64423841311E-01  0.14130609564E+00  0.46102953334E-01 0.  0.
         14    1    1    2    0    0  0.65976564988E-02 -0.11221860843E-01 -0.59489492599E-02  0.14312554955E-01  0.00000000000E+00 0. -1.
     999901    1    3    3    0    0  0.97156740996E-01 -0.42875496108E-01 -0.58474892051E-01  0.88831134941E+00  0.88000000000E+00 0.  1.
        -11    1    4    4    0    0 -0.49551596964E-01  0.48837016990E-01  0.24433595585E-01  0.73740604177E-01  0.51100000000E-03 0.  1.
         11    1    4    4    0    0 -0.54202800531E-01  0.52603399612E-02  0.39990245726E-01  0.67565491460E-01  0.51100000000E-03 0. -1.
</event>
<event>
 8    1  0.2943605E+004  0.1043930E+01  0.7957747E-01            NaN
         13   -1    0    0    0    0  0.00000000000E+00  0.00000000000E+00  0.74505805969E-08  0.10566000000E+00  0.10566000000E+00 0.  1.
     999900   -1    0    0    0    0 -0.00000000000E+00 -0.00000000000E+00 -0.74505805969E-08  0.93827000000E+00  0.93827000000E+00 0.  1.
     999902    2    1    2    0    0 -0.26300593418E-02 -0.10849662098E-01 -0.76014588116E-02  0.10304239067E+01  0.10303353886E+01 0.  0.
     999903    2    3    3    0    0 -0.12149057331E+00 -0.56013375115E-01 -0.48524229878E-02  0.14128098235E+00  0.45158746326E-01 0.  0.
         14    1    1    2    0    0  0.26300593418E-02  0.10849662098E-01  0.76014588116E-02  0.13506093286E-01  0.00000000000E+00 0.  1.
     999901    1    3    3    0    0  0.11886051397E+00  0.45163713017E-01 -0.27490358238E-02  0.88914292437E+00  0.88000000000E+00 0. -1.
        -11    1    4    4    0    0 -0.63363840781E-01 -0.21970285869E-01  0.19185197928E-01  0.69756739604E-01  0.51100000000E-03 0.  1.
         11    1    4    4    0    0 -0.58126732527E-01 -0.34043089246E-01 -0.24037620916E-01  0.71524242743E-01  0.51100000000E-03 0. -1.
</event>
<event>
 8    1  0.2943605E+004  0.1043930E+01  0.7957747E-01            NaN
         13   -1    0    0    0    0  0.00000000000E+00  0.00000000000E+00  0.74505805969E-08  0.10566000000E+00  0.10566000000E+00 0. -1.
     999900   -1    0    0    0    0 -0.00000000000E+00 -0.00000000000E+00 -0.74505805969E-08  0.93827000000E+00  0.93827000000E+00 0. -1.
     999902    2    1    2    0    0  0.14088632339E-01  0.94445814366E-03  0.28618983657E-02  0.10295226399E+01  0.10294218251E+01 0.  0.
     999903    2    3    3    0    0 -0.44062297965E-01 -0.12219706266E+00 -0.25504981348E-01  0.13859613077E+00  0.41046012779E-01 0.  0.
         14    1    1    2    0    0 -0.14088632339E-01 -0.94445814366E-03 -0.28618983657E-02  0.14407360085E-01  0.00000000000E+00 0.  1.
     999901    1    3    3    0    0  0.58150930304E-01  0.12314152080E+00  0.28366879713E-01  0.89092650915E+00  0.88000000000E+00 0. -1.
        -11    1    4    4    0    0 -0.18523690303E-01 -0.32992705111E-01 -0.25812595665E-01  0.45806079388E-01  0.51100000000E-03 0. -1.
         11    1    4    4    0    0 -0.25538607661E-01 -0.89204357549E-01  0.30761431736E-03  0.92790051377E-01  0.51100000000E-03 0.  1.
</event>
<event>
 8    1  0.2943605E+004  0.1043930E+01  0.7957747E-01            NaN
         13   -1    0    0    0    0  0.00000000000E+00  0.00000000000E+00  0.74505805969E-08  0.10566000000E+00  0.10566000000E+00 0.  1.
     999900   -1    0    0    0    0 -0.00000000000E+00 -0.00000000000E+00 -0.74505805969E-08  0.93827000000E+00  0.93827000000E+00 0. -1.
     999902    2    1    2    0    0 -0.85713459972E-02 -0.98892921443E-02  0.45960984261E-02  0.10300595208E+01  0.10299661287E+01 0.  0.
     999903    2    3    3    0    0 -0.53809931814E-01  0.75652341468E-01  0.94742642059E-01  0.14017733760E+00  0.45329154195E-01 0.  0.
         14    1    1    2    0    0  0.85713459972E-02  0.98892921443E-02 -0.45960984261E-02  0.13870479158E-01  0.00000000000E+00 0. -1.
     999901    1    3    3    0    0  0.45238585817E-01 -0.85541633613E-01 -0.90146543633E-01  0.88988218324E+00  0.88000000000E+00 0.  1.
        -11    1    4    4    0    0 -0.40384666700E-01  0.27290426818E-01  0.66914540585E-01  0.82785901958E-01  0.51100000000E-03 0.  1.
         11    1    4    4    0    0 -0.13425265114E-01  0.48361914650E-01  0.27828101475E-01  0.57391435639E-01  0.51100000000E-03 0. -1.
</event>
<event>
 8    1  0.2943605E+004  0.1043930E+01  0.7957747E-01            NaN
         13   -1    0    0    0    0  0.00000000000E+00  0.00000000000E+00  0.74505805969E-08  0.10566000000E+00  0.10566000000E+00 0.  1.
     999900   -1    0    0    0    0 -0.00000000000E+00 -0.00000000000E+00 -0.74505805969E-08  0.93827000000E+00  0.93827000000E+00 0. -1.
     999902    2    1    2    0    0  0.59987590547E-02  0.12224423560E-01  0.55259275247E-02  0.10292345069E+01  0.10291295899E+01 0.  0.
     999903    2    3    3    0    0 -0.64388246639E-01  0.11589628055E+00 -0.43702783356E-02  0.14030249637E+00  0.45693511618E-01 0.  0.
         14    1    1    2    0    0 -0.59987590547E-02 -0.12224423560E-01 -0.55259275247E-02  0.14695493070E-01  0.00000000000E+00 0. -1.
     999901    1    3    3    0    0  0.70387005694E-01 -0.10367185699E+00  0.98962058603E-02  0.88893201056E+00  0.88000000000E+00 0. -1.
        -11    1    4    4    0    0 -0.37046106727E-01  0.68528471672E-01  0.19991849635E-01  0.80426989414E-01  0.51100000000E-03 0.  1.
         11    1    4    4    0    0 -0.27342139912E-01  0.47367808882E-01 -0.24362127971E-01  0.59875506958E-01  0.51100000000E-03 0. -1.
</event>
<event>
 8    1  0.2943605E+004  0.1043930E+01  0.7957747E-01            NaN
         13   -1    0    0    0    0  0.00000000000E+00  0.00000000000E+00  0.74505805969E-08  0.10566000000E+00  0.10566000000E+00 0. -1.
     999900   -1    0    0    0    0 -0.00000000000E+00 -0.00000000000E+00 -0.74505805969E-08  0.93827000000E+00  0.93827000000E+00 0.  1.
     999902    2    1    2    0    0  0.10212837676E-01 -0.64066907187E-02  0.71199566790E-02  0.10299285171E+01  0.10298333403E+01 0.  0.
     999903    2    3    3    0    0  0.49903160279E-01 -0.64620250720E-01  0.10639448044E+00  0.14154820930E+00  0.45277012700E-01 0.  0.
         14    1    1    2    0    0 -0.10212837676E-01  0.64066907187E-02 -0.71199566790E-02  0.14001482867E-01  0.00000000000E+00 0.  1.
     999901    1    3    3    0    0 -0.39690322602E-01  0.58213560001E-01 -0.99274523762E-01  0.88838030783E+00  0.88000000000E+00 0.  1.
        -11    1    4    4    0    0  0.42085527857E-01 -0.54200541848E-01  0.53339837869E-01  0.86915417600E-01  0.51100000000E-03 0. -1.
         11    1    4    4    0    0  0.78176324220E-02 -0.10419708872E-01  0.53054642571E-01  0.54632791701E-01  0.51100000000E-03 0.  1.
</event>
<event>
 8    1  0.2943605E+004  0.1043930E+01  0.7957747E-01            NaN
         13   -1    0    0    0    0  0.00000000000E+00  0.00000000000E+00  0.74505805969E-08  0.10566000000E+00  0.10566000000E+00 0.  1.
     999900   -1    0    0    0    0 -0.00000000000E+00 -0.00000000000E+00 -0.74505805969E-08  0.93827000000E+00  0.93827000000E+00 0. -1.
     999902    2    1    2    0    0  0.52014494551E-02 -0.15838820536E-01 -0.80798166195E-02  0.10254041600E+01  0.10252367944E+01 0.  0.
     999903    2    3    3    0    0  0.44397510280E-01 -0.11816067390E+00 -0.33495963446E-01  0.13824460646E+00  0.45348736159E-01 0.  0.
         14    1    1    2    0    0 -0.52014494551E-02  0.15838820536E-01  0.80798166195E-02  0.18525840036E-01  0.00000000000E+00 0.  1.
     999901    1    3    3    0    0 -0.39196060825E-01  0.10232185337E+00  0.25416146827E-01  0.88715955351E+00  0.88000000000E+00 0.  1.
        -11    1    4    4    0    0  0.54537559647E-02 -0.43935902335E-01 -0.31608492433E-01  0.54400963990E-01  0.51100000000E-03 0. -1.
         11    1    4    4    0    0  0.38943754315E-01 -0.74224771567E-01 -0.18874710129E-02  0.83843642467E-01  0.51100000000E-03 0.  1.
</event>
<event>
 8    1  0.2943605E+004  0.1043930E+01  0.7957747E-01            NaN
         13   -1    0    0    0    0  0.00000000000E+00  0.00000000000E+00  0.74505805969E-08  0.10566000000E+00  0.10566000000E+00 0.  1.
     999900   -1    0    0    0    0 -0.00000000000E+00 -0.00000000000E+00 -0.74505805969E-08  0.93827000000E+00  0.93827000000E+00 0.  1.
     999902    2    1    2    0    0  0.57447868438E-02 -0.10985085460E-01  0.50324430839E-02  0.10305509058E+01  0.10304640553E+01 0.  0.
     999903    2    3    3    0    0  0.46579256828E-01  0.10914607785E+00  0.58710483768E-01  0.13983193643E+00  0.44983953406E-01 0.  0.
         14    1    1    2    0    0 -0.57447868438E-02  0.10985085460E-01 -0.50324430839E-02  0.13379094208E-01  0.00000000000E+00 0.  1.
     999901    1    3    3    0    0 -0.40834469984E-01 -0.12013116331E+00 -0.53678040685E-01  0.89071896937E+00  0.88000000000E+00 0. -1.
        -11    1    4    4    0    0 -0.58614072219E-02  0.16967865281E-01  0.20138133861E-01  0.26982774194E-01  0.51100000000E-03 0. -1.
         11    1    4    4    0    0  0.52440664049E-01  0.92178212566E-01  0.38572349908E-01  0.11284916223E+00  0.51100000000E-03 0.  1.
</event>
<event>
 8    1  0.2943605E+004  0.1043930E+01  0.7957747E-01            NaN
         13   -1    0    0    0    0  0.00000000000E+00  0.00000000000E+00  0.74505805969E-08  0.10566000000E+00  0.10566000000E+00 0.  1.
     999900   -1    0    0    0    0 -0.00000000000E+00 -0.00000000000E+00 -0.74505805969E-08  0.93827000000E+00  0.93827000000E+00 0. -1.
     999902    2    1    2    0    0  0.54416064325E-02  0.12749640815E-01  0.16577031457E-02  0.10299688968E+01  0.10298742720E+01 0.  0.
     999903    2    3    3    0    0 -0.31366678029E-01  0.84317625312E-01 -0.98445450664E-01  0.14064473345E+00  0.44677778154E-01 0.  0.
         14    1    1    2    0    0 -0.54416064325E-02 -0.12749640815E-01 -0.16577031457E-02  0.13961103151E-01  0.00000000000E+00 0.  1.
     999901    1    3    3    0    0  0.36808284462E-01 -0.71567984498E-01  0.10010315381E+00  0.88932416340E+00  0.88000000000E+00 0.  1.
        -11    1    4    4    0    0 -0.13304464003E-02  0.42418396266E-01 -0.20355713702E-01  0.47071293064E-01  0.51100000000E-03 0. -1.
         11    1    4    4    0    0 -0.30036231629E-01  0.41899229047E-01 -0.78089736962E-01  0.93573440383E-01  0.51100000000E-03 0.  1.
</event>
<event>
 8    1  0.2943605E+004  0.1043930E+01  0.7957747E-01            NaN
         13   -1    0    0    0    0  0.00000000000E+00  0.00000000000E+00  0.74505805969E-08  0.10566000000E+00  0.10566000000E+00 0.  1.
     999900   -1    0    0    0    0 -0.00000000000E+00 -0.00000000000E+00 -0.74505805969E-08  0.93827000000E+00  0.93827000000E+00 0. -1.
     999902    2    1    2    0    0 -0.25088460556E-03  0.66595629404E-02 -0.11817916898E-01  0.10303625433E+01  0.10302732136E+01 0.  0.
     999903    2    3    3    0    0 -0.92447341554E-01 -0.94576939205E-01 -0.40684028718E-02  0.13973968764E+00  0.44936844692E-01 0.  0.
         14    1    1    2    0    0  0.25088460556E-03 -0.66595629404E-02  0.11817916898E-01  0.13567456705E-01  0.00000000000E+00 0.  1.
     999901    1    3    3    0    0  0.92196456949E-01  0.10123650215E+00 -0.77495140260E-02  0.89062285565E+00  0.88000000000E+00 0.  1.
        -11    1    4    4    0    0 -0.66821105255E-01 -0.57201825866E-01  0.17280050396E-01  0.89643573404E-01  0.51100000000E-03 0.  1.
         11    1    4    4    0    0 -0.25626236299E-01 -0.37375113340E-01 -0.21348453268E-01  0.50096114240E-01  0.51100000000E-03 0. -1.
</event>
<event>
 8    1  0.2943605E+004  0.1043930E+01  0.7957747E-01            NaN
         13   -1    0    0    0    0  0.00000000000E+00  0.00000000000E+00  0.74505805969E-08  0.10566000000E+00  0.10566000000E+00 0.  1.
     999900   -1    0    0    0    0 -0.00000000000E+00 -0.00000000000E+00 -0.74505805969E-08  0.93827000000E+00  0.93827000000E+00 0.  1.
     999902    2    1    2    0    0 -0.55149436697E-02 -0.65885968738E-02  0.63551086340E-02  0.10332430164E+01  0.10331877464E+01 0.  0.
     999903    2    3    3    0    0 -0.12505464384E+00  0.37486463823E-01  0.39386910874E-01  0.14345458603E+00  0.44542009252E-01 0.  0.
         14    1    1    2    0    0  0.55149436697E-02  0.65885968738E-02 -0.63551086340E-02  0.10686983587E-01  0.00000000000E+00 0. -1.
     999901    1    3    3    0    0  0.11953970017E+00 -0.44075060697E-01 -0.33031802240E-01  0.88978843039E+00  0.88000000000E+00 0.  1.
        -11    1    4    4    0    0 -0.37536142982E-01  0.31238960370E-01  0.45493165057E-02  0.49048874367E-01  0.51100000000E-03 0.  1.
         11    1    4    4    0    0 -0.87518500856E-01  0.62475034528E-02  0.34837594368E-01  0.94405711659E-01  0.51100000000E-03 0. -1.
</event>
<event>
 7    1  0.2943605E+004  0.1043930E+01  0.7957747E-01            NaN
         13   -1    0    0    0    0  0.00000000000E+00  0.00000000000E+00  0.74505805969E-08  0.10566000000E+00  0.10566000000E+00 0. -1.
     999900   -1    0    0    0    0 -0.00000000000E+00 -0.00000000000E+00 -0.74505805969E-08  0.93827000000E+00  0.93827000000E+00 0.  1.
     999903    2    1    2    0    0  0.65379834891E-01  0.73795401491E-02 -0.36210837094E-01  0.85448122996E-01  0.40757533996E-01 0.  0.
         14    1    1    2    0    0 -0.43402323945E-01 -0.58174483041E-01 -0.18966571159E-01  0.75018417888E-01  0.00000000000E+00 0.  1.
     999901    1    1    2    0    0 -0.21977510945E-01  0.50794942892E-01  0.55177408253E-01  0.88346345912E+00  0.88000000000E+00 0.  1.
        -11    1    3    3    0    0  0.52485733133E-01 -0.44768565024E-02 -0.95405130681E-02  0.53535753822E-01  0.51100000000E-03 0.  1.
         11    1    3    3    0    0  0.12894101757E-01  0.11856396651E-01 -0.26670324026E-01  0.31912369174E-01  0.51100000000E-03 0. -1.
</event>
<event>
 8    1  0.2943605E+004  0.1043930E+01  0.7957747E-01            NaN
         13   -1    0    0    0    0  0.00000000000E+00  0.00000000000E+00  0.74505805969E-08  0.10566000000E+00  0.10566000000E+00 0. -1.
     999900   -1    0    0    0    0 -0.00000000000E+00 -0.00000000000E+00 -0.74505805969E-08  0.93827000000E+00  0.93827000000E+00 0.  1.
     999902    2    1    2    0    0  0.10867328844E-01  0.75834859355E-02  0.13164734078E-02  0.10306130485E+01  0.10305270082E+01 0.  0.
     999903    2    3    3    0    0  0.12766895957E+00  0.30154764421E-01 -0.30620316036E-01  0.14203438452E+00  0.45027653476E-01 0.  0.
         14    1    1    2    0    0 -0.10867328844E-01 -0.75834859355E-02 -0.13164734078E-02  0.13316951504E-01  0.00000000000E+00 0. -1.
     999901    1    3    3    0    0 -0.11680163072E+00 -0.22571278485E-01  0.31936789444E-01  0.88857866398E+00  0.88000000000E+00 0. -1.
        -11    1    4    4    0    0  0.14864181631E-01 -0.10239050557E-01 -0.93752175892E-02  0.20345463320E-01  0.51100000000E-03 0.  1.
         11    1    4    4    0    0  0.11280477794E+00  0.40393814978E-01 -0.21245098447E-01  0.12168892120E+00  0.51100000000E-03 0. -1.
</event>
<event>
 8    1  0.2943605E+004  0.1043930E+01  0.7957747E-01            NaN
         13   -1    0    0    0    0  0.00000000000E+00  0.00000000000E+00  0.74505805969E-08  0.10566000000E+00  0.10566000000E+00 0. -1.
     999900   -1    0    0    0    0 -0.00000000000E+00 -0.00000000000E+00 -0.74505805969E-08  0.93827000000E+00  0.93827000000E+00 0. -1.
     999902    2    1    2    0    0  0.58148348671E-02 -0.34905458351E-02 -0.10962762243E-01  0.10310389810E+01  0.10309583900E+01 0.  0.
     999903    2    3    3    0    0  0.94597572686E-01  0.81895197724E-01  0.46599340700E-01  0.14059723926E+00  0.44051798677E-01 0.  0.
         14    1    1    2    0    0 -0.58148348671E-02  0.34905458351E-02  0.10962762243E-01  0.12891018996E-01  0.00000000000E+00 0.  1.
     999901    1    3    3    0    0 -0.88782737819E-01 -0.85385743559E-01 -0.57562102943E-01  0.89044174174E+00  0.88000000000E+00 0.  1.
        -11    1    4    4    0    0  0.46809647350E-01  0.15004874979E-01  0.81039527518E-02  0.49821928198E-01  0.51100000000E-03 0. -1.
         11    1    4    4    0    0  0.47787925336E-01  0.66890322745E-01  0.38495387949E-01  0.90775311066E-01  0.51100000000E-03 0.  1.
</event>
<event>
 8    1  0.2943605E+004  0.1043930E+01  0.7957747E-01            NaN
         13   -1    0    0    0    0  0.00000000000E+00  0.00000000000E+00  0.74505805969E-08  0.10566000000E+00  0.10566000000E+00 0.  1.
     999900   -1    0    0    0    0 -0.00000000000E+00 -0.00000000000E+00 -0.74505805969E-08  0.93827000000E+00  0.93827000000E+00 0.  1.
     999902    2    1    2    0    0  0.77835703827E-02  0.10399363711E-01  0.13429618967E-01  0.10252461728E+01  0.10250759140E+01 0.  0.
     999903    2    3    3    0    0 -0.94110246027E-01  0.17954407808E-01 -0.82336666204E-01  0.13417344294E+00  0.45211580615E-01 0.  0.
         14    1    1    2    0    0 -0.77835703827E-02 -0.10399363711E-01 -0.13429618967E-01  0.18683827207E-01  0.00000000000E+00 0. -1.
     999901    1    3    3    0    0  0.10189381641E+00 -0.75550440967E-02  0.95766285171E-01  0.89107272985E+00  0.88000000000E+00 0. -1.
        -11    1    4    4    0    0 -0.63611766751E-01 -0.50796162962E-02 -0.33245964406E-01  0.71957033299E-01  0.51100000000E-03 0. -1.
         11    1    4    4    0    0 -0.30498479276E-01  0.23034024104E-01 -0.49090701798E-01  0.62216409641E-01  0.51100000000E-03 0.  1.
</event>
<event>
 8    1  0.2943605E+004  0.1043930E+01  0.7957747E-01            NaN
         13   -1    0    0    0    0  0.00000000000E+00  0.00000000000E+00  0.74505805969E-08  0.10566000000E+00  0.10566000000E+00 0.  1.
     999900   -1    0    0    0    0 -0.00000000000E+00 -0.00000000000E+00 -0.74505805969E-08  0.93827000000E+00  0.93827000000E+00 0.  1.
     999902    2    1    2    0    0 -0.64762284159E-02 -0.12393297681E-02 -0.10396680479E-01  0.10316186866E+01  0.10315452225E+01 0.  0.
     999903    2    3    3    0    0 -0.19510392804E-01 -0.19993769895E-01 -0.13276703318E+00  0.14285768290E+00  0.44730595809E-01 0.  0.
         14    1    1    2    0    0  0.64762284159E-02  0.12393297681E-02  0.10396680479E-01  0.12311313405E-01  0.00000000000E+00 0.  1.
     999901    1    3    3    0    0  0.13034164388E-01  0.18754440127E-01  0.12237035270E+00  0.88876100369E+00  0.88000000000E+00 0. -1.
        -11    1    4    4    0    0 -0.62958924288E-02 -0.70586783103E-02 -0.12001818647E+00  0.12039140087E+00  0.51100000000E-03 0.  1.
         11    1    4    4    0    0 -0.13214500375E-01 -0.12935091584E-01 -0.12748846718E-01  0.22466282026E-01  0.51100000000E-03 0. -1.
</event>
<event>
 8    1  0.2943605E+004  0.1043930E+01  0.7957747E-01            NaN
         13   -1    0    0    0    0  0.00000000000E+00  0.00000000000E+00  0.74505805969E-08  0.10566000000E+00  0.10566000000E+00 0.  1.
     999900   -1    0    0    0    0 -0.00000000000E+00 -0.00000000000E+00 -0.74505805969E-08  0.93827000000E+00  0.93827000000E+00 0.  1.
     999902    2    1    2    0    0  0.36919938057E-02 -0.46644090643E-02 -0.10972443686E-01  0.10314487320E+01  0.10313732131E+01 0.  0.
     999903    2    3    3    0    0  0.98636876527E-01 -0.62131870484E-01 -0.69794345206E-01  0.14252969409E+00  0.43056478424E-01 0.  0.
         14    1    1    2    0    0 -0.36919938057E-02  0.46644090643E-02  0.10972443686E-01  0.12481267989E-01  0.00000000000E+00 0.  1.
     999901    1    3    3    0    0 -0.94944882721E-01  0.57467461420E-01  0.58821901520E-01  0.88891903792E+00  0.88000000000E+00 0. -1.
        -11    1    4    4    0    0  0.47249478634E-02 -0.10097629447E-01 -0.22689813641E-01  0.25285885724E-01  0.51100000000E-03 0. -1.
         11    1    4    4    0    0  0.93911928664E-01 -0.52034241037E-01 -0.47104531564E-01  0.11724380837E+00  0.51100000000E-03 0.  1.
</event>
<event>
 8    1  0.2943605E+004  0.1043930E+01  0.7957747E-01            NaN
         13   -1    0    0    0    0  0.00000000000E+00  0.00000000000E+00  0.74505805969E-08  0.10566000000E+00  0.10566000000E+00 0.  1.
     999900   -1    0    0    0    0 -0.00000000000E+00 -0.00000000000E+00 -0.74505805969E-08  0.93827000000E+00  0.93827000000E+00 0.  1.
     999902    2    1    2    0    0 -0.38018599229E-02 -0.11006423321E-01  0.69603109731E-02  0.10303638133E+01  0.10302745005E+01 0.  0.
     999903    2    3    3    0    0  0.83696657023E-01 -0.94833689647E-01  0.43741026902E-01  0.14129923626E+00  0.45317078958E-01 0.  0.
         14    1    1    2    0    0  0.38018599229E-02  0.11006423321E-01 -0.69603109731E-02  0.13566186717E-01  0.00000000000E+00 0. -1.
     999901    1    3    3    0    0 -0.87498516946E-01  0.83827266326E-01 -0.36780715929E-01  0.88906457702E+00  0.88000000000E+00 0.  1.
        -11    1    4    4    0    0  0.22615781460E-01 -0.12347960471E-01  0.26958988727E-01  0.37296030526E-01  0.51100000000E-03 0. -1.
         11    1    4    4    0    0  0.61080875563E-01 -0.82485729176E-01  0.16782038175E-01  0.10400320574E+00  0.51100000000E-03 0.  1.
</event>
<event>
 8    1  0.2943605E+004  0.1043930E+01  0.7957747E-01            NaN
         13   -1    0    0    0    0  0.00000000000E+00  0.00000000000E+00  0.74505805969E-08  0.10566000000E+00  0.10566000000E+00 0.  1.
     999900   -1    0    0    0    0 -0.00000000000E+00 -0.00000000000E+00 -0.74505805969E-08  0.93827000000E+00  0.93827000000E+00 0.  1.
     999902    2    1    2    0    0 -0.42879795635E-02  0.11712626081E-01 -0.75394959603E-02  0.10293554888E+01  0.10292523043E+01 0.  0.
     999903    2    3    3    0    0  0.51968837796E-01  0.11854147701E+00 -0.33210580030E-01  0.14074070302E+00  0.44183265918E-01 0.  0.
         14    1    1    2    0    0  0.42879795635E-02 -0.11712626081E-01  0.75394959603E-02  0.14574511236E-01  0.00000000000E+00 0.  1.
     999901    1    3    3    0    0 -0.56256817359E-01 -0.10682885093E+00  0.25671084070E-01  0.88861478575E+00  0.88000000000E+00 0.  1.
        -11    1    4    4    0    0  0.11841154270E-01  0.78021825354E-01 -0.11651300526E-01  0.79772376741E-01  0.51100000000E-03 0.  1.
         11    1    4    4    0    0  0.40127683526E-01  0.40519651653E-01 -0.21559279504E-01  0.60968326277E-01  0.51100000000E-03 0. -1.
</event>
<event>
 8    1  0.2943605E+004  0.1043930E+01  0.7957747E-01            NaN
         13   -1    0    0    0    0  0.00000000000E+00  0.00000000000E+00  0.74505805969E-08  0.10566000000E+00  0.10566000000E+00 0.  1.
     999900   -1    0    0    0    0 -0.00000000000E+00 -0.00000000000E+00 -0.74505805969E-08  0.93827000000E+00  0.93827000000E+00 0.  1.
     999902    2    1    2    0    0 -0.27028014567E-02 -0.88739871035E-02 -0.12302198252E-01  0.10285223115E+01  0.10284068983E+01 0.  0.
     999903    2    3    3    0    0 -0.55933564168E-01 -0.55541418567E-01 -0.10743601914E+00  0.14056859248E+00  0.44761794045E-01 0.  0.
         14    1    1    2    0    0  0.27028014567E-02  0.88739871035E-02  0.12302198252E-01  0.15407688492E-01  0.00000000000E+00 0.  1.
     999901    1    3    3    0    0  0.53230762711E-01  0.46667431463E-01  0.95133820888E-01  0.88795371903E+00  0.88000000000E+00 0. -1.
        -11    1    4    4    0    0 -0.53093593893E-01 -0.25698958746E-01 -0.57836855415E-01  0.82611918985E-01  0.51100000000E-03 0. -1.
         11    1    4    4    0    0 -0.28399702748E-02 -0.29842459821E-01 -0.49599163725E-01  0.57956673495E-01  0.51100000000E-03 0.  1.
</event>
<event>
 8    1  0.2943605E+004  0.1043930E+01  0.7957747E-01            NaN
         13   -1    0    0    0    0  0.00000000000E+00  0.00000000000E+00  0.74505805969E-08  0.10566000000E+00  0.10566000000E+00 0. -1.
     999900   -1    0    0    0    0 -0.00000000000E+00 -0.00000000000E+00 -0.74505805969E-08  0.93827000000E+00  0.93827000000E+00 0. -1.
     999902    2    1    2    0    0 -0.31309975363E-02 -0.10625014179E-01  0.89043511623E-02  0.10297179790E+01  0.10296198982E+01 0.  0.
     999903    2    3    3    0    0  0.70522334674E-01 -0.22217352310E-01  0.11122664504E+00  0.14065721195E+00  0.44114331864E-01 0.  0.
         14    1    1    2    0    0  0.31309975363E-02  0.10625014179E-01 -0.89043511623E-02  0.14212021021E-01  0.00000000000E+00 0.  1.
     999901    1    3    3    0    0 -0.73653332210E-01  0.11592338132E-01 -0.10232229387E+00  0.88906076703E+00  0.88000000000E+00 0. -1.
        -11    1    4    4    0    0  0.53308926549E-01  0.22600641303E-02  0.53100401213E-01  0.75278571119E-01  0.51100000000E-03 0.  1.
         11    1    4    4    0    0  0.17213408125E-01 -0.24477416441E-01  0.58126243823E-01  0.65378640830E-01  0.51100000000E-03 0. -1.
</event>
<event>
 8    1  0.2943605E+004  0.1043930E+01  0.7957747E-01            NaN
         13   -1    0    0    0    0  0.00000000000E+00  0.00000000000E+00  0.74505805969E-08  0.10566000000E+00  0.10566000000E+00 0. -1.
     999900   -1    0    0    0    0 -0.00000000000E+00 -0.00000000000E+00 -0.74505805969E-08  0.93827000000E+00  0.93827000000E+00 0.  1.
     999902    2    1    2    0    0  0.69848420024E-02  0.11512097737E-01 -0.59784844827E-03  0.10304513563E+01  0.10303632000E+01 0.  0.
     999903    2    3    3    0    0 -0.12020722482E+00 -0.53239222959E-01 -0.70516495298E-02  0.13892894667E+00  0.44354646913E-01 0.  0.
         14    1    1    2    0    0 -0.69848420024E-02 -0.11512097737E-01  0.59784844827E-03  0.13478643658E-01  0.00000000000E+00 0.  1.
     999901    1    3    3    0    0  0.12719206682E+00  0.64751320696E-01  0.64538010816E-02  0.89152240967E+00  0.88000000000E+00 0.  1.
        -11    1    4    4    0    0 -0.81838915515E-01 -0.13626222372E-01 -0.10718809613E-01  0.83656655619E-01  0.51100000000E-03 0. -1.
         11    1    4    4    0    0 -0.38368309303E-01 -0.39613000587E-01  0.36671600833E-02  0.55272291054E-01  0.51100000000E-03 0.  1.
</event>
<event>
 8    1  0.2943605E+004  0.1043930E+01  0.7957747E-01            NaN
         13   -1    0    0    0    0  0.00000000000E+00  0.00000000000E+00  0.74505805969E-08  0.10566000000E+00  0.10566000000E+00 0.  1.
     999900   -1    0    0    0    0 -0.00000000000E+00 -0.00000000000E+00 -0.74505805969E-08  0.93827000000E+00  0.93827000000E+00 0.  1.
     999902    2    1    2    0    0 -0.14047137369E-01  0.17042239428E-02  0.55693777707E-04  0.10297797509E+01  0.10296825267E+01 0.  0.
     999903    2    3    3    0    0  0.88699900131E-01 -0.87238147577E-01 -0.40850254995E-01  0.13840945983E+00  0.44836018584E-01 0.  0.
         14    1    1    2    0    0  0.14047137369E-01 -0.17042239428E-02 -0.55693777707E-04  0.14150249090E-01  0.00000000000E+00 0.  1.
     999901    1    3    3    0    0 -0.10274703750E+00  0.88942371520E-01  0.40905948773E-01  0.89137029108E+00  0.88000000000E+00 0. -1.
        -11    1    4    4    0    0  0.46966013615E-01 -0.66491168996E-01 -0.88815659251E-02  0.81890324970E-01  0.51100000000E-03 0. -1.
         11    1    4    4    0    0  0.41733886516E-01 -0.20746978581E-01 -0.31968689070E-01  0.56519134864E-01  0.51100000000E-03 0.  1.
</event>
<event>
 8    1  0.2943605E+004  0.1043930E+01  0.7957747E-01            NaN
         13   -1    0    0    0    0  0.00000000000E+00  0.00000000000E+00  0.74505805969E-08  0.10566000000E+00  0.10566000000E+00 0. -1.
     999900   -1    0    0    0    0 -0.00000000000E+00 -0.00000000000E+00 -0.74505805969E-08  0.93827000000E+00  0.93827000000E+00 0. -1.
     999902    2    1    2    0    0  0.10171074781E-01  0.89044140309E-02 -0.14289869831E-02  0.10303365694E+01  0.10302468951E+01 0.  0.
     999903    2    3    3    0    0  0.13080084326E+00  0.11444923788E-02 -0.30969354223E-01  0.14158216536E+00  0.44454900579E-01 0.  0.
         14    1    1    2    0    0 -0.10171074781E-01 -0.89044140309E-02  0.14289869831E-02  0.13593430591E-01  0.00000000000E+00 0.  1.
     999901    1    3    3    0    0 -0.12062976848E+00  0.77599216521E-02  0.29540367240E-01  0.88875440405E+00  0.88000000000E+00 0. -1.
        -11    1    4    4    0    0  0.80469929325E-01  0.13121765598E-01 -0.49573939401E-03  0.81535864112E-01  0.51100000000E-03 0.  1.
         11    1    4    4    0    0  0.50330913935E-01 -0.11977273219E-01 -0.30473614829E-01  0.60046301243E-01  0.51100000000E-03 0. -1.
</event>
<event>
 8    1  0.2943605E+004  0.1043930E+01  0.7957747E-01            NaN
         13   -1    0    0    0    0  0.00000000000E+00  0.00000000000E+00  0.74505805969E-08  0.10566000000E+00  0.10566000000E+00 0. -1.
     999900   -1    0    0    0    0 -0.00000000000E+00 -0.00000000000E+00 -0.74505805969E-08  0.93827000000E+00  0.93827000000E+00 0.  1.
     999902    2    1    2    0    0 -0.11645779489E-01  0.13187952107E-01  0.75285409806E-02  0.10247929890E+01  0.10246142909E+01 0.  0.
     999903    2    3    3    0    0  0.32785237688E-01  0.12428047858E+00 -0.73422675007E-02  0.13657184217E+00  0.45579052395E-01 0.  0.
         14    1    1    2    0    0  0.11645779489E-01 -0.13187952107E-01 -0.75285409806E-02  0.19137010999E-01  0.00000000000E+00 0. -1.
     999901    1    3    3    0    0 -0.44431017177E-01 -0.11109252647E+00  0.14870808481E-01  0.88822114683E+00  0.88000000000E+00 0. -1.
        -11    1    4    4    0    0  0.12120251799E-01  0.11129288967E+00 -0.54079880883E-02  0.11208262689E+00  0.51100000000E-03 0. -1.
         11    1    4    4    0    0  0.20664985888E-01  0.12987588910E-01 -0.19342794124E-02  0.24489215286E-01  0.51100000000E-03 0.  1.
</event>
<event>
 8    1  0.2943605E+004  0.1043930E+01  0.7957747E-01            NaN
         13   -1    0    0    0    0  0.00000000000E+00  0.00000000000E+00  0.74505805969E-08  0.10566000000E+00  0.10566000000E+00 0. -1.
     999900   -1    0    0    0    0 -0.00000000000E+00 -0.00000000000E+00 -0.74505805969E-08  0.93827000000E+00  0.93827000000E+00 0. -1.
     999902    2    1    2    0    0 -0.13138199954E-01  0.18235551142E-02  0.96667037768E-03  0.10306306728E+01  0.10305448616E+01 0.  0.
     999903    2    3    3    0    0  0.86153422510E-01  0.25601339995E-01 -0.96965005459E-01  0.13933115950E+00  0.43967248091E-01 0.  0.
         14    1    1    2    0    0  0.13138199954E-01 -0.18235551142E-02 -0.96667037768E-03  0.13299327160E-01  0.00000000000E+00 0. -1.
     999901    1    3    3    0    0 -0.99291622464E-01 -0.23777784881E-01  0.97931675836E-01  0.89129951334E+00  0.88000000000E+00 0.  1.
        -11    1    4    4    0    0  0.26361280167E-01 -0.19041116466E-02 -0.55681503804E-01  0.61637924366E-01  0.51100000000E-03 0.  1.
         11    1    4    4    0    0  0.59792142343E-01  0.27505451642E-01 -0.41283501654E-01  0.77693235135E-01  0.51100000000E-03 0. -1.
</event>
<event>
 8    1  0.2943605E+004  0.1043930E+01  0.7957747E-01            NaN
         13   -1    0    0    0    0  0.00000000000E+00  0.00000000000E+00  0.74505805969E-08  0.10566000000E+00  0.10566000000E+00 0.  1.
     999900   -1    0    0    0    0 -0.00000000000E+00 -0.00000000000E+00 -0.74505805969E-08  0.93827000000E+00  0.93827000000E+00 0. -1.
     999902    2    1    2    0    0  0.14647818184E-02  0.89291612689E-03  0.13735913537E-01  0.10300873772E+01  0.10299943624E+01 0.  0.
     999903    2    3    3    0    0 -0.27518239576E-01 -0.13264175665E+00 -0.21256653065E-02  0.13940049955E+00  0.32816028154E-01 0.  0.
         14    1    1    2    0    0 -0.14647818184E-02 -0.89291612689E-03 -0.13735913537E-01  0.13842622789E-01  0.00000000000E+00 0. -1.
     999901    1    3    3    0    0  0.28983021394E-01  0.13353467278E+00  0.15861578843E-01  0.89068687767E+00  0.88000000000E+00 0.  1.
        -11    1    4    4    0    0 -0.34650404238E-01 -0.99771650628E-01  0.93426015769E-03  0.10562275676E+00  0.51100000000E-03 0. -1.
         11    1    4    4    0    0  0.71321646626E-02 -0.32870106023E-01 -0.30599254642E-02  0.33777742784E-01  0.51100000000E-03 0.  1.
</event>
<event>
 8    1  0.2943605E+004  0.1043930E+01  0.7957747E-01            NaN
         13   -1    0    0    0    0  0.00000000000E+00  0.00000000000E+00  0.74505805969E-08  0.10566000000E+00  0.10566000000E+00 0. -1.
     999900   -1    0    0    0    0 -0.00000000000E+00 -0.00000000000E+00 -0.74505805969E-08  0.93827000000E+00  0.93827000000E+00 0. -1.
     999902    2    1    2    0    0  0.99308753086E-02  0.59408924342E-02 -0.66786538977E-02  0.10305688284E+01  0.10304822120E+01 0.  0.
     999903    2    3    3    0    0  0.11110425074E+00  0.75718359809E-01  0.31385859482E-02  0.14197368720E+00  0.45489038145E-01 0.  0.
         14    1    1    2    0    0 -0.99308753086E-02 -0.59408924342E-02  0.66786538977E-02  0.13361171550E-01  0.00000000000E+00 0. -1.
     999901    1    3    3    0    0 -0.10117337543E+00 -0.69777467375E-01 -0.98172398458E-02  0.88859514125E+00  0.88000000000E+00 0.  1.
        -11    1    4    4    0    0  0.84390775862E-01  0.56641130394E-01 -0.17587813515E-01  0.10314849979E+00  0.51100000000E-03 0. -1.
         11    1    4    4    0    0  0.26713474879E-01  0.19077229415E-01  0.20726399463E-01  0.38825187417E-01  0.51100000000E-03 0.  1.
</event>
<event>
 8    1  0.2943605E+004  0.1043930E+01  0.7957747E-01            NaN
         13   -1    0    0    0    0  0.00000000000E+00  0.00000000000E+00  0.74505805969E-08  0.10566000000E+00  0.10566000000E+00 0.  1.
     999900   -1    0    0    0    0 -0.00000000000E+00 -0.00000000000E+00 -0.74505805969E-08  0.93827000000E+00  0.93827000000E+00 0. -1.
     999902    2    1    2    0    0 -0.74286849987E-02  0.89351180231E-02 -0.89628878065E-02  0.10292550195E+01  0.10291503972E+01 0.  0.
     999903    2    3    3    0    0  0.30340150592E-01  0.14842332651E-01 -0.12858621589E+00  0.14033932004E+00  0.44943189180E-01 0.  0.
         14    1    1    2    0    0  0.74286849987E-02 -0.89351180231E-02  0.89628878065E-02  0.14674980502E-01  0.00000000000E+00 0.  1.
     999901    1    3    3    0    0 -0.37768835591E-01 -0.59072146283E-02  0.11962332809E+00  0.88891569946E+00  0.88000000000E+00 0.  1.
        -11    1    4    4    0    0  0.37929648573E-01 -0.90289702100E-03 -0.98277542600E-01  0.10534804205E+00  0.51100000000E-03 0.  1.
         11    1    4    4    0    0 -0.75894979805E-02  0.15745229672E-01 -0.30308673295E-01  0.34991277984E-01  0.51100000000E-03 0. -1.
</event>
<event>
 8    1  0.2943605E+004  0.1043930E+01  0.7957747E-01            NaN
         13   -1    0    0    0    0  0.00000000000E+00  0.00000000000E+00  0.74505805969E-08  0.10566000000E+00  0.10566000000E+00 0. -1.
     999900   -1    0    0    0    0 -0.00000000000E+00 -0.00000000000E+00 -0.74505805969E-08  0.93827000000E+00  0.93827000000E+00 0. -1.
     999902    2    1    2    0    0  0.20389268842E-02  0.11988418230E-01 -0.70336923235E-02  0.10298817894E+01  0.10297859719E+01 0.  0.
     999903    2    3    3    0    0 -0.11777061424E+00 -0.21987060068E-01 -0.55546745750E-01  0.13979068412E+00  0.45854618242E-01 0.  0.
         14    1    1    2    0    0 -0.20389268842E-02 -0.11988418230E-01  0.70336923235E-02  0.14048210640E-01  0.00000000000E+00 0.  1.
     999901    1    3    3    0    0  0.11980954113E+00  0.33975478298E-01  0.48513053427E-01  0.89009110524E+00  0.88000000000E+00 0.  1.
        -11    1    4    4    0    0 -0.36902461956E-01 -0.17360735320E-01  0.13422237209E-02  0.40807468860E-01  0.51100000000E-03 0.  1.
         11    1    4    4    0    0 -0.80868152288E-01 -0.46263247480E-02 -0.56888969471E-01  0.98983215262E-01  0.51100000000E-03 0. -1.
</event>
<event>
 8    1  0.2943605E+004  0.1043930E+01  0.7957747E-01            NaN
         13   -1    0    0    0    0  0.00000000000E+00  0.00000000000E+00  0.74505805969E-08  0.10566000000E+00  0.10566000000E+00 0.  1.
     999900   -1    0    0    0    0 -0.00000000000E+00 -0.00000000000E+00 -0.74505805969E-08  0.93827000000E+00  0.93827000000E+00 0.  1.
     999902    2    1    2    0    0 -0.10961485417E-01 -0.47478017141E-02 -0.84311076592E-02  0.10293088044E+01  0.10292049531E+01 0.  0.
     999903    2    3    3    0    0 -0.94520049939E-01 -0.97027729223E-02 -0.94127383777E-01  0.14119257488E+00  0.45245941049E-01 0.  0.
         14    1    1    2    0    0  0.10961485417E-01  0.47478017141E-02  0.84311076592E-02  0.14621195574E-01  0.00000000000E+00 0.  1.
     999901    1    3    3    0    0  0.83558564522E-01  0.49549712082E-02  0.85696276117E-01  0.88811622955E+00  0.88000000000E+00 0. -1.
        -11    1    4    4    0    0 -0.14936918914E-01  0.14828381179E-01 -0.26931295199E-01  0.34184034536E-01  0.51100000000E-03 0.  1.
         11    1    4    4    0    0 -0.79583131024E-01 -0.24531154101E-01 -0.67196088577E-01  0.10700854034E+00  0.51100000000E-03 0. -1.
</event>
<event>
 8    1  0.2943605E+004  0.1043930E+01  0.7957747E-01            NaN
         13   -1    0    0    0    0  0.00000000000E+00  0.00000000000E+00  0.74505805969E-08  0.10566000000E+00  0.10566000000E+00 0.  1.
     999900   -1    0    0    0    0 -0.00000000000E+00 -0.00000000000E+00 -0.74505805969E-08  0.93827000000E+00  0.93827000000E+00 0. -1.
     999902    2    1    2    0    0  0.21223223571E-02 -0.12697087964E-01  0.52211694614E-02  0.10300382433E+01  0.10299445624E+01 0.  0.
     999903    2    3    3    0    0  0.84282648448E-01 -0.10411728319E+00 -0.93739275714E-02  0.14137577182E+00  0.44218376840E-01 0.  0.
         14    1    1    2    0    0 -0.21223223571E-02  0.12697087964E-01 -0.52211694614E-02  0.13891756746E-01  0.00000000000E+00 0. -1.
     999901    1    3    3    0    0 -0.82160326091E-01  0.91420195230E-01  0.14595097033E-01  0.88866247143E+00  0.88000000000E+00 0.  1.
        -11    1    4    4    0    0 -0.10285194525E-02 -0.91246961285E-02 -0.10147257036E-01  0.13694739065E-01  0.51100000000E-03 0.  1.
         11    1    4    4    0    0  0.85311167900E-01 -0.94992587065E-01  0.77332946414E-03  0.12768103275E+00  0.51100000000E-03 0. -1.
</event>
<event>
 8    1  0.2943605E+004  0.1043930E+01  0.7957747E-01            NaN
         13   -1    0    0    0    0  0.00000000000E+00  0.00000000000E+00  0.74505805969E-08  0.10566000000E+00  0.10566000000E+00 0.  1.
     999900   -1    0    0    0    0 -0.00000000000E+00 -0.00000000000E+00 -0.74505805969E-08  0.93827000000E+00  0.93827000000E+00 0.  1.
     999902    2    1    2    0    0  0.82775421338E-02  0.95666899648E-02  0.57303476879E-02  0.10300420144E+01  0.10299483847E+01 0.  0.
     999903    2    3    3    0    0  0.86934209287E-01 -0.23326966700E-01 -0.97313991917E-01  0.13993696445E+00  0.44840125755E-01 0.  0.
         14    1    1    2    0    0 -0.82775421338E-02 -0.95666899648E-02 -0.57303476879E-02  0.13887985645E-01  0.00000000000E+00 0. -1.
     999901    1    3    3    0    0 -0.78656667153E-01  0.32893656665E-01  0.10304433960E+00  0.89010504990E+00  0.88000000000E+00 0. -1.
        -11    1    4    4    0    0  0.25784460970E-01 -0.18106982260E-01 -0.97105412087E-02  0.32973579812E-01  0.51100000000E-03 0. -1.
         11    1    4    4    0    0  0.61149748317E-01 -0.52199844404E-02 -0.87603450708E-01  0.10696338464E+00  0.51100000000E-03 0.  1.
</event>
<event>
 8    1  0.2943605E+004  0.1043930E+01  0.7957747E-01            NaN
         13   -1    0    0    0    0  0.00000000000E+00  0.00000000000E+00  0.74505805969E-08  0.10566000000E+00  0.10566000000E+00 0.  1.
     999900   -1    0    0    0    0 -0.00000000000E+00 -0.00000000000E+00 -0.74505805969E-08  0.93827000000E+00  0.93827000000E+00 0.  1.
     999902    2    1    2    0    0  0.88751924890E-02  0.10355689462E-01 -0.50557734810E-02  0.10293845474E+01  0.10292817769E+01 0.  0.
     999903    2    3    3    0    0 -0.86554855180E-01  0.91820793097E-01  0.38805021021E-01  0.13940295972E+00  0.44772251697E-01 0.  0.
         14    1    1    2    0    0 -0.88751924890E-02 -0.10355689462E-01  0.50557734810E-02  0.14545452604E-01  0.00000000000E+00 0.  1.
     999901    1    3    3    0    0  0.95430047669E-01 -0.81465103635E-01 -0.43860794502E-01  0.88998158768E+00  0.88000000000E+00 0. -1.
        -11    1    4    4    0    0 -0.18763158226E-01  0.21048826269E-02 -0.35920361939E-02  0.19226296641E-01  0.51100000000E-03 0.  1.
         11    1    4    4    0    0 -0.67791696954E-01  0.89715910470E-01  0.42397057215E-01  0.12017666308E+00  0.51100000000E-03 0. -1.
</event>
<event>
 8    1  0.2943605E+004  0.1043930E+01  0.7957747E-01            NaN
         13   -1    0    0    0    0  0.00000000000E+00  0.00000000000E+00  0.74505805969E-08  0.10566000000E+00  0.10566000000E+00 0.  1.
     999900   -1    0    0    0    0 -0.00000000000E+00 -0.00000000000E+00 -0.74505805969E-08  0.93827000000E+00  0.93827000000E+00 0. -1.
     999902    2    1    2    0    0  0.38308689284E-02  0.52305100439E-02 -0.12137629551E-01  0.10301693371E+01  0.10300774278E+01 0.  0.
     999903    2    3    3    0    0 -0.65233791175E-01  0.27639780879E-01  0.11161288879E+00  0.13854929837E+00  0.41461622444E-01 0.  0.
         14    1    1    2    0    0 -0.38308689284E-02 -0.52305100439E-02  0.12137629551E-01  0.13760662891E-01  0.00000000000E+00 0.  1.
     999901    1    3    3    0    0  0.69064660103E-01 -0.22409270835E-01 -0.12375051834E+00  0.89162003874E+00  0.88000000000E+00 0. -1.
        -11    1    4    4    0    0 -0.27906304522E-01 -0.80211439465E-02  0.53055746041E-01  0.60483666318E-01  0.51100000000E-03 0.  1.
         11    1    4    4    0    0 -0.37327486653E-01  0.35660924825E-01  0.58557142751E-01  0.78065632050E-01  0.51100000000E-03 0. -1.
</event>
<event>
 8    1  0.2943605E+004  0.1043930E+01  0.7957747E-01            NaN
         13   -1    0    0    0    0  0.00000000000E+00  0.00000000000E+00  0.74505805969E-08  0.10566000000E+00  0.10566000000E+00 0. -1.
     999900   -1    0    0    0    0 -0.00000000000E+00 -0.00000000000E+00 -0.74505805969E-08  0.93827000000E+00  0.93827000000E+00 0. -1.
     999902    2    1    2    0    0 -0.27944640944E-02 -0.71058062959E-02 -0.91180840140E-02  0.10320371043E+01  0.10319685769E+01 0.  0.
     999903    2    3    3    0    0  0.11580965136E+00  0.81250903918E-02 -0.68012452976E-01  0.14199920445E+00  0.45389292385E-01 0.  0.
         14    1    1    2    0    0  0.27944640944E-02  0.71058062959E-02  0.91180840140E-02  0.11892895727E-01  0.00000000000E+00 0. -1.
     999901    1    3    3    0    0 -0.11860411546E+00 -0.15230896688E-01  0.58894368962E-01  0.89003789982E+00  0.88000000000E+00 0.  1.
        -11    1    4    4    0    0  0.26773698905E-01 -0.30158234310E-03 -0.40266656161E-01  0.48358935311E-01  0.51100000000E-03 0.  1.
         11    1    4    4    0    0  0.89035952458E-01  0.84266727349E-02 -0.27745796815E-01  0.93640269144E-01  0.51100000000E-03 0. -1.
</event>
<event>
 8    1  0.2943605E+004  0.1043930E+01  0.7957747E-01            NaN
         13   -1    0    0    0    0  0.00000000000E+00  0.00000000000E+00  0.74505805969E-08  0.10566000000E+00  0.10566000000E+00 0.  1.
     999900   -1    0    0    0    0 -0.00000000000E+00 -0.00000000000E+00 -0.74505805969E-08  0.93827000000E+00  0.93827000000E+00 0. -1.
     999902    2    1    2    0    0 -0.13139727301E-03  0.40737197117E-02  0.13002585175E-01  0.10303035669E+01  0.10302134538E+01 0.  0.
     999903    2    3    3    0    0 -0.89808544037E-02 -0.18048026667E-01  0.13281111815E+00  0.14186574178E+00  0.45614784584E-01 0.  0.
         14    1    1    2    0    0  0.13139727301E-03 -0.40737197117E-02 -0.13002585175E-01  0.13626433090E-01  0.00000000000E+00 0. -1.
     999901    1    3    3    0    0  0.88494571307E-02  0.22121746379E-01 -0.11980853298E+00  0.88843782513E+00  0.88000000000E+00 0. -1.
        -11    1    4    4    0    0  0.38156597830E-02  0.12381278861E-01  0.16643620599E-01  0.21098022501E-01  0.51100000000E-03 0. -1.
         11    1    4    4    0    0 -0.12796514187E-01 -0.30429305528E-01  0.11616749755E+00  0.12076771927E+00  0.51100000000E-03 0.  1.
</event>
<event>
 8    1  0.2943605E+004  0.1043930E+01  0.7957747E-01            NaN
         13   -1    0    0    0    0  0.00000000000E+00  0.00000000000E+00  0.74505805969E-08  0.10566000000E+00  0.10566000000E+00 0. -1.
     999900   -1    0    0    0    0 -0.00000000000E+00 -0.00000000000E+00 -0.74505805969E-08  0.93827000000E+00  0.93827000000E+00 0.  1.
     999902    2    1    2    0    0 -0.39210676739E-03 -0.98794136899E-02 -0.97364305331E-02  0.10300535940E+01  0.10299601215E+01 0.  0.
     999903    2    3    3    0    0  0.64879432350E-01 -0.94476486775E-01  0.67481807411E-01  0.14023355895E+00  0.44457951245E-01 0.  0.
         14    1    1    2    0    0  0.39210676739E-03  0.98794136899E-02  0.97364305331E-02  0.13876405950E-01  0.00000000000E+00 0. -1.
     999901    1    3    3    0    0 -0.65271539118E-01  0.84597073085E-01 -0.77218237944E-01  0.88982003510E+00  0.88000000000E+00 0.  1.
        -11    1    4    4    0    0  0.36000232228E-01 -0.82335471456E-01  0.39258297574E-01  0.98064374927E-01  0.51100000000E-03 0.  1.
         11    1    4    4    0    0  0.28879200122E-01 -0.12141015319E-01  0.28223509837E-01  0.42169184024E-01  0.51100000000E-03 0. -1.
</event>
<event>
 8    1  0.2943605E+004  0.1043930E+01  0.7957747E-01            NaN
         13   -1    0    0    0    0  0.00000000000E+00  0.00000000000E+00  0.74505805969E-08  0.10566000000E+00  0.10566000000E+00 0. -1.
     999900   -1    0    0    0    0 -0.00000000000E+00 -0.00000000000E+00 -0.74505805969E-08  0.93827000000E+00  0.93827000000E+00 0.  1.
     999902    2    1    2    0    0 -0.12989956269E-01  0.10253765299E-01  0.41351444656E-03  0.10273755546E+01  0.10272421723E+01 0.  0.
     999903    2    3    3    0    0  0.42322573376E-01 -0.31867171997E-01 -0.11742038022E+00  0.13680356091E+00  0.46053791593E-01 0.  0.
         14    1    1    2    0    0  0.12989956269E-01 -0.10253765299E-01 -0.41351444656E-03  0.16554445351E-01  0.00000000000E+00 0.  1.
     999901    1    3    3    0    0 -0.55312529646E-01  0.42120937295E-01  0.11783389466E+00  0.89057199374E+00  0.88000000000E+00 0. -1.
        -11    1    4    4    0    0  0.16568194007E-01  0.35848565754E-02 -0.70871480884E-01  0.72872382787E-01  0.51100000000E-03 0.  1.
         11    1    4    4    0    0  0.25754379369E-01 -0.35452028572E-01 -0.46548899333E-01  0.63931178127E-01  0.51100000000E-03 0. -1.
</event>
<event>
 8    1  0.2943605E+004  0.1043930E+01  0.7957747E-01            NaN
         13   -1    0    0    0    0  0.00000000000E+00  0.00000000000E+00  0.74505805969E-08  0.10566000000E+00  0.10566000000E+00 0. -1.
     999900   -1    0    0    0    0 -0.00000000000E+00 -0.00000000000E+00 -0.74505805969E-08  0.93827000000E+00  0.93827000000E+00 0.  1.
     999902    2    1    2    0    0 -0.69591778657E-03 -0.15667349958E-02  0.14857314477E-01  0.10289741064E+01  0.10288654105E+01 0.  0.
     999903    2    3    3    0    0  0.10003303716E+00  0.10702243645E-01 -0.83240062482E-01  0.13772781856E+00  0.43805221858E-01 0.  0.
         14    1    1    2    0    0  0.69591778657E-03  0.15667349958E-02 -0.14857314477E-01  0.14955893607E-01  0.00000000000E+00 0.  1.
     999901    1    3    3    0    0 -0.10072895495E+00 -0.12268978641E-01  0.98097376959E-01  0.89124628783E+00  0.88000000000E+00 0. -1.
        -11    1    4    4    0    0  0.12207055579E-01 -0.84214739700E-02  0.54441534544E-03  0.14848937296E-01  0.51100000000E-03 0. -1.
         11    1    4    4    0    0  0.87825981581E-01  0.19123717615E-01 -0.83784477827E-01  0.12287888127E+00  0.51100000000E-03 0.  1.
</event>
<event>
 8    1  0.2943605E+004  0.1043930E+01  0.7957747E-01            NaN
         13   -1    0    0    0    0  0.00000000000E+00  0.00000000000E+00  0.74505805969E-08  0.10566000000E+00  0.10566000000E+00 0. -1.
     999900   -1    0    0    0    0 -0.00000000000E+00 -0.00000000000E+00 -0.74505805969E-08  0.93827000000E+00  0.93827000000E+00 0. -1.
     999902    2    1    2    0    0  0.11775235750E-01  0.43212232600E-02  0.59488035511E-02  0.10300477303E+01  0.10299541783E+01 0.  0.
     999903    2    3    3    0    0 -0.15893124355E-01 -0.87932387059E-01 -0.97458269251E-01  0.13877376040E+00  0.42134857725E-01 0.  0.
         14    1    1    2    0    0 -0.11775235750E-01 -0.43212232600E-02 -0.59488035511E-02  0.13882269667E-01  0.00000000000E+00 0.  1.
     999901    1    3    3    0    0  0.27668360105E-01  0.92253610319E-01  0.10340707280E+00  0.89127396993E+00  0.88000000000E+00 0.  1.
        -11    1    4    4    0    0  0.40096508293E-02 -0.34089466011E-01 -0.63203752199E-01  0.71924574422E-01  0.51100000000E-03 0. -1.
         11    1    4    4    0    0 -0.19902775185E-01 -0.53842921047E-01 -0.34254517053E-01  0.66849185982E-01  0.51100000000E-03 0.  1.
</event>
<event>
 8    1  0.2943605E+004  0.1043930E+01  0.7957747E-01            NaN
         13   -1    0    0    0    0  0.00000000000E+00  0.00000000000E+00  0.74505805969E-08  0.10566000000E+00  0.10566000000E+00 0. -1.
     999900   -1    0    0    0    0 -0.00000000000E+00 -0.00000000000E+00 -0.74505805969E-08  0.93827000000E+00  0.93827000000E+00 0.  1.
     999902    2    1    2    0    0  0.88614977207E-02 -0.90793375653E-03  0.10272575699E-01  0.10303330777E+01  0.10302433570E+01 0.  0.
     999903    2    3    3    0    0 -0.70697453359E-01  0.11055171238E+00 -0.14731343477E-01  0.13939083745E+00  0.44642827695E-01 0.  0.
         14    1    1    2    0    0 -0.88614977207E-02  0.90793375653E-03 -0.10272575699E-01  0.13596922337E-01  0.00000000000E+00 0.  1.
     999901    1    3    3    0    0  0.79558951080E-01 -0.11145964613E+00  0.25003919176E-01  0.89094224021E+00  0.88000000000E+00 0. -1.
        -11    1    4    4    0    0 -0.60604219638E-02  0.38382811446E-01  0.84548508962E-02  0.39770775119E-01  0.51100000000E-03 0. -1.
         11    1    4    4    0    0 -0.64637031395E-01  0.72168900931E-01 -0.23186194373E-01  0.99620062335E-01  0.51100000000E-03 0.  1.
</event>
<event>
 8    1  0.2943605E+004  0.1043930E+01  0.7957747E-01            NaN
         13   -1    0    0    0    0  0.00000000000E+00  0.00000000000E+00  0.74505805969E-08  0.10566000000E+00  0.10566000000E+00 0.  1.
     999900   -1    0    0    0    0 -0.00000000000E+00 -0.00000000000E+00 -0.74505805969E-08  0.93827000000E+00  0.93827000000E+00 0.  1.
     999902    2    1    2    0    0  0.77456386930E-02 -0.67735671536E-02  0.92979956488E-02  0.10300617321E+01  0.10299683700E+01 0.  0.
     999903    2    3    3    0    0  0.27727424496E-02 -0.19430367543E-01  0.13255507263E+00  0.14136761640E+00  0.45041407646E-01 0.  0.
         14    1    1    2    0    0 -0.77456386930E-02  0.67735671536E-02 -0.92979956488E-02  0.13868267874E-01  0.00000000000E+00 0.  1.
     999901    1    3    3    0    0  0.49728962434E-02  0.12656800390E-01 -0.12325707699E+00  0.88869411572E+00  0.88000000000E+00 0.  1.
        -11    1    4    4    0    0 -0.14596687743E-01  0.25824123054E-02  0.83964359920E-01  0.85264336062E-01  0.51100000000E-03 0. -1.
         11    1    4    4    0    0  0.17369430192E-01 -0.22012779849E-01  0.48590712715E-01  0.56103280341E-01  0.51100000000E-03 0.  1.
</event>
<event>
 8    1  0.2943605E+004  0.1043930E+01  0.7957747E-01            NaN
         13   -1    0    0    0    0  0.00000000000E+00  0.00000000000E+00  0.74505805969E-08  0.10566000000E+00  0.10566000000E+00 0. -1.
     999900   -1    0    0    0    0 -0.00000000000E+00 -0.00000000000E+00 -0.74505805969E-08  0.93827000000E+00  0.93827000000E+00 0.  1.
     999902    2    1    2    0    0  0.24328516251E-02 -0.96133278577E-02 -0.96156993001E-02  0.10301170889E+01  0.10300244756E+01 0.  0.
     999903    2    3    3    0    0 -0.27045431745E-02 -0.10338282449E+00  0.83073105140E-01  0.14027984212E+00  0.45628613332E-01 0.  0.
         14    1    1    2    0    0 -0.24328516251E-02  0.96133278577E-02  0.96156993001E-02  0.13812911082E-01  0.00000000000E+00 0. -1.
     999901    1    3    3    0    0  0.51373947996E-02  0.93769496629E-01 -0.92688804440E-01  0.88983724680E+00  0.88000000000E+00 0. -1.
        -11    1    4    4    0    0 -0.18808799991E-01 -0.89824224768E-01  0.64182114992E-01  0.11199003223E+00  0.51100000000E-03 0. -1.
         11    1    4    4    0    0  0.16104256817E-01 -0.13558599718E-01  0.18890990148E-01  0.28289809891E-01  0.51100000000E-03 0.  1.
</event>
<event>
 8    1  0.2943605E+004  0.1043930E+01  0.7957747E-01            NaN
         13   -1    0    0    0    0  0.00000000000E+00  0.00000000000E+00  0.74505805969E-08  0.10566000000E+00  0.10566000000E+00 0.  1.
     999900   -1    0    0    0    0 -0.00000000000E+00 -0.00000000000E+00 -0.74505805969E-08  0.93827000000E+00  0.93827000000E+00 0. -1.
     999902    2    1    2    0    0 -0.48611726084E-02 -0.13959796724E-02  0.73807915682E-02  0.10349826069E+01  0.10349439312E+01 0.  0.
     999903    2    3    3    0    0  0.88625082013E-01 -0.10389458813E+00  0.10234400989E-01  0.14411012020E+00  0.44883105691E-01 0.  0.
         14    1    1    2    0    0  0.48611726084E-02  0.13959796724E-02 -0.73807915682E-02  0.89473930587E-02  0.00000000000E+00 0.  1.
     999901    1    3    3    0    0 -0.93486254621E-01  0.10249860846E+00 -0.28536094210E-02  0.89087248674E+00  0.88000000000E+00 0.  1.
        -11    1    4    4    0    0  0.24626575584E-01 -0.24273945836E-01  0.22446140725E-01  0.41228424975E-01  0.51100000000E-03 0.  1.
         11    1    4    4    0    0  0.63998506429E-01 -0.79620642296E-01 -0.12211739736E-01  0.10288169523E+00  0.51100000000E-03 0. -1.
</event>
<event>
 8    1  0.2943605E+004  0.1043930E+01  0.7957747E-01            NaN
         13   -1    0    0    0    0  0.00000000000E+00  0.00000000000E+00  0.74505805969E-08  0.10566000000E+00  0.10566000000E+00 0. -1.
     999900   -1    0    0    0    0 -0.00000000000E+00 -0.00000000000E+00 -0.74505805969E-08  0.93827000000E+00  0.93827000000E+00 0.  1.
     999902    2    1    2    0    0  0.75004862322E-02  0.13046478730E-02  0.13247154561E-01  0.10286510438E+01  0.10285375653E+01 0.  0.
     999903    2    3    3    0    0 -0.94030880036E-01 -0.59194327662E-01  0.67542989896E-01  0.13909116263E+00  0.49381385265E-01 0.  0.
         14    1    1    2    0    0 -0.75004862322E-02 -0.13046478730E-02 -0.13247154561E-01  0.15278956239E-01  0.00000000000E+00 0.  1.
     999901    1    3    3    0    0  0.10153136627E+00  0.60498975535E-01 -0.54295835335E-01  0.88955988113E+00  0.88000000000E+00 0.  1.
        -11    1    4    4    0    0 -0.27119373060E-01 -0.26998151501E-01 -0.64591907313E-03  0.38275826733E-01  0.51100000000E-03 0.  1.
         11    1    4    4    0    0 -0.66911506976E-01 -0.32196176162E-01  0.68188908969E-01  0.10081533590E+00  0.51100000000E-03 0. -1.
</event>
<event>
 8    1  0.2943605E+004  0.1043930E+01  0.7957747E-01            NaN
         13   -1    0    0    0    0  0.00000000000E+00  0.00000000000E+00  0.74505805969E-08  0.10566000000E+00  0.10566000000E+00 0.  1.
     999900   -1    0    0    0    0 -0.00000000000E+00 -0.00000000000E+00 -0.74505805969E-08  0.93827000000E+00  0.93827000000E+00 0. -1.
     999902    2    1    2    0    0 -0.90488970964E-02  0.53386205550E-02 -0.92359791744E-02  0.10299411931E+01  0.10298461897E+01 0.  0.
     999903    2    3    3    0    0  0.62139413376E-01  0.80128142839E-01 -0.86347931950E-01  0.14055516807E+00  0.44921753650E-01 0.  0.
         14    1    1    2    0    0  0.90488970964E-02 -0.53386205550E-02  0.92359791744E-02  0.13988806933E-01  0.00000000000E+00 0. -1.
     999901    1    3    3    0    0 -0.71188310472E-01 -0.74789522284E-01  0.77111952775E-01  0.88938602499E+00  0.88000000000E+00 0.  1.
        -11    1    4    4    0    0  0.63784530739E-01  0.57294518202E-01 -0.78782811908E-01  0.11643934365E+00  0.51100000000E-03 0.  1.
         11    1    4    4    0    0 -0.16451173635E-02  0.22833624637E-01 -0.75651200421E-02  0.24115824420E-01  0.51100000000E-03 0. -1.
</event>
<event>
 8    1  0.2943605E+004  0.1043930E+01  0.7957747E-01            NaN
         13   -1    0    0    0    0  0.00000000000E+00  0.00000000000E+00  0.74505805969E-08  0.10566000000E+00  0.10566000000E+00 0. -1.
     999900   -1    0    0    0    0 -0.00000000000E+00 -0.00000000000E+00 -0.74505805969E-08  0.93827000000E+00  0.93827000000E+00 0. -1.
     999902    2    1    2    0    0  0.12321264252E-01 -0.42404046731E-02  0.66940188856E-03  0.10308822920E+01  0.10307997174E+01 0.  0.
     999903    2    3    3    0    0 -0.10766253343E+00 -0.39662903133E-01 -0.65333993264E-01  0.13958699120E+00  0.45294927366E-01 0.  0.
         14    1    1    2    0    0 -0.12321264252E-01  0.42404046731E-02 -0.66940188856E-03  0.13047707977E-01  0.00000000000E+00 0.  1.
     999901    1    3    3    0    0  0.11998379769E+00  0.35422498460E-01  0.66003395153E-01  0.89129530083E+00  0.88000000000E+00 0.  1.
        -11    1    4    4    0    0 -0.35454877949E-01 -0.32037843255E-01 -0.11379356535E-01  0.49124562562E-01  0.51100000000E-03 0.  1.
         11    1    4    4    0    0 -0.72207655485E-01 -0.76250598782E-02 -0.53954636730E-01  0.90462428634E-01  0.51100000000E-03 0. -1.
</event>
<event>
 8    1  0.2943605E+004  0.1043930E+01  0.7957747E-01            NaN
         13   -1    0    0    0    0  0.00000000000E+00  0.00000000000E+00  0.74505805969E-08  0.10566000000E+00  0.10566000000E+00 0.  1.
     999900   -1    0    0    0    0 -0.00000000000E+00 -0.00000000000E+00 -0.74505805969E-08  0.93827000000E+00  0.93827000000E+00 0. -1.
     999902    2    1    2    0    0  0.12755212024E-01 -0.11065229435E-02 -0.62105067424E-02  0.10297000941E+01  0.10296017646E+01 0.  0.
     999903    2    3    3    0    0  0.10543969970E+00 -0.42019436851E-01 -0.71231415639E-01  0.14150417016E+00  0.45457147445E-01 0.  0.
         14    1    1    2    0    0 -0.12755212024E-01  0.11065229435E-02  0.62105067424E-02  0.14229905860E-01  0.00000000000E+00 0.  1.
     999901    1    3    3    0    0 -0.92684487672E-01  0.40912913908E-01  0.65020908896E-01  0.88819592398E+00  0.88000000000E+00 0.  1.
        -11    1    4    4    0    0  0.11746983332E-01 -0.10416853720E-01 -0.30999625996E-01  0.34752559498E-01  0.51100000000E-03 0. -1.
         11    1    4    4    0    0  0.93692716363E-01 -0.31602583132E-01 -0.40231789643E-01  0.10675161066E+00  0.51100000000E-03 0.  1.
</event>
<event>
 8    1  0.2943605E+004  0.1043930E+01  0.7957747E-01            NaN
         13   -1    0    0    0    0  0.00000000000E+00  0.00000000000E+00  0.74505805969E-08  0.10566000000E+00  0.10566000000E+00 0. -1.
     999900   -1    0    0    0    0 -0.00000000000E+00 -0.00000000000E+00 -0.74505805969E-08  0.93827000000E+00  0.93827000000E+00 0.  1.
     999902    2    1    2    0    0  0.10733885022E-01  0.59957557930E-02 -0.25059855584E-02  0.10313822775E+01  0.10313059474E+01 0.  0.
     999903    2    3    3    0    0 -0.24717472431E-01 -0.99618133794E-01 -0.84995925911E-01  0.14053117737E+00  0.44609173587E-01 0.  0.
         14    1    1    2    0    0 -0.10733885022E-01 -0.59957557930E-02  0.25059855584E-02  0.12547722455E-01  0.00000000000E+00 0. -1.
     999901    1    3    3    0    0  0.35451357453E-01  0.10561388959E+00  0.82489940353E-01  0.89085110017E+00  0.88000000000E+00 0. -1.
        -11    1    4    4    0    0  0.19738368918E-02 -0.76586018106E-01 -0.59987162345E-01  0.97303828130E-01  0.51100000000E-03 0.  1.
         11    1    4    4    0    0 -0.26691309323E-01 -0.23032115688E-01 -0.25008763566E-01  0.43227349243E-01  0.51100000000E-03 0. -1.
</event>
<event>
 8    1  0.2943605E+004  0.1043930E+01  0.7957747E-01            NaN
         13   -1    0    0    0    0  0.00000000000E+00  0.00000000000E+00  0.74505805969E-08  0.10566000000E+00  0.10566000000E+00 0. -1.
     999900   -1    0    0    0    0 -0.00000000000E+00 -0.00000000000E+00 -0.74505805969E-08  0.93827000000E+00  0.93827000000E+00 0.  1.
     999902    2    1    2    0    0  0.54128357878E-02  0.12452866582E-02  0.13218208171E-01  0.10295922681E+01  0.10294924322E+01 0.  0.
     999903    2    3    3    0    0  0.85134789464E-01 -0.92919283875E-01  0.43003499387E-01  0.14048613276E+00  0.44778642739E-01 0.  0.
         14    1    1    2    0    0 -0.54128357878E-02 -0.12452866582E-02 -0.13218208171E-01  0.14337731947E-01  0.00000000000E+00 0.  1.
     999901    1    3    3    0    0 -0.79721953676E-01  0.94164570533E-01 -0.29785291216E-01  0.88910613529E+00  0.88000000000E+00 0.  1.
        -11    1    4    4    0    0 -0.50507918084E-03 -0.23468573394E-01  0.76587646832E-02  0.24697101846E-01  0.51100000000E-03 0.  1.
         11    1    4    4    0    0  0.85639868645E-01 -0.69450710481E-01  0.35344734704E-01  0.11578903091E+00  0.51100000000E-03 0. -1.
</event>
<event>
 8    1  0.2943605E+004  0.1043930E+01  0.7957747E-01            NaN
         13   -1    0    0    0    0  0.00000000000E+00  0.00000000000E+00  0.74505805969E-08  0.10566000000E+00  0.10566000000E+00 0. -1.
     999900   -1    0    0    0    0 -0.00000000000E+00 -0.00000000000E+00 -0.74505805969E-08  0.93827000000E+00  0.93827000000E+00 0. -1.
     999902    2    1    2    0    0 -0.13912877571E-01 -0.21382543849E-02 -0.17344094682E-02  0.10297473179E+01  0.10296496445E+01 0.  0.
     999903    2    3    3    0    0  0.14672337141E-01 -0.46889277881E-01  0.12156652156E+00  0.13956593856E+00  0.47815794317E-01 0.  0.
         14    1    1    2    0    0  0.13912877571E-01  0.21382543849E-02  0.17344094682E-02  0.14182682057E-01  0.00000000000E+00 0. -1.
     999901    1    3    3    0    0 -0.28585214712E-01  0.44751023496E-01 -0.12330093102E+00  0.89018137938E+00  0.88000000000E+00 0. -1.
        -11    1    4    4    0    0 -0.25563194643E-02 -0.16524768593E-01  0.92888001977E-01  0.94382438931E-01  0.51100000000E-03 0. -1.
         11    1    4    4    0    0  0.17228656605E-01 -0.30364509288E-01  0.28678519579E-01  0.45183499631E-01  0.51100000000E-03 0.  1.
</event>
<event>
 8    1  0.2943605E+004  0.1043930E+01  0.7957747E-01            NaN
         13   -1    0    0    0    0  0.00000000000E+00  0.00000000000E+00  0.74505805969E-08  0.10566000000E+00  0.10566000000E+00 0. -1.
     999900   -1    0    0    0    0 -0.00000000000E+00 -0.00000000000E+00 -0.74505805969E-08  0.93827000000E+00  0.93827000000E+00 0. -1.
     999902    2    1    2    0    0  0.24359432584E-02  0.26529336785E-04 -0.17062748990E-01  0.10266942254E+01  0.10265495412E+01 0.  0.
     999903    2    3    3    0    0 -0.93361254971E-01  0.88676747646E-01 -0.15609687635E-01  0.13706617065E+00  0.44312337843E-01 0.  0.
         14    1    1    2    0    0 -0.24359432584E-02 -0.26529336785E-04  0.17062748990E-01  0.17235774611E-01  0.00000000000E+00 0. -1.
     999901    1    3    3    0    0  0.95797198229E-01 -0.88650218309E-01 -0.14530613553E-02  0.88962805474E+00  0.88000000000E+00 0.  1.
        -11    1    4    4    0    0 -0.18973312284E-01  0.24669098119E-01 -0.22925261549E-01  0.38657207855E-01  0.51100000000E-03 0.  1.
         11    1    4    4    0    0 -0.74387942687E-01  0.64007649528E-01  0.73155739148E-02  0.98408962793E-01  0.51100000000E-03 0. -1.
</event>
<event>
 8    1  0.2943605E+004  0.1043930E+01  0.7957747E-01            NaN
         13   -1    0    0    0    0  0.00000000000E+00  0.00000000000E+00  0.74505805969E-08  0.10566000000E+00  0.10566000000E+00 0. -1.
     999900   -1    0    0    0    0 -0.00000000000E+00 -0.00000000000E+00 -0.74505805969E-08  0.93827000000E+00  0.93827000000E+00 0.  1.
     999902    2    1    2    0    0 -0.13490769946E-01 -0.18085533287E-02  0.47243025915E-02  0.10295219892E+01  0.10294211653E+01 0.  0.
     999903    2    3    3    0    0 -0.34715166808E-01 -0.12489999208E+00 -0.28145873516E-01  0.14009384387E+00  0.45043801627E-01 0.  0.
         14    1    1    2    0    0  0.13490769946E-01  0.18085533287E-02 -0.47243025915E-02  0.14408010753E-01  0.00000000000E+00 0.  1.
     999901    1    3    3    0    0  0.21224396862E-01  0.12309143875E+00  0.32870176107E-01  0.88942814538E+00  0.88000000000E+00 0. -1.
        -11    1    4    4    0    0 -0.75474927022E-02 -0.70109094525E-01 -0.34688332705E-01  0.78586203166E-01  0.51100000000E-03 0.  1.
         11    1    4    4    0    0 -0.27167674106E-01 -0.54790897557E-01  0.65424591891E-02  0.61507640701E-01  0.51100000000E-03 0. -1.
</event>
<event>
 8    1  0.2943605E+004  0.1043930E+01  0.7957747E-01            NaN
         13   -1    0    0    0    0  0.00000000000E+00  0.00000000000E+00  0.74505805969E-08  0.10566000000E+00  0.10566000000E+00 0. -1.
     999900   -1    0    0    0    0 -0.00000000000E+00 -0.00000000000E+00 -0.74505805969E-08  0.93827000000E+00  0.93827000000E+00 0.  1.
     999902    2    1    2    0    0  0.92793439275E-02 -0.24115800952E-03 -0.79166154912E-02  0.10317301155E+01  0.10316579831E+01 0.  0.
     999903    2    3    3    0    0  0.43455370482E-02  0.27811166884E-01 -0.13190288578E+00  0.14258228156E+00  0.46249227477E-01 0.  0.
         14    1    1    2    0    0 -0.92793439275E-02  0.24115800952E-03  0.79166154912E-02  0.12199884497E-01  0.00000000000E+00 0. -1.
     999901    1    3    3    0    0  0.49338068793E-02 -0.28052324894E-01  0.12398627029E+00  0.88914783394E+00  0.88000000000E+00 0. -1.
        -11    1    4    4    0    0 -0.18706215832E-01  0.23119358892E-01 -0.60767587974E-01  0.67656397595E-01  0.51100000000E-03 0.  1.
         11    1    4    4    0    0  0.23051752880E-01  0.46918079923E-02 -0.71135297807E-01  0.74925883967E-01  0.51100000000E-03 0. -1.
</event>
<event>
 8    1  0.2943605E+004  0.1043930E+01  0.7957747E-01            NaN
         13   -1    0    0    0    0  0.00000000000E+00  0.00000000000E+00  0.74505805969E-08  0.10566000000E+00  0.10566000000E+00 0. -1.
     999900   -1    0    0    0    0 -0.00000000000E+00 -0.00000000000E+00 -0.74505805969E-08  0.93827000000E+00  0.93827000000E+00 0.  1.
     999902    2    1    2    0    0  0.92995534586E-02 -0.85724349861E-02  0.36422756103E-02  0.10307681419E+01  0.10306841068E+01 0.  0.
     999903    2    3    3    0    0  0.12736485706E+00 -0.42017545635E-01 -0.13452555981E-01  0.14208922095E+00  0.44956584522E-01 0.  0.
         14    1    1    2    0    0 -0.92995534586E-02  0.85724349861E-02 -0.36422756103E-02  0.13161858066E-01  0.00000000000E+00 0.  1.
     999901    1    3    3    0    0 -0.11806530360E+00  0.33445110649E-01  0.17094831591E-01  0.88867892099E+00  0.88000000000E+00 0. -1.
        -11    1    4    4    0    0  0.65162845714E-01 -0.19472978577E-01  0.15679543935E-01  0.69796150146E-01  0.51100000000E-03 0. -1.
         11    1    4    4    0    0  0.62202011346E-01 -0.22544567058E-01 -0.29132099916E-01  0.72293070801E-01  0.51100000000E-03 0.  1.
</event>
<event>
 7    1  0.2943605E+004  0.1043930E+01  0.7957747E-01            NaN
         13   -1    0    0    0    0  0.00000000000E+00  0.00000000000E+00  0.74505805969E-08  0.10566000000E+00  0.10566000000E+00 0.  1.
     999900   -1    0    0    0    0 -0.00000000000E+00 -0.00000000000E+00 -0.74505805969E-08  0.93827000000E+00  0.93827000000E+00 0. -1.
     999903    2    1    2    0    0  0.87912259589E-01 -0.59970555508E-01 -0.28037223155E-01  0.11739503703E+00  0.40871456095E-01 0.  0.
         14    1    1    2    0    0  0.33777339094E-01 -0.92945760146E-02  0.17814673832E-02  0.35078075854E-01  0.00000000000E+00 0. -1.
     999901    1    1    2    0    0 -0.12168959868E+00  0.69265131523E-01  0.26255755771E-01  0.89145688711E+00  0.88000000000E+00 0. -1.
        -11    1    3    3    0    0  0.24448824496E-01 -0.38834733703E-01 -0.19856624254E-01  0.50004281905E-01  0.51100000000E-03 0. -1.
         11    1    3    3    0    0  0.63463435093E-01 -0.21135821805E-01 -0.81805989008E-02  0.67390755127E-01  0.51100000000E-03 0.  1.
</event>
<event>
 8    1  0.2943605E+004  0.1043930E+01  0.7957747E-01            NaN
         13   -1    0    0    0    0  0.00000000000E+00  0.00000000000E+00  0.74505805969E-08  0.10566000000E+00  0.10566000000E+00 0. -1.
     999900   -1    0    0    0    0 -0.00000000000E+00 -0.00000000000E+00 -0.74505805969E-08  0.93827000000E+00  0.93827000000E+00 0.  1.
     999902    2    1    2    0    0  0.84512705629E-02  0.10606505734E-01 -0.46442731134E-02  0.10295950354E+01  0.10294952383E+01 0.  0.
     999903    2    3    3    0    0 -0.68587135760E-01  0.11344600978E+00  0.41704829863E-02  0.14021964806E+00  0.45496861942E-01 0.  0.
         14    1    1    2    0    0 -0.84512705629E-02 -0.10606505734E-01  0.46442731134E-02  0.14334964624E-01  0.00000000000E+00 0. -1.
     999901    1    3    3    0    0  0.77038406323E-01 -0.10283950405E+00 -0.88147560997E-02  0.88937538732E+00  0.88000000000E+00 0.  1.
        -11    1    4    4    0    0 -0.41201707690E-01  0.69232759895E-01  0.24755235001E-01  0.84284272199E-01  0.51100000000E-03 0.  1.
         11    1    4    4    0    0 -0.27385428070E-01  0.44213249886E-01 -0.20584752015E-01  0.55935375860E-01  0.51100000000E-03 0. -1.
</event>
<event>
 8    1  0.2943605E+004  0.1043930E+01  0.7957747E-01            NaN
         13   -1    0    0    0    0  0.00000000000E+00  0.00000000000E+00  0.74505805969E-08  0.10566000000E+00  0.10566000000E+00 0. -1.
     999900   -1    0    0    0    0 -0.00000000000E+00 -0.00000000000E+00 -0.74505805969E-08  0.93827000000E+00  0.93827000000E+00 0. -1.
     999902    2    1    2    0    0  0.93894851314E-02 -0.82337969107E-02  0.64947092939E-02  0.10298538112E+01  0.10297576090E+01 0.  0.
     999903    2    3    3    0    0  0.51284756924E-01  0.99497761106E-01  0.70838181833E-01  0.13996539973E+00  0.45192193557E-01 0.  0.
         14    1    1    2    0    0 -0.93894851314E-02  0.82337969107E-02 -0.64947092939E-02  0.14076188810E-01  0.00000000000E+00 0. -1.
     999901    1    3    3    0    0 -0.41895271792E-01 -0.10773155802E+00 -0.64343472539E-01  0.88988841146E+00  0.88000000000E+00 0.  1.
        -11    1    4    4    0    0  0.41992770504E-01  0.99692726714E-01  0.54424947676E-01  0.12109652590E+00  0.51100000000E-03 0.  1.
         11    1    4    4    0    0  0.92919864196E-02 -0.19496560721E-03  0.16413234157E-01  0.18868873832E-01  0.51100000000E-03 0. -1.
</event>
<event>
 8    1  0.2943605E+004  0.1043930E+01  0.7957747E-01            NaN
         13   -1    0    0    0    0  0.00000000000E+00  0.00000000000E+00  0.74505805969E-08  0.10566000000E+00  0.10566000000E+00 0. -1.
     999900   -1    0    0    0    0 -0.00000000000E+00 -0.00000000000E+00 -0.74505805969E-08  0.93827000000E+00  0.93827000000E+00 0.  1.
     999902    2    1    2    0    0 -0.83992195407E-02 -0.10598229527E-01 -0.20311130861E-02  0.10302553966E+01  0.10301646409E+01 0.  0.
     999903    2    3    3    0    0 -0.41789832383E-01 -0.89213205663E-01  0.90505059264E-01  0.14129072311E+00  0.45458954347E-01 0.  0.
         14    1    1    2    0    0  0.83992195407E-02  0.10598229527E-01  0.20311130861E-02  0.13674603408E-01  0.00000000000E+00 0.  1.
     999901    1    3    3    0    0  0.33390612842E-01  0.78614976137E-01 -0.92536172350E-01  0.88896467348E+00  0.88000000000E+00 0.  1.
        -11    1    4    4    0    0 -0.35146749278E-01 -0.79324491989E-01  0.52389935219E-01  0.10135401052E+00  0.51100000000E-03 0. -1.
         11    1    4    4    0    0 -0.66430831050E-02 -0.98887136741E-02  0.38115124045E-01  0.39936712599E-01  0.51100000000E-03 0.  1.
</event>
<event>
 8    1  0.2943605E+004  0.1043930E+01  0.7957747E-01            NaN
         13   -1    0    0    0    0  0.00000000000E+00  0.00000000000E+00  0.74505805969E-08  0.10566000000E+00  0.10566000000E+00 0.  1.
     999900   -1    0    0    0    0 -0.00000000000E+00 -0.00000000000E+00 -0.74505805969E-08  0.93827000000E+00  0.93827000000E+00 0.  1.
     999902    2    1    2    0    0 -0.11681938530E-02 -0.12894895022E-01  0.39558000992E-02  0.10303914865E+01  0.10303025400E+01 0.  0.
     999903    2    3    3    0    0 -0.15585688715E-01 -0.11760621045E+00 -0.64443452720E-01  0.14143098029E+00  0.42138214955E-01 0.  0.
         14    1    1    2    0    0  0.11681938530E-02  0.12894895022E-01 -0.39558000992E-02  0.13538513542E-01  0.00000000000E+00 0.  1.
     999901    1    3    3    0    0  0.14417494862E-01  0.10471131543E+00  0.68399252819E-01  0.88896050617E+00  0.88000000000E+00 0. -1.
        -11    1    4    4    0    0  0.10583619438E-01 -0.16090543492E-01 -0.19358824171E-01  0.27311971451E-01  0.51100000000E-03 0.  1.
         11    1    4    4    0    0 -0.26169308153E-01 -0.10151566695E+00 -0.45084628549E-01  0.11411900884E+00  0.51100000000E-03 0. -1.
</event>
<event>
 8    1  0.2943605E+004  0.1043930E+01  0.7957747E-01            NaN
         13   -1    0    0    0    0  0.00000000000E+00  0.00000000000E+00  0.74505805969E-08  0.10566000000E+00  0.10566000000E+00 0.  1.
     999900   -1    0    0    0    0 -0.00000000000E+00 -0.00000000000E+00 -0.74505805969E-08  0.93827000000E+00  0.93827000000E+00 0.  1.
     999902    2    1    2    0    0  0.13258783871E-01  0.15879088353E-02 -0.85864854193E-02  0.10280540894E+01  0.10279314988E+01 0.  0.
     999903    2    3    3    0    0  0.11184717676E-01  0.21561357762E-01 -0.12983760543E+00  0.13951310867E+00  0.44901154201E-01 0.  0.
         14    1    1    2    0    0 -0.13258783871E-01 -0.15879088353E-02  0.85864854193E-02  0.15875910558E-01  0.00000000000E+00 0.  1.
     999901    1    3    3    0    0  0.20740661945E-02 -0.19973448926E-01  0.12125112001E+00  0.88854098077E+00  0.88000000000E+00 0. -1.
        -11    1    4    4    0    0  0.68072843043E-02  0.29447556458E-01 -0.45088217219E-01  0.54283571677E-01  0.51100000000E-03 0. -1.
         11    1    4    4    0    0  0.43774333719E-02 -0.78861986968E-02 -0.84749388209E-01  0.85229536990E-01  0.51100000000E-03 0.  1.
</event>
<event>
 8    1  0.2943605E+004  0.1043930E+01  0.7957747E-01            NaN
         13   -1    0    0    0    0  0.00000000000E+00  0.00000000000E+00  0.74505805969E-08  0.10566000000E+00  0.10566000000E+00 0.  1.
     999900   -1    0    0    0    0 -0.00000000000E+00 -0.00000000000E+00 -0.74505805969E-08  0.93827000000E+00  0.93827000000E+00 0. -1.
     999902    2    1    2    0    0  0.16579137336E-01  0.41237435703E-02  0.20153707456E-01  0.10175094591E+01  0.10171663848E+01 0.  0.
     999903    2    3    3    0    0  0.55698014360E-01 -0.10662096577E+00  0.17565585644E-01  0.12970239925E+00  0.45209107785E-01 0.  0.
         14    1    1    2    0    0 -0.16579137336E-01 -0.41237435703E-02 -0.20153707456E-01  0.26420540874E-01  0.00000000000E+00 0. -1.
     999901    1    3    3    0    0 -0.39118877024E-01  0.11074470934E+00  0.25881218126E-02  0.88780705987E+00  0.88000000000E+00 0.  1.
        -11    1    4    4    0    0  0.35696669156E-01 -0.31593302600E-01 -0.71692142156E-02  0.48208378022E-01  0.51100000000E-03 0. -1.
         11    1    4    4    0    0  0.20001345203E-01 -0.75027663173E-01  0.24734799859E-01  0.81494021230E-01  0.51100000000E-03 0.  1.
</event>
<event>
 8    1  0.2943605E+004  0.1043930E+01  0.7957747E-01            NaN
         13   -1    0    0    0    0  0.00000000000E+00  0.00000000000E+00  0.74505805969E-08  0.10566000000E+00  0.10566000000E+00 0. -1.
     999900   -1    0    0    0    0 -0.00000000000E+00 -0.00000000000E+00 -0.74505805969E-08  0.93827000000E+00  0.93827000000E+00 0.  1.
     999902    2    1    2    0    0  0.58367381692E-02 -0.26256519124E-02 -0.13332230009E-01  0.10291411556E+01  0.10290348917E+01 0.  0.
     999903    2    3    3    0    0  0.11886635096E+00 -0.44663209275E-01 -0.39682646902E-01  0.14052583163E+00  0.45263508901E-01 0.  0.
         14    1    1    2    0    0 -0.58367381692E-02  0.26256519124E-02  0.13332230009E-01  0.14788844358E-01  0.00000000000E+00 0. -1.
     999901    1    3    3    0    0 -0.11302961279E+00  0.42037557363E-01  0.26350416893E-01  0.88861532401E+00  0.88000000000E+00 0.  1.
        -11    1    4    4    0    0  0.63950560294E-02 -0.65253857126E-02  0.83783944585E-02  0.12407095350E-01  0.51100000000E-03 0.  1.
         11    1    4    4    0    0  0.11247129493E+00 -0.38137823563E-01 -0.48061041361E-01  0.12811873628E+00  0.51100000000E-03 0. -1.
</event>
<event>
 8    1  0.2943605E+004  0.1043930E+01  0.7957747E-01            NaN
         13   -1    0    0    0    0  0.00000000000E+00  0.00000000000E+00  0.74505805969E-08  0.10566000000E+00  0.10566000000E+00 0. -1.
     999900   -1    0    0    0    0 -0.00000000000E+00 -0.00000000000E+00 -0.74505805969E-08  0.93827000000E+00  0.93827000000E+00 0. -1.
     999902    2    1    2    0    0 -0.83558848798E-02  0.57610355383E-02  0.10430695560E-01  0.10293763148E+01  0.10292734271E+01 0.  0.
     999903    2    3    3    0    0  0.32372217517E-01  0.97088090376E-02  0.12879604885E+00  0.14050921558E+00  0.44857508016E-01 0.  0.
         14    1    1    2    0    0  0.83558848798E-02 -0.57610355383E-02 -0.10430695560E-01  0.14553685185E-01  0.00000000000E+00 0. -1.
     999901    1    3    3    0    0 -0.40728102397E-01 -0.39477734993E-02 -0.11836535329E+00  0.88886709923E+00  0.88000000000E+00 0. -1.
        -11    1    4    4    0    0 -0.10369599894E-01  0.67799181081E-02  0.19423380623E-01  0.23043973775E-01  0.51100000000E-03 0. -1.
         11    1    4    4    0    0  0.42741817411E-01  0.29288909295E-02  0.10937266822E+00  0.11746524181E+00  0.51100000000E-03 0.  1.
</event>
<event>
 8    1  0.2943605E+004  0.1043930E+01  0.7957747E-01            NaN
         13   -1    0    0    0    0  0.00000000000E+00  0.00000000000E+00  0.74505805969E-08  0.10566000000E+00  0.10566000000E+00 0.  1.
     999900   -1    0    0    0    0 -0.00000000000E+00 -0.00000000000E+00 -0.74505805969E-08  0.93827000000E+00  0.93827000000E+00 0.  1.
     999902    2    1    2    0    0  0.12237893374E-01  0.31982204969E-02  0.88128108234E-02  0.10285137656E+01  0.10283982233E+01 0.  0.
     999903    2    3    3    0    0 -0.97435259614E-01  0.55304028696E-01  0.67489967604E-01  0.13824064769E+00  0.44759530171E-01 0.  0.
         14    1    1    2    0    0 -0.12237893374E-01 -0.31982204969E-02 -0.88128108234E-02  0.15416234404E-01  0.00000000000E+00 0. -1.
     999901    1    3    3    0    0  0.10967315299E+00 -0.52105808199E-01 -0.58677156781E-01  0.89027311790E+00  0.88000000000E+00 0.  1.
        -11    1    4    4    0    0 -0.20498924467E-01  0.24357039580E-01  0.39459156021E-01  0.50702636976E-01  0.51100000000E-03 0. -1.
         11    1    4    4    0    0 -0.76936335147E-01  0.30946989116E-01  0.28030811584E-01  0.87538010717E-01  0.51100000000E-03 0.  1.
</event>
<event>
 8    1  0.2943605E+004  0.1043930E+01  0.7957747E-01            NaN
         13   -1    0    0    0    0  0.00000000000E+00  0.00000000000E+00  0.74505805969E-08  0.10566000000E+00  0.10566000000E+00 0. -1.
     999900   -1    0    0    0    0 -0.00000000000E+00 -0.00000000000E+00 -0.74505805969E-08  0.93827000000E+00  0.93827000000E+00 0. -1.
     999902    2    1    2    0    0 -0.64830706340E-02 -0.12088165363E-01  0.32040698556E-02  0.10298438362E+01  0.10297474967E+01 0.  0.
     999903    2    3    3    0    0  0.94988548127E-01  0.89733660656E-01 -0.11897771207E-01  0.13805224662E+00  0.42917498830E-01 0.  0.
         14    1    1    2    0    0  0.64830706340E-02  0.12088165363E-01 -0.32040698556E-02  0.14086163790E-01  0.00000000000E+00 0.  1.
     999901    1    3    3    0    0 -0.10147161876E+00 -0.10182182602E+00  0.15101841063E-01  0.89179158959E+00  0.88000000000E+00 0. -1.
        -11    1    4    4    0    0  0.35300669793E-02  0.25544638953E-01 -0.28547445464E-02  0.25949964153E-01  0.51100000000E-03 0.  1.
         11    1    4    4    0    0  0.91458481148E-01  0.64189021703E-01 -0.90430266607E-02  0.11210228246E+00  0.51100000000E-03 0. -1.
</event>
<event>
 8    1  0.2943605E+004  0.1043930E+01  0.7957747E-01            NaN
         13   -1    0    0    0    0  0.00000000000E+00  0.00000000000E+00  0.74505805969E-08  0.10566000000E+00  0.10566000000E+00 0. -1.
     999900   -1    0    0    0    0 -0.00000000000E+00 -0.00000000000E+00 -0.74505805969E-08  0.93827000000E+00  0.93827000000E+00 0.  1.
     999902    2    1    2    0    0 -0.10856835851E-01  0.60427716908E-02  0.78445853233E-02  0.10292356646E+01  0.10291307642E+01 0.  0.
     999903    2    3    3    0    0 -0.60156439385E-01  0.11771053074E+00 -0.23302594287E-01  0.14026418804E+00  0.40699696539E-01 0.  0.
         14    1    1    2    0    0  0.10856835851E-01 -0.60427716908E-02 -0.78445853233E-02  0.14694335415E-01  0.00000000000E+00 0.  1.
     999901    1    3    3    0    0  0.49299603534E-01 -0.11166775905E+00  0.31147179610E-01  0.88897147655E+00  0.88000000000E+00 0. -1.
        -11    1    4    4    0    0 -0.14366243952E-01  0.11665136629E-01  0.86238455973E-02  0.20422933476E-01  0.51100000000E-03 0.  1.
         11    1    4    4    0    0 -0.45790195433E-01  0.10604539411E+00 -0.31926439884E-01  0.11984125456E+00  0.51100000000E-03 0. -1.
</event>
<event>
 8    1  0.2943605E+004  0.1043930E+01  0.7957747E-01            NaN
         13   -1    0    0    0    0  0.00000000000E+00  0.00000000000E+00  0.74505805969E-08  0.10566000000E+00  0.10566000000E+00 0. -1.
     999900   -1    0    0    0    0 -0.00000000000E+00 -0.00000000000E+00 -0.74505805969E-08  0.93827000000E+00  0.93827000000E+00 0. -1.
     999902    2    1    2    0    0 -0.11774445010E-01 -0.60129470503E-02  0.50087661127E-02  0.10297920785E+01  0.10296950248E+01 0.  0.
     999903    2    3    3    0    0 -0.71444293481E-01 -0.11047719928E+00 -0.21485141496E-01  0.14121163868E+00  0.46579147285E-01 0.  0.
         14    1    1    2    0    0  0.11774445010E-01  0.60129470503E-02 -0.50087661127E-02  0.14137921541E-01  0.00000000000E+00 0.  1.
     999901    1    3    3    0    0  0.59669848470E-01  0.10446425223E+00  0.26493907609E-01  0.88858043978E+00  0.88000000000E+00 0. -1.
        -11    1    4    4    0    0 -0.33963391186E-01 -0.51450362418E-01 -0.33651838309E-01  0.70237874942E-01  0.51100000000E-03 0.  1.
         11    1    4    4    0    0 -0.37480902295E-01 -0.59026836867E-01  0.12166696812E-01  0.70973763742E-01  0.51100000000E-03 0. -1.
</event>
<event>
 8    1  0.2943605E+004  0.1043930E+01  0.7957747E-01            NaN
         13   -1    0    0    0    0  0.00000000000E+00  0.00000000000E+00  0.74505805969E-08  0.10566000000E+00  0.10566000000E+00 0.  1.
     999900   -1    0    0    0    0 -0.00000000000E+00 -0.00000000000E+00 -0.74505805969E-08  0.93827000000E+00  0.93827000000E+00 0. -1.
     999902    2    1    2    0    0 -0.68768375544E-02 -0.10846937901E-01  0.60454682480E-02  0.10297351191E+01  0.10296372764E+01 0.  0.
     999903    2    3    3    0    0  0.48425249581E-02 -0.34239644765E-01  0.12867965463E+00  0.14084609014E+00  0.45643885354E-01 0.  0.
         14    1    1    2    0    0  0.68768375544E-02  0.10846937901E-01 -0.60454682480E-02  0.14194880870E-01  0.00000000000E+00 0.  1.
     999901    1    3    3    0    0 -0.11719362512E-01  0.23392706864E-01 -0.12263418638E+00  0.88888902899E+00  0.88000000000E+00 0. -1.
        -11    1    4    4    0    0  0.22301058695E-01 -0.12223741815E-01  0.36582362315E-01  0.44556564459E-01  0.51100000000E-03 0. -1.
         11    1    4    4    0    0 -0.17458533737E-01 -0.22015902950E-01  0.92097292314E-01  0.96289525680E-01  0.51100000000E-03 0.  1.
</event>
<event>
 8    1  0.2943605E+004  0.1043930E+01  0.7957747E-01            NaN
         13   -1    0    0    0    0  0.00000000000E+00  0.00000000000E+00  0.74505805969E-08  0.10566000000E+00  0.10566000000E+00 0. -1.
     999900   -1    0    0    0    0 -0.00000000000E+00 -0.00000000000E+00 -0.74505805969E-08  0.93827000000E+00  0.93827000000E+00 0.  1.
     999902    2    1    2    0    0 -0.13365887432E-02 -0.67531276272E-02  0.11903933660E-01  0.10301788241E+01  0.10300870423E+01 0.  0.
     999903    2    3    3    0    0 -0.11760224918E+00 -0.42202408457E-01 -0.44408780563E-01  0.14004092630E+00  0.45033198386E-01 0.  0.
         14    1    1    2    0    0  0.13365887432E-02  0.67531276272E-02 -0.11903933660E-01  0.13751175906E-01  0.00000000000E+00 0.  1.
     999901    1    3    3    0    0  0.11626566043E+00  0.35449280829E-01  0.56312714223E-01  0.89013789779E+00  0.88000000000E+00 0. -1.
        -11    1    4    4    0    0 -0.66812174967E-01 -0.10171525007E-02 -0.15798958046E-01  0.68664179303E-01  0.51100000000E-03 0.  1.
         11    1    4    4    0    0 -0.50790074210E-01 -0.41185255956E-01 -0.28609822517E-01  0.71376746997E-01  0.51100000000E-03 0. -1.
</event>
<event>
 8    1  0.2943605E+004  0.1043930E+01  0.7957747E-01            NaN
         13   -1    0    0    0    0  0.00000000000E+00  0.00000000000E+00  0.74505805969E-08  0.10566000000E+00  0.10566000000E+00 0. -1.
     999900   -1    0    0    0    0 -0.00000000000E+00 -0.00000000000E+00 -0.74505805969E-08  0.93827000000E+00  0.93827000000E+00 0.  1.
     999902    2    1    2    0    0  0.11611900565E-01  0.27966605583E-02  0.71025641431E-02  0.10300338148E+01  0.10299400738E+01 0.  0.
     999903    2    3    3    0    0  0.18523052503E-01 -0.14172458966E-01 -0.12982604625E+00  0.13925597530E+00  0.44648206064E-01 0.  0.
         14    1    1    2    0    0 -0.11611900565E-01 -0.27966605583E-02 -0.71025641431E-02  0.13896185175E-01  0.00000000000E+00 0. -1.
     999901    1    3    3    0    0 -0.69111519384E-02  0.16969119524E-01  0.13692861040E+00  0.89077783952E+00  0.88000000000E+00 0. -1.
        -11    1    4    4    0    0  0.22167392115E-01  0.11057838905E-01 -0.68327668461E-01  0.72681500210E-01  0.51100000000E-03 0.  1.
         11    1    4    4    0    0 -0.36443396121E-02 -0.25230297872E-01 -0.61498377792E-01  0.66574475093E-01  0.51100000000E-03 0. -1.
</event>
<event>
 8    1  0.2943605E+004  0.1043930E+01  0.7957747E-01            NaN
         13   -1    0    0    0    0  0.00000000000E+00  0.00000000000E+00  0.74505805969E-08  0.10566000000E+00  0.10566000000E+00 0. -1.
     999900   -1    0    0    0    0 -0.00000000000E+00 -0.00000000000E+00 -0.74505805969E-08  0.93827000000E+00  0.93827000000E+00 0. -1.
     999902    2    1    2    0    0 -0.64670670833E-03 -0.13140263214E-01  0.50023836971E-02  0.10298548947E+01  0.10297587074E+01 0.  0.
     999903    2    3    3    0    0  0.48985087681E-01  0.62372693743E-01 -0.10593390710E+00  0.13829873701E+00  0.40182785428E-01 0.  0.
         14    1    1    2    0    0  0.64670670833E-03  0.13140263214E-01 -0.50023836971E-02  0.14075105312E-01  0.00000000000E+00 0. -1.
     999901    1    3    3    0    0 -0.49631794390E-01 -0.75512956956E-01  0.11093629080E+00  0.89155615768E+00  0.88000000000E+00 0.  1.
        -11    1    4    4    0    0  0.96496034213E-04  0.27579622042E-01 -0.44971260313E-01  0.52757181867E-01  0.51100000000E-03 0. -1.
         11    1    4    4    0    0  0.48888591647E-01  0.34793071701E-01 -0.60962646786E-01  0.85541555140E-01  0.51100000000E-03 0.  1.
</event>
<event>
 8    1  0.2943605E+004  0.1043930E+01  0.7957747E-01            NaN
         13   -1    0    0    0    0  0.00000000000E+00  0.00000000000E+00  0.74505805969E-08  0.10566000000E+00  0.10566000000E+00 0. -1.
     999900   -1    0    0    0    0 -0.00000000000E+00 -0.00000000000E+00 -0.74505805969E-08  0.93827000000E+00  0.93827000000E+00 0.  1.
     999902    2    1    2    0    0  0.50128602744E-02 -0.12798947931E-01  0.52075813515E-02  0.10292309953E+01  0.10291260277E+01 0.  0.
     999903    2    3    3    0    0  0.93524981658E-01  0.90424163465E-01  0.17883844866E-01  0.13869739456E+00  0.44650686637E-01 0.  0.
         14    1    1    2    0    0 -0.50128602744E-02  0.12798947931E-01 -0.52075813515E-02  0.14699004721E-01  0.00000000000E+00 0.  1.
     999901    1    3    3    0    0 -0.88512121384E-01 -0.10322311140E+00 -0.12676263515E-01  0.89053360072E+00  0.88000000000E+00 0.  1.
        -11    1    4    4    0    0  0.73096322978E-01  0.40475138196E-01  0.98247300952E-02  0.84131419145E-01  0.51100000000E-03 0.  1.
         11    1    4    4    0    0  0.20428658680E-01  0.49949025269E-01  0.80591147713E-02  0.54565975412E-01  0.51100000000E-03 0. -1.
</event>
<event>
 8    1  0.2943605E+004  0.1043930E+01  0.7957747E-01            NaN
         13   -1    0    0    0    0  0.00000000000E+00  0.00000000000E+00  0.74505805969E-08  0.10566000000E+00  0.10566000000E+00 0. -1.
     999900   -1    0    0    0    0 -0.00000000000E+00 -0.00000000000E+00 -0.74505805969E-08  0.93827000000E+00  0.93827000000E+00 0.  1.
     999902    2    1    2    0    0  0.13633407857E-01 -0.33804194487E-02  0.32766051052E-03  0.10298799321E+01  0.10297840891E+01 0.  0.
     999903    2    3    3    0    0 -0.12045196903E+00 -0.31205414370E-01 -0.40990724556E-01  0.13833053498E+00  0.44414442223E-01 0.  0.
         14    1    1    2    0    0 -0.13633407857E-01  0.33804194487E-02 -0.32766051052E-03  0.14050067860E-01  0.00000000000E+00 0. -1.
     999901    1    3    3    0    0  0.13408537689E+00  0.27824994922E-01  0.41318385067E-01  0.89154939716E+00  0.88000000000E+00 0.  1.
        -11    1    4    4    0    0 -0.10549935205E+00 -0.99208830813E-02 -0.30397207633E-01  0.11023968685E+00  0.51100000000E-03 0.  1.
         11    1    4    4    0    0 -0.14952616986E-01 -0.21284531289E-01 -0.10593516923E-01  0.28090848131E-01  0.51100000000E-03 0. -1.
</event>
<event>
 8    1  0.2943605E+004  0.1043930E+01  0.7957747E-01            NaN
         13   -1    0    0    0    0  0.00000000000E+00  0.00000000000E+00  0.74505805969E-08  0.10566000000E+00  0.10566000000E+00 0. -1.
     999900   -1    0    0    0    0 -0.00000000000E+00 -0.00000000000E+00 -0.74505805969E-08  0.93827000000E+00  0.93827000000E+00 0. -1.
     999902    2    1    2    0    0 -0.26253495389E-02 -0.21030277139E-02 -0.15069273741E-01  0.10284898511E+01  0.10283739474E+01 0.  0.
     999903    2    3    3    0    0 -0.12551568085E+00 -0.29836221599E-01  0.26205687356E-01  0.13856019887E+00  0.43218102735E-01 0.  0.
         14    1    1    2    0    0  0.26253495389E-02  0.21030277139E-02  0.15069273741E-01  0.15440148861E-01  0.00000000000E+00 0. -1.
     999901    1    3    3    0    0  0.12289033131E+00  0.27733193885E-01 -0.41274961097E-01  0.88992965227E+00  0.88000000000E+00 0. -1.
        -11    1    4    4    0    0 -0.81036932292E-01 -0.31269876092E-01 -0.10013474327E-03  0.86862308824E-01  0.51100000000E-03 0. -1.
         11    1    4    4    0    0 -0.44478748553E-01  0.14336544937E-02  0.26305822099E-01  0.51697890047E-01  0.51100000000E-03 0.  1.
</event>
<event>
 8    1  0.2943605E+004  0.1043930E+01  0.7957747E-01            NaN
         13   -1    0    0    0    0  0.00000000000E+00  0.00000000000E+00  0.74505805969E-08  0.10566000000E+00  0.10566000000E+00 0. -1.
     999900   -1    0    0    0    0 -0.00000000000E+00 -0.00000000000E+00 -0.74505805969E-08  0.93827000000E+00  0.93827000000E+00 0.  1.
     999902    2    1    2    0    0  0.82494341837E-02  0.10372826253E-01  0.38958260739E-02  0.10301160162E+01  0.10300233884E+01 0.  0.
     999903    2    3    3    0    0  0.52151707609E-01 -0.12114693316E+00 -0.13495523652E-02  0.13924432465E+00  0.44618164851E-01 0.  0.
         14    1    1    2    0    0 -0.82494341837E-02 -0.10372826253E-01 -0.38958260739E-02  0.13813983844E-01  0.00000000000E+00 0. -1.
     999901    1    3    3    0    0 -0.43902273425E-01  0.13151975942E+00  0.52453784392E-02  0.89087169150E+00  0.88000000000E+00 0. -1.
        -11    1    4    4    0    0  0.25599657451E-01 -0.60725595328E-01 -0.22973051277E-01  0.69792281776E-01  0.51100000000E-03 0. -1.
         11    1    4    4    0    0  0.26552050158E-01 -0.60421337836E-01  0.21623498911E-01  0.69452042876E-01  0.51100000000E-03 0.  1.
</event>
<event>
 8    1  0.2943605E+004  0.1043930E+01  0.7957747E-01            NaN
         13   -1    0    0    0    0  0.00000000000E+00  0.00000000000E+00  0.74505805969E-08  0.10566000000E+00  0.10566000000E+00 0.  1.
     999900   -1    0    0    0    0 -0.00000000000E+00 -0.00000000000E+00 -0.74505805969E-08  0.93827000000E+00  0.93827000000E+00 0.  1.
     999902    2    1    2    0    0  0.12675688189E-01  0.38707277079E-02  0.28074777233E-02  0.10303823974E+01  0.10302933308E+01 0.  0.
     999903    2    3    3    0    0 -0.65863177006E-02  0.13438314625E-01  0.13249572087E+00  0.14061748242E+00  0.44656381762E-01 0.  0.
         14    1    1    2    0    0 -0.12675688189E-01 -0.38707277079E-02 -0.28074777233E-02  0.13547602564E-01  0.00000000000E+00 0. -1.
     999901    1    3    3    0    0  0.19262005890E-01 -0.95675869169E-02 -0.12968824314E+00  0.88976491502E+00  0.88000000000E+00 0.  1.
        -11    1    4    4    0    0 -0.68810788111E-02  0.29375465032E-01  0.99408219095E-01  0.10388706530E+00  0.51100000000E-03 0. -1.
         11    1    4    4    0    0  0.29476111053E-03 -0.15937150407E-01  0.33087501773E-01  0.36730417120E-01  0.51100000000E-03 0.  1.
</event>
<event>
 8    1  0.2943605E+004  0.1043930E+01  0.7957747E-01            NaN
         13   -1    0    0    0    0  0.00000000000E+00  0.00000000000E+00  0.74505805969E-08  0.10566000000E+00  0.10566000000E+00 0.  1.
     999900   -1    0    0    0    0 -0.00000000000E+00 -0.00000000000E+00 -0.74505805969E-08  0.93827000000E+00  0.93827000000E+00 0.  1.
     999902    2    1    2    0    0  0.11290897553E-01  0.20329097316E-02 -0.60264592923E-02  0.10309710147E+01  0.10308895662E+01 0.  0.
     999903    2    3    3    0    0  0.82222588442E-01 -0.71706004586E-01  0.77807361270E-01  0.14108515584E+00  0.44144428707E-01 0.  0.
         14    1    1    2    0    0 -0.11290897553E-01 -0.20329097316E-02  0.60264592923E-02  0.12958985344E-01  0.00000000000E+00 0. -1.
     999901    1    3    3    0    0 -0.70931690889E-01  0.73738914318E-01 -0.83833820562E-01  0.88988585882E+00  0.88000000000E+00 0.  1.
        -11    1    4    4    0    0  0.23696873767E-01 -0.47851150401E-01  0.26156603283E-01  0.59461781317E-01  0.51100000000E-03 0. -1.
         11    1    4    4    0    0  0.58525714675E-01 -0.23854854185E-01  0.51650757987E-01  0.81623374520E-01  0.51100000000E-03 0.  1.
</event>
<event>
 8    1  0.2943605E+004  0.1043930E+01  0.7957747E-01            NaN
         13   -1    0    0    0    0  0.00000000000E+00  0.00000000000E+00  0.74505805969E-08  0.10566000000E+00  0.10566000000E+00 0.  1.
     999900   -1    0    0    0    0 -0.00000000000E+00 -0.00000000000E+00 -0.74505805969E-08  0.93827000000E+00  0.93827000000E+00 0. -1.
     999902    2    1    2    0    0 -0.97580552227E-02 -0.80997926573E-02  0.51790436950E-02  0.10302315046E+01  0.10301404294E+01 0.  0.
     999903    2    3    3    0    0  0.90050586416E-01 -0.16151513632E-01  0.95758259167E-01  0.13993313358E+00  0.45184711661E-01 0.  0.
         14    1    1    2    0    0  0.97580552227E-02  0.80997926573E-02 -0.51790436950E-02  0.13698495407E-01  0.00000000000E+00 0. -1.
     999901    1    3    3    0    0 -0.99808641638E-01  0.80517209752E-02 -0.90579215472E-01  0.89029837101E+00  0.88000000000E+00 0. -1.
        -11    1    4    4    0    0  0.83506874635E-01 -0.25914776536E-02  0.92258539352E-01  0.12446691557E+00  0.51100000000E-03 0. -1.
         11    1    4    4    0    0  0.65437117806E-02 -0.13560035979E-01  0.34997198150E-02  0.15466218006E-01  0.51100000000E-03 0.  1.
</event>
<event>
 8    1  0.2943605E+004  0.1043930E+01  0.7957747E-01            NaN
         13   -1    0    0    0    0  0.00000000000E+00  0.00000000000E+00  0.74505805969E-08  0.10566000000E+00  0.10566000000E+00 0. -1.
     999900   -1    0    0    0    0 -0.00000000000E+00 -0.00000000000E+00 -0.74505805969E-08  0.93827000000E+00  0.93827000000E+00 0.  1.
     999902    2    1    2    0    0 -0.68248041360E-03  0.11579584820E-01 -0.76954503813E-02  0.10300097801E+01  0.10299157124E+01 0.  0.
     999903    2    3    3    0    0  0.87638299368E-01 -0.26159675053E-01  0.94422804588E-01  0.13891329274E+00  0.44904752070E-01 0.  0.
         14    1    1    2    0    0  0.68248041360E-03 -0.11579584820E-01  0.76954503813E-02  0.13920219850E-01  0.00000000000E+00 0. -1.
     999901    1    3    3    0    0 -0.88320779782E-01  0.37739259872E-01 -0.10211825497E+00  0.89109648741E+00  0.88000000000E+00 0.  1.
        -11    1    4    4    0    0  0.51330509512E-01 -0.15996350018E-01  0.23685194765E-01  0.58753331759E-01  0.51100000000E-03 0. -1.
         11    1    4    4    0    0  0.36307789856E-01 -0.10163325034E-01  0.70737609823E-01  0.80159960981E-01  0.51100000000E-03 0.  1.
</event>
<event>
 8    1  0.2943605E+004  0.1043930E+01  0.7957747E-01            NaN
         13   -1    0    0    0    0  0.00000000000E+00  0.00000000000E+00  0.74505805969E-08  0.10566000000E+00  0.10566000000E+00 0. -1.
     999900   -1    0    0    0    0 -0.00000000000E+00 -0.00000000000E+00 -0.74505805969E-08  0.93827000000E+00  0.93827000000E+00 0. -1.
     999902    2    1    2    0    0 -0.62034132139E-02  0.12677157191E-01 -0.52527454145E-02  0.10288706513E+01  0.10287604352E+01 0.  0.
     999903    2    3    3    0    0 -0.28367075603E-01  0.12901312804E+00  0.15357732520E-01  0.14069832686E+00  0.45946502003E-01 0.  0.
         14    1    1    2    0    0  0.62034132139E-02 -0.12677157191E-01  0.52527454145E-02  0.15059348736E-01  0.00000000000E+00 0. -1.
     999901    1    3    3    0    0  0.22163662389E-01 -0.11633597085E+00 -0.20610477934E-01  0.88817232441E+00  0.88000000000E+00 0. -1.
        -11    1    4    4    0    0 -0.14938686463E-01  0.24209886768E-01  0.20251597765E-01  0.34923792801E-01  0.51100000000E-03 0. -1.
         11    1    4    4    0    0 -0.13428389140E-01  0.10480324127E+00 -0.48938652452E-02  0.10577453405E+00  0.51100000000E-03 0.  1.
</event>
<event>
 8    1  0.2943605E+004  0.1043930E+01  0.7957747E-01            NaN
         13   -1    0    0    0    0  0.00000000000E+00  0.00000000000E+00  0.74505805969E-08  0.10566000000E+00  0.10566000000E+00 0. -1.
     999900   -1    0    0    0    0 -0.00000000000E+00 -0.00000000000E+00 -0.74505805969E-08  0.93827000000E+00  0.93827000000E+00 0.  1.
     999902    2    1    2    0    0  0.42356984508E-02 -0.19150413923E-01  0.55675880702E-02  0.10235418286E+01  0.10233387501E+01 0.  0.
     999903    2    3    3    0    0 -0.68570601845E-02  0.76190395971E-01 -0.98379253353E-01  0.13224060841E+00  0.44239182974E-01 0.  0.
         14    1    1    2    0    0 -0.42356984508E-02  0.19150413923E-01 -0.55675880702E-02  0.20388171367E-01  0.00000000000E+00 0. -1.
     999901    1    3    3    0    0  0.11092758635E-01 -0.95340809894E-01  0.10394684142E+00  0.89130122022E+00  0.88000000000E+00 0. -1.
        -11    1    4    4    0    0  0.16171596268E-01  0.44281932757E-01 -0.66912477686E-01  0.81853227704E-01  0.51100000000E-03 0. -1.
         11    1    4    4    0    0 -0.23028656452E-01  0.31908463215E-01 -0.31466775667E-01  0.50387380708E-01  0.51100000000E-03 0.  1.
</event>
<event>
 8    1  0.2943605E+004  0.1043930E+01  0.7957747E-01            NaN
         13   -1    0    0    0    0  0.00000000000E+00  0.00000000000E+00  0.74505805969E-08  0.10566000000E+00  0.10566000000E+00 0. -1.
     999900   -1    0    0    0    0 -0.00000000000E+00 -0.00000000000E+00 -0.74505805969E-08  0.93827000000E+00  0.93827000000E+00 0.  1.
     999902    2    1    2    0    0  0.11348608576E-01 -0.34609282081E-02  0.70496423218E-02  0.10301290436E+01  0.10300365916E+01 0.  0.
     999903    2    3    3    0    0 -0.11199948565E+00 -0.30540961193E-01 -0.60012469132E-01  0.13858801407E+00  0.46135735591E-01 0.  0.
         14    1    1    2    0    0 -0.11348608576E-01  0.34609282081E-02 -0.70496423218E-02  0.13800956400E-01  0.00000000000E+00 0.  1.
     999901    1    3    3    0    0  0.12334809422E+00  0.27080032985E-01  0.67062111454E-01  0.89154102953E+00  0.88000000000E+00 0. -1.
        -11    1    4    4    0    0 -0.34869306476E-02  0.73038279941E-02 -0.10958878403E-01  0.13633148043E-01  0.51100000000E-03 0.  1.
         11    1    4    4    0    0 -0.10851255500E+00 -0.37844789187E-01 -0.49053590729E-01  0.12495486603E+00  0.51100000000E-03 0. -1.
</event>
<event>
 8    1  0.2943605E+004  0.1043930E+01  0.7957747E-01            NaN
         13   -1    0    0    0    0  0.00000000000E+00  0.00000000000E+00  0.74505805969E-08  0.10566000000E+00  0.10566000000E+00 0.  1.
     999900   -1    0    0    0    0 -0.00000000000E+00 -0.00000000000E+00 -0.74505805969E-08  0.93827000000E+00  0.93827000000E+00 0. -1.
     999902    2    1    2    0    0 -0.13916374972E-01 -0.36824571274E-02 -0.18720883990E-02  0.10294134337E+01  0.10293110738E+01 0.  0.
     999903    2    3    3    0    0 -0.80547065976E-01 -0.10193522214E+00  0.30821473285E-01  0.14084035070E+00  0.44804261174E-01 0.  0.
         14    1    1    2    0    0  0.13916374972E-01  0.36824571274E-02  0.18720883990E-02  0.14516566323E-01  0.00000000000E+00 0. -1.
     999901    1    3    3    0    0  0.66630691004E-01  0.98252765014E-01 -0.32693561684E-01  0.88857308298E+00  0.88000000000E+00 0.  1.
        -11    1    4    4    0    0 -0.35238260291E-01 -0.67388178156E-01 -0.25187672640E-04  0.76047112365E-01  0.51100000000E-03 0.  1.
         11    1    4    4    0    0 -0.45308805685E-01 -0.34547043985E-01  0.30846660957E-01  0.64793238335E-01  0.51100000000E-03 0. -1.
</event>
<event>
 8    1  0.2943605E+004  0.1043930E+01  0.7957747E-01            NaN
         13   -1    0    0    0    0  0.00000000000E+00  0.00000000000E+00  0.74505805969E-08  0.10566000000E+00  0.10566000000E+00 0. -1.
     999900   -1    0    0    0    0 -0.00000000000E+00 -0.00000000000E+00 -0.74505805969E-08  0.93827000000E+00  0.93827000000E+00 0.  1.
     999902    2    1    2    0    0 -0.22719136348E-02  0.11240821860E-01  0.79432318932E-02  0.10299796380E+01  0.10298851596E+01 0.  0.
     999903    2    3    3    0    0 -0.49284620099E-01  0.55330381995E-01  0.11053316150E+00  0.14167857553E+00  0.48629353518E-01 0.  0.
         14    1    1    2    0    0  0.22719136348E-02 -0.11240821860E-01 -0.79432318932E-02  0.13950362022E-01  0.00000000000E+00 0. -1.
     999901    1    3    3    0    0  0.47012706464E-01 -0.44089560135E-01 -0.10258992961E+00  0.88830106244E+00  0.88000000000E+00 0.  1.
        -11    1    4    4    0    0 -0.45510611957E-01  0.43148350909E-01  0.51121731129E-01  0.80911609189E-01  0.51100000000E-03 0.  1.
         11    1    4    4    0    0 -0.37740081419E-02  0.12182031086E-01  0.59411430372E-01  0.60766966345E-01  0.51100000000E-03 0. -1.
</event>
<event>
 8    1  0.2943605E+004  0.1043930E+01  0.7957747E-01            NaN
         13   -1    0    0    0    0  0.00000000000E+00  0.00000000000E+00  0.74505805969E-08  0.10566000000E+00  0.10566000000E+00 0. -1.
     999900   -1    0    0    0    0 -0.00000000000E+00 -0.00000000000E+00 -0.74505805969E-08  0.93827000000E+00  0.93827000000E+00 0.  1.
     999902    2    1    2    0    0  0.13511742358E-02 -0.12267324050E-01  0.12306852998E-01  0.10265009569E+01  0.10263529817E+01 0.  0.
     999903    2    3    3    0    0  0.12031504960E+00 -0.44031305035E-01  0.24491130343E-01  0.13784477442E+00  0.44574649565E-01 0.  0.
         14    1    1    2    0    0 -0.13511742358E-02  0.12267324050E-01 -0.12306852998E-01  0.17429043057E-01  0.00000000000E+00 0. -1.
     999901    1    3    3    0    0 -0.11896387537E+00  0.31763980985E-01 -0.12184277345E-01  0.88865618253E+00  0.88000000000E+00 0. -1.
        -11    1    4    4    0    0  0.82206495080E-01 -0.40285866517E-01  0.35196277190E-01  0.98081078315E-01  0.51100000000E-03 0.  1.
         11    1    4    4    0    0  0.38108554523E-01 -0.37454385183E-02 -0.10705146846E-01  0.39763696100E-01  0.51100000000E-03 0. -1.
</event>
<event>
 8    1  0.2943605E+004  0.1043930E+01  0.7957747E-01            NaN
         13   -1    0    0    0    0  0.00000000000E+00  0.00000000000E+00  0.74505805969E-08  0.10566000000E+00  0.10566000000E+00 0. -1.
     999900   -1    0    0    0    0 -0.00000000000E+00 -0.00000000000E+00 -0.74505805969E-08  0.93827000000E+00  0.93827000000E+00 0. -1.
     999902    2    1    2    0    0 -0.11388349118E-01  0.25080064285E-02 -0.61827264971E-02  0.10307311099E+01  0.10306465982E+01 0.  0.
     999903    2    3    3    0    0 -0.13324499307E+00 -0.53542716951E-02 -0.20409940159E-01  0.14218551702E+00  0.44913908639E-01 0.  0.
         14    1    1    2    0    0  0.11388349118E-01 -0.25080064285E-02  0.61827264971E-02  0.13198890060E-01  0.00000000000E+00 0. -1.
     999901    1    3    3    0    0  0.12185664395E+00  0.78622781237E-02  0.14227213662E-01  0.88854559292E+00  0.88000000000E+00 0. -1.
        -11    1    4    4    0    0 -0.68587109867E-01 -0.92608005541E-02 -0.32213913329E-01  0.76341020426E-01  0.51100000000E-03 0.  1.
         11    1    4    4    0    0 -0.64657883202E-01  0.39065288590E-02  0.11803973170E-01  0.65844496592E-01  0.51100000000E-03 0. -1.
</event>
<event>
 8    1  0.2943605E+004  0.1043930E+01  0.7957747E-01            NaN
         13   -1    0    0    0    0  0.00000000000E+00  0.00000000000E+00  0.74505805969E-08  0.10566000000E+00  0.10566000000E+00 0.  1.
     999900   -1    0    0    0    0 -0.00000000000E+00 -0.00000000000E+00 -0.74505805969E-08  0.93827000000E+00  0.93827000000E+00 0. -1.
     999902    2    1    2    0    0  0.10046308399E-01  0.69877212428E-02  0.67737921397E-02  0.10299428337E+01  0.10298478528E+01 0.  0.
     999903    2    3    3    0    0  0.12672140379E+00 -0.58801426101E-02 -0.41409755721E-01  0.14084198787E+00  0.45042284833E-01 0.  0.
         14    1    1    2    0    0 -0.10046308399E-01 -0.69877212428E-02 -0.67737921397E-02  0.13987166281E-01  0.00000000000E+00 0. -1.
     999901    1    3    3    0    0 -0.11667509539E+00  0.12867863853E-01  0.48183547861E-01  0.88910084585E+00  0.88000000000E+00 0.  1.
        -11    1    4    4    0    0  0.44148414442E-01  0.18970696710E-01 -0.19568635203E-01  0.51886052423E-01  0.51100000000E-03 0. -1.
         11    1    4    4    0    0  0.82572989348E-01 -0.24850839320E-01 -0.21841120518E-01  0.88955935447E-01  0.51100000000E-03 0.  1.
</event>
<event>
 8    1  0.2943605E+004  0.1043930E+01  0.7957747E-01            NaN
         13   -1    0    0    0    0  0.00000000000E+00  0.00000000000E+00  0.74505805969E-08  0.10566000000E+00  0.10566000000E+00 0. -1.
     999900   -1    0    0    0    0 -0.00000000000E+00 -0.00000000000E+00 -0.74505805969E-08  0.93827000000E+00  0.93827000000E+00 0. -1.
     999902    2    1    2    0    0 -0.42657106898E-03  0.70225048142E-02  0.10728053300E-01  0.10311007886E+01  0.10310209734E+01 0.  0.
     999903    2    3    3    0    0 -0.79284491568E-01 -0.84823971661E-01 -0.63471554667E-01  0.13971987752E+00  0.44853864400E-01 0.  0.
         14    1    1    2    0    0  0.42657106898E-03 -0.70225048142E-02 -0.10728053300E-01  0.12829211369E-01  0.00000000000E+00 0.  1.
     999901    1    3    3    0    0  0.78857920499E-01  0.91846476475E-01  0.74199607967E-01  0.89138091111E+00  0.88000000000E+00 0.  1.
        -11    1    4    4    0    0 -0.76889713571E-01 -0.58104165497E-01 -0.57519691799E-01  0.11223590409E+00  0.51100000000E-03 0. -1.
         11    1    4    4    0    0 -0.23947779973E-02 -0.26719806164E-01 -0.59518628684E-02  0.27483973434E-01  0.51100000000E-03 0.  1.
</event>
<event>
 8    1  0.2943605E+004  0.1043930E+01  0.7957747E-01            NaN
         13   -1    0    0    0    0  0.00000000000E+00  0.00000000000E+00  0.74505805969E-08  0.10566000000E+00  0.10566000000E+00 0. -1.
     999900   -1    0    0    0    0 -0.00000000000E+00 -0.00000000000E+00 -0.74505805969E-08  0.93827000000E+00  0.93827000000E+00 0.  1.
     999902    2    1    2    0    0 -0.92737534501E-02 -0.39600602823E-05 -0.10648158920E-01  0.10298095961E+01  0.10297127844E+01 0.  0.
     999903    2    3    3    0    0 -0.10775883208E+00  0.47302241375E-01 -0.64477777189E-01  0.14142070870E+00  0.44642638447E-01 0.  0.
         14    1    1    2    0    0  0.92737534501E-02  0.39600602823E-05  0.10648158920E-01  0.14120403929E-01  0.00000000000E+00 0. -1.
     999901    1    3    3    0    0  0.98485078626E-01 -0.47306201436E-01  0.53829618269E-01  0.88838888737E+00  0.88000000000E+00 0. -1.
        -11    1    4    4    0    0 -0.35296069076E-01  0.38601717373E-01 -0.20317144528E-01  0.56115528681E-01  0.51100000000E-03 0.  1.
         11    1    4    4    0    0 -0.72462763000E-01  0.87005240028E-02 -0.44160632661E-01  0.85305180016E-01  0.51100000000E-03 0. -1.
</event>
<event>
 8    1  0.2943605E+004  0.1043930E+01  0.7957747E-01            NaN
         13   -1    0    0    0    0  0.00000000000E+00  0.00000000000E+00  0.74505805969E-08  0.10566000000E+00  0.10566000000E+00 0. -1.
     999900   -1    0    0    0    0 -0.00000000000E+00 -0.00000000000E+00 -0.74505805969E-08  0.93827000000E+00  0.93827000000E+00 0.  1.
     999902    2    1    2    0    0  0.18481837313E-02 -0.46140263518E-02  0.11662699684E-01  0.10312523194E+01  0.10311743900E+01 0.  0.
     999903    2    3    3    0    0  0.17098811122E-01 -0.70868167016E-01 -0.11013867908E+00  0.14026535613E+00  0.47214140511E-01 0.  0.
         14    1    1    2    0    0 -0.18481837313E-02  0.46140263518E-02 -0.11662699684E-01  0.12677680631E-01  0.00000000000E+00 0.  1.
     999901    1    3    3    0    0 -0.15250627391E-01  0.66254140664E-01  0.12180137876E+00  0.89098696324E+00  0.88000000000E+00 0. -1.
        -11    1    4    4    0    0  0.24380580451E-01 -0.28738644174E-01 -0.78486226858E-01  0.87067050596E-01  0.51100000000E-03 0. -1.
         11    1    4    4    0    0 -0.72817693283E-02 -0.42129522842E-01 -0.31652452217E-01  0.53198305535E-01  0.51100000000E-03 0.  1.
</event>
<event>
 8    1  0.2943605E+004  0.1043930E+01  0.7957747E-01            NaN
         13   -1    0    0    0    0  0.00000000000E+00  0.00000000000E+00  0.74505805969E-08  0.10566000000E+00  0.10566000000E+00 0. -1.
     999900   -1    0    0    0    0 -0.00000000000E+00 -0.00000000000E+00 -0.74505805969E-08  0.93827000000E+00  0.93827000000E+00 0.  1.
     999902    2    1    2    0    0 -0.83152002855E-03 -0.64256782397E-02  0.13836998672E-01  0.10286511486E+01  0.10285376718E+01 0.  0.
     999903    2    3    3    0    0  0.72930827248E-01  0.25447650453E-02  0.10873014953E+00  0.14043604924E+00  0.50741079188E-01 0.  0.
         14    1    1    2    0    0  0.83152002855E-03  0.64256782397E-02 -0.13836998672E-01  0.15278851353E-01  0.00000000000E+00 0.  1.
     999901    1    3    3    0    0 -0.73762347277E-01 -0.89704432851E-02 -0.94893150862E-01  0.88821509940E+00  0.88000000000E+00 0.  1.
        -11    1    4    4    0    0  0.27105895920E-01  0.82634988723E-03  0.84131017621E-01  0.88395145199E-01  0.51100000000E-03 0.  1.
         11    1    4    4    0    0  0.45824931328E-01  0.17184151581E-02  0.24599131913E-01  0.52040904045E-01  0.51100000000E-03 0. -1.
</event>
<event>
 8    1  0.2943605E+004  0.1043930E+01  0.7957747E-01            NaN
         13   -1    0    0    0    0  0.00000000000E+00  0.00000000000E+00  0.74505805969E-08  0.10566000000E+00  0.10566000000E+00 0.  1.
     999900   -1    0    0    0    0 -0.00000000000E+00 -0.00000000000E+00 -0.74505805969E-08  0.93827000000E+00  0.93827000000E+00 0.  1.
     999902    2    1    2    0    0  0.12965606011E-01 -0.34193496494E-02  0.22780913401E-02  0.10303289489E+01  0.10302391734E+01 0.  0.
     999903    2    3    3    0    0 -0.53784968408E-01  0.95693395109E-01 -0.72060612609E-01  0.13914702679E+00  0.46033840618E-01 0.  0.
         14    1    1    2    0    0 -0.12965606011E-01  0.34193496494E-02 -0.22780913401E-02  0.13601051114E-01  0.00000000000E+00 0. -1.
     999901    1    3    3    0    0  0.66750574418E-01 -0.99112744758E-01  0.74338703949E-01  0.89118192209E+00  0.88000000000E+00 0. -1.
        -11    1    4    4    0    0 -0.46647448574E-01  0.73151165163E-01 -0.75792732252E-01  0.11520363191E+00  0.51100000000E-03 0. -1.
         11    1    4    4    0    0 -0.71375198339E-02  0.22542229946E-01  0.37321196431E-02  0.23943394880E-01  0.51100000000E-03 0.  1.
</event>
<event>
 8    1  0.2943605E+004  0.1043930E+01  0.7957747E-01            NaN
         13   -1    0    0    0    0  0.00000000000E+00  0.00000000000E+00  0.74505805969E-08  0.10566000000E+00  0.10566000000E+00 0.  1.
     999900   -1    0    0    0    0 -0.00000000000E+00 -0.00000000000E+00 -0.74505805969E-08  0.93827000000E+00  0.93827000000E+00 0. -1.
     999902    2    1    2    0    0 -0.60505013596E-02  0.64378958628E-02  0.12052883878E-01  0.10289858681E+01  0.10288773443E+01 0.  0.
     999903    2    3    3    0    0  0.64240960560E-02 -0.93320994837E-01 -0.90022857712E-01  0.13739913146E+00  0.44992547460E-01 0.  0.
         14    1    1    2    0    0  0.60505013596E-02 -0.64378958628E-02 -0.12052883878E-01  0.14944131946E-01  0.00000000000E+00 0.  1.
     999901    1    3    3    0    0 -0.12474597416E-01  0.99758890700E-01  0.10207574159E+00  0.89158673660E+00  0.88000000000E+00 0. -1.
        -11    1    4    4    0    0  0.24020048850E-01 -0.53478888389E-01 -0.39503411400E-01  0.70694659510E-01  0.51100000000E-03 0.  1.
         11    1    4    4    0    0 -0.17595952794E-01 -0.39842106448E-01 -0.50519446312E-01  0.66704471947E-01  0.51100000000E-03 0. -1.
</event>
<event>
 8    1  0.2943605E+004  0.1043930E+01  0.7957747E-01            NaN
         13   -1    0    0    0    0  0.00000000000E+00  0.00000000000E+00  0.74505805969E-08  0.10566000000E+00  0.10566000000E+00 0. -1.
     999900   -1    0    0    0    0 -0.00000000000E+00 -0.00000000000E+00 -0.74505805969E-08  0.93827000000E+00  0.93827000000E+00 0.  1.
     999902    2    1    2    0    0  0.43110160965E-02  0.16556754840E-02  0.13129610756E-01  0.10300119254E+01  0.10299178869E+01 0.  0.
     999903    2    3    3    0    0 -0.71452762312E-01  0.10680349011E+00  0.34085362614E-01  0.14027299935E+00  0.44746169240E-01 0.  0.
         14    1    1    2    0    0 -0.43110160965E-02 -0.16556754840E-02 -0.13129610756E-01  0.13918074569E-01  0.00000000000E+00 0.  1.
     999901    1    3    3    0    0  0.75763778408E-01 -0.10514781463E+00 -0.20955751858E-01  0.88973892608E+00  0.88000000000E+00 0.  1.
        -11    1    4    4    0    0 -0.43057455365E-01  0.96561157374E-01  0.29241152786E-01  0.10969643437E+00  0.51100000000E-03 0.  1.
         11    1    4    4    0    0 -0.28395306947E-01  0.10242332736E-01  0.48442098284E-02  0.30576564986E-01  0.51100000000E-03 0. -1.
</event>
<event>
 8    1  0.2943605E+004  0.1043930E+01  0.7957747E-01            NaN
         13   -1    0    0    0    0  0.00000000000E+00  0.00000000000E+00  0.74505805969E-08  0.10566000000E+00  0.10566000000E+00 0. -1.
     999900   -1    0    0    0    0 -0.00000000000E+00 -0.00000000000E+00 -0.74505805969E-08  0.93827000000E+00  0.93827000000E+00 0. -1.
     999902    2    1    2    0    0 -0.61545052175E-02  0.12009506302E-01  0.19208991347E-02  0.10302992983E+01  0.10302091283E+01 0.  0.
     999903    2    3    3    0    0 -0.46328227366E-01 -0.10180255857E+00  0.70280907218E-01  0.13943443491E+00  0.44637317779E-01 0.  0.
         14    1    1    2    0    0  0.61545052175E-02 -0.12009506302E-01 -0.19208991347E-02  0.13630701727E-01  0.00000000000E+00 0. -1.
     999901    1    3    3    0    0  0.40173722148E-01  0.11381206487E+00 -0.68360008084E-01  0.89086486336E+00  0.88000000000E+00 0. -1.
        -11    1    4    4    0    0 -0.28280676002E-01 -0.50771301124E-01  0.61462715334E-01  0.84589882079E-01  0.51100000000E-03 0. -1.
         11    1    4    4    0    0 -0.18047551364E-01 -0.51031257444E-01  0.88181918844E-02  0.54844552835E-01  0.51100000000E-03 0.  1.
</event>
<event>
 8    1  0.2943605E+004  0.1043930E+01  0.7957747E-01            NaN
         13   -1    0    0    0    0  0.00000000000E+00  0.00000000000E+00  0.74505805969E-08  0.10566000000E+00  0.10566000000E+00 0. -1.
     999900   -1    0    0    0    0 -0.00000000000E+00 -0.00000000000E+00 -0.74505805969E-08  0.93827000000E+00  0.93827000000E+00 0. -1.
     999902    2    1    2    0    0 -0.29560274509E-02  0.13364763592E-01  0.28395306777E-02  0.10299508034E+01  0.10298559314E+01 0.  0.
     999903    2    3    3    0    0  0.38602445702E-01  0.10310675639E+00 -0.76225392941E-01  0.14088837917E+00  0.43795808352E-01 0.  0.
         14    1    1    2    0    0  0.29560274509E-02 -0.13364763592E-01 -0.28395306777E-02  0.13979196638E-01  0.00000000000E+00 0. -1.
     999901    1    3    3    0    0 -0.41558473153E-01 -0.89741992797E-01  0.79064923618E-01  0.88906242419E+00  0.88000000000E+00 0.  1.
        -11    1    4    4    0    0  0.42628509481E-01  0.59854014657E-01 -0.36627121910E-01  0.82106638413E-01  0.51100000000E-03 0. -1.
         11    1    4    4    0    0 -0.40260637785E-02  0.43252741733E-01 -0.39598271030E-01  0.58781740758E-01  0.51100000000E-03 0.  1.
</event>
<event>
 8    1  0.2943605E+004  0.1043930E+01  0.7957747E-01            NaN
         13   -1    0    0    0    0  0.00000000000E+00  0.00000000000E+00  0.74505805969E-08  0.10566000000E+00  0.10566000000E+00 0.  1.
     999900   -1    0    0    0    0 -0.00000000000E+00 -0.00000000000E+00 -0.74505805969E-08  0.93827000000E+00  0.93827000000E+00 0.  1.
     999902    2    1    2    0    0  0.68400425497E-02  0.35787493943E-02  0.12605673690E-01  0.10291483682E+01  0.10290422086E+01 0.  0.
     999903    2    3    3    0    0 -0.15431952220E-01  0.12449299652E+00 -0.39478610969E-01  0.13907586014E+00  0.45242489072E-01 0.  0.
         14    1    1    2    0    0 -0.68400425497E-02 -0.35787493943E-02 -0.12605673690E-01  0.14781631794E-01  0.00000000000E+00 0. -1.
     999901    1    3    3    0    0  0.22271994770E-01 -0.12091424713E+00  0.52084284659E-01  0.89007250807E+00  0.88000000000E+00 0. -1.
        -11    1    4    4    0    0  0.23498630735E-02  0.70271867800E-01 -0.42095944952E-01  0.81951125453E-01  0.51100000000E-03 0.  1.
         11    1    4    4    0    0 -0.17781815293E-01  0.54221128719E-01  0.26173339827E-02  0.57124734686E-01  0.51100000000E-03 0. -1.
</event>
<event>
 8    1  0.2943605E+004  0.1043930E+01  0.7957747E-01            NaN
         13   -1    0    0    0    0  0.00000000000E+00  0.00000000000E+00  0.74505805969E-08  0.10566000000E+00  0.10566000000E+00 0. -1.
     999900   -1    0    0    0    0 -0.00000000000E+00 -0.00000000000E+00 -0.74505805969E-08  0.93827000000E+00  0.93827000000E+00 0. -1.
     999902    2    1    2    0    0  0.83642904796E-03 -0.44978037758E-02  0.13591051484E-01  0.10295896188E+01  0.10294897458E+01 0.  0.
     999903    2    3    3    0    0  0.43468970438E-01 -0.11760742978E+00  0.44871412950E-01  0.14077592511E+00  0.45643821720E-01 0.  0.
         14    1    1    2    0    0 -0.83642904796E-03  0.44978037758E-02 -0.13591051484E-01  0.14340381194E-01  0.00000000000E+00 0.  1.
     999901    1    3    3    0    0 -0.42632541390E-01  0.11310962600E+00 -0.31280361467E-01  0.88881369369E+00  0.88000000000E+00 0.  1.
        -11    1    4    4    0    0  0.36519203012E-03 -0.61470727986E-01  0.11562680896E-01  0.62551902248E-01  0.51100000000E-03 0. -1.
         11    1    4    4    0    0  0.43103778408E-01 -0.56136701795E-01  0.33308732054E-01  0.78224022867E-01  0.51100000000E-03 0.  1.
</event>
<event>
 8    1  0.2943605E+004  0.1043930E+01  0.7957747E-01            NaN
         13   -1    0    0    0    0  0.00000000000E+00  0.00000000000E+00  0.74505805969E-08  0.10566000000E+00  0.10566000000E+00 0. -1.
     999900   -1    0    0    0    0 -0.00000000000E+00 -0.00000000000E+00 -0.74505805969E-08  0.93827000000E+00  0.93827000000E+00 0. -1.
     999902    2    1    2    0    0  0.52682440210E-02 -0.10049605898E-01  0.85777041629E-02  0.10297058662E+01  0.10296076170E+01 0.  0.
     999903    2    3    3    0    0  0.11035325665E-01 -0.11448551546E+00  0.69518076821E-01  0.14141883631E+00  0.44020592888E-01 0.  0.
         14    1    1    2    0    0 -0.52682440210E-02  0.10049605898E-01 -0.85777041629E-02  0.14224133804E-01  0.00000000000E+00 0.  1.
     999901    1    3    3    0    0 -0.57670816436E-02  0.10443590956E+00 -0.60940372658E-01  0.88828702988E+00  0.88000000000E+00 0. -1.
        -11    1    4    4    0    0 -0.28131274540E-02 -0.10767105246E+00  0.60641141811E-01  0.12360654685E+00  0.51100000000E-03 0.  1.
         11    1    4    4    0    0  0.13848453119E-01 -0.68144629958E-02  0.88769350101E-02  0.17812289462E-01  0.51100000000E-03 0. -1.
</event>
<event>
 8    1  0.2943605E+004  0.1043930E+01  0.7957747E-01            NaN
         13   -1    0    0    0    0  0.00000000000E+00  0.00000000000E+00  0.74505805969E-08  0.10566000000E+00  0.10566000000E+00 0.  1.
     999900   -1    0    0    0    0 -0.00000000000E+00 -0.00000000000E+00 -0.74505805969E-08  0.93827000000E+00  0.93827000000E+00 0.  1.
     999902    2    1    2    0    0  0.19973322393E-02  0.34532282698E-02  0.12401103727E-01  0.10309030474E+01  0.10308207369E+01 0.  0.
     999903    2    3    3    0    0 -0.48285519567E-01 -0.24736561708E-01 -0.12030503323E+00  0.13908807314E+00  0.43918130496E-01 0.  0.
         14    1    1    2    0    0 -0.19973322393E-02 -0.34532282698E-02 -0.12401103727E-01  0.13026952645E-01  0.00000000000E+00 0. -1.
     999901    1    3    3    0    0  0.50282851806E-01  0.28189789978E-01  0.13270613695E+00  0.89181497421E+00  0.88000000000E+00 0. -1.
        -11    1    4    4    0    0 -0.36942114123E-01 -0.58593166691E-02 -0.10700544596E+00  0.11335553790E+00  0.51100000000E-03 0.  1.
         11    1    4    4    0    0 -0.11343405444E-01 -0.18877245039E-01 -0.13299587266E-01  0.25732535238E-01  0.51100000000E-03 0. -1.
</event>
<event>
 8    1  0.2943605E+004  0.1043930E+01  0.7957747E-01            NaN
         13   -1    0    0    0    0  0.00000000000E+00  0.00000000000E+00  0.74505805969E-08  0.10566000000E+00  0.10566000000E+00 0. -1.
     999900   -1    0    0    0    0 -0.00000000000E+00 -0.00000000000E+00 -0.74505805969E-08  0.93827000000E+00  0.93827000000E+00 0.  1.
     999902    2    1    2    0    0 -0.29406658792E-02  0.29073080014E-02 -0.13258601372E-01  0.10300414988E+01  0.10299478622E+01 0.  0.
     999903    2    3    3    0    0  0.37446570099E-01  0.12128623468E+00  0.36435934790E-01  0.13980880671E+00  0.45894757372E-01 0.  0.
         14    1    1    2    0    0  0.29406658792E-02 -0.29073080014E-02  0.13258601372E-01  0.13888501214E-01  0.00000000000E+00 0. -1.
     999901    1    3    3    0    0 -0.40387235979E-01 -0.11837892668E+00 -0.49694536162E-01  0.89023269207E+00  0.88000000000E+00 0.  1.
        -11    1    4    4    0    0  0.31559353051E-02  0.55868131502E-01  0.34860571447E-01  0.65929724766E-01  0.51100000000E-03 0. -1.
         11    1    4    4    0    0  0.34290634794E-01  0.65418103182E-01  0.15753633437E-02  0.73879081946E-01  0.51100000000E-03 0.  1.
</event>
<event>
 7    1  0.2943605E+004  0.1043930E+01  0.7957747E-01            NaN
         13   -1    0    0    0    0  0.00000000000E+00  0.00000000000E+00  0.74505805969E-08  0.10566000000E+00  0.10566000000E+00 0.  1.
     999900   -1    0    0    0    0 -0.00000000000E+00 -0.00000000000E+00 -0.74505805969E-08  0.93827000000E+00  0.93827000000E+00 0.  1.
     999903    2    1    2    0    0 -0.44030518124E-01  0.75776586935E-01  0.59834236821E-01  0.11529019143E+00  0.45065670874E-01 0.  0.
         14    1    1    2    0    0  0.35168631021E-03  0.24988969550E-01 -0.33015556586E-01  0.41407719801E-01  0.00000000000E+00 0. -1.
     999901    1    1    2    0    0  0.43678831814E-01 -0.10076555649E+00 -0.26818680235E-01  0.88723208876E+00  0.88000000000E+00 0.  1.
        -11    1    3    3    0    0 -0.24224127568E-01  0.33412095051E-01  0.54285589398E-01  0.68193568534E-01  0.51100000000E-03 0. -1.
         11    1    3    3    0    0 -0.19806390556E-01  0.42364491884E-01  0.55486474231E-02  0.47096622901E-01  0.51100000000E-03 0.  1.
</event>
<event>
 8    1  0.2943605E+004  0.1043930E+01  0.7957747E-01            NaN
         13   -1    0    0    0    0  0.00000000000E+00  0.00000000000E+00  0.74505805969E-08  0.10566000000E+00  0.10566000000E+00 0.  1.
     999900   -1    0    0    0    0 -0.00000000000E+00 -0.00000000000E+00 -0.74505805969E-08  0.93827000000E+00  0.93827000000E+00 0. -1.
     999902    2    1    2    0    0  0.30408550485E-02 -0.21626715783E-02  0.12520964633E-01  0.10308648363E+01  0.10307820391E+01 0.  0.
     999903    2    3    3    0    0 -0.15282102789E-01 -0.30869677378E-01  0.13047835339E+00  0.14234147219E+00  0.45277084200E-01 0.  0.
         14    1    1    2    0    0 -0.30408550485E-02  0.21626715783E-02 -0.12520964633E-01  0.13065163723E-01  0.00000000000E+00 0. -1.
     999901    1    3    3    0    0  0.18322957838E-01  0.28707005799E-01 -0.11795738876E+00  0.88852336409E+00  0.88000000000E+00 0. -1.
        -11    1    4    4    0    0 -0.19518990274E-01 -0.20371420866E-01  0.29847657567E-01  0.41074682624E-01  0.51100000000E-03 0. -1.
         11    1    4    4    0    0  0.42368874849E-02 -0.10498256512E-01  0.10063069583E+00  0.10126678957E+00  0.51100000000E-03 0.  1.
</event>
<event>
 8    1  0.2943605E+004  0.1043930E+01  0.7957747E-01            NaN
         13   -1    0    0    0    0  0.00000000000E+00  0.00000000000E+00  0.74505805969E-08  0.10566000000E+00  0.10566000000E+00 0. -1.
     999900   -1    0    0    0    0 -0.00000000000E+00 -0.00000000000E+00 -0.74505805969E-08  0.93827000000E+00  0.93827000000E+00 0.  1.
     999902    2    1    2    0    0 -0.13768215109E-02  0.12949657339E-01 -0.34005750684E-02  0.10304706845E+01  0.10303827825E+01 0.  0.
     999903    2    3    3    0    0 -0.13260555020E+00 -0.37400193528E-02 -0.64405127619E-02  0.14057812596E+00  0.46070702247E-01 0.  0.
         14    1    1    2    0    0  0.13768215109E-02 -0.12949657339E-01  0.34005750684E-02  0.13459315490E-01  0.00000000000E+00 0.  1.
     999901    1    3    3    0    0  0.13122872869E+00  0.16689676691E-01  0.30399376935E-02  0.88989255855E+00  0.88000000000E+00 0. -1.
        -11    1    4    4    0    0 -0.40190990089E-01 -0.22448977117E-01 -0.46228155242E-02  0.46269901689E-01  0.51100000000E-03 0. -1.
         11    1    4    4    0    0 -0.92414560111E-01  0.18708957764E-01 -0.18176972377E-02  0.94308224272E-01  0.51100000000E-03 0.  1.
</event>
<event>
 8    1  0.2943605E+004  0.1043930E+01  0.7957747E-01            NaN
         13   -1    0    0    0    0  0.00000000000E+00  0.00000000000E+00  0.74505805969E-08  0.10566000000E+00  0.10566000000E+00 0. -1.
     999900   -1    0    0    0    0 -0.00000000000E+00 -0.00000000000E+00 -0.74505805969E-08  0.93827000000E+00  0.93827000000E+00 0.  1.
     999902    2    1    2    0    0 -0.12534118416E-01  0.38378375486E-02  0.43999966636E-02  0.10301027410E+01  0.10300099339E+01 0.  0.
     999903    2    3    3    0    0 -0.43572256658E-02 -0.46308034551E-01  0.12453645291E+00  0.14048808384E+00  0.45432962898E-01 0.  0.
         14    1    1    2    0    0  0.12534118416E-01 -0.38378375486E-02 -0.43999966636E-02  0.13827259025E-01  0.00000000000E+00 0.  1.
     999901    1    3    3    0    0 -0.81768927499E-02  0.50145872099E-01 -0.12013645625E+00  0.88961465713E+00  0.88000000000E+00 0.  1.
        -11    1    4    4    0    0  0.18984753505E-01 -0.14706241323E-01  0.63579029243E-01  0.67965053373E-01  0.51100000000E-03 0.  1.
         11    1    4    4    0    0 -0.23341979171E-01 -0.31601793228E-01  0.60957423672E-01  0.72523030470E-01  0.51100000000E-03 0. -1.
</event>
<event>
 8    1  0.2943605E+004  0.1043930E+01  0.7957747E-01            NaN
         13   -1    0    0    0    0  0.00000000000E+00  0.00000000000E+00  0.74505805969E-08  0.10566000000E+00  0.10566000000E+00 0.  1.
     999900   -1    0    0    0    0 -0.00000000000E+00 -0.00000000000E+00 -0.74505805969E-08  0.93827000000E+00  0.93827000000E+00 0.  1.
     999902    2    1    2    0    0 -0.11554897782E-01  0.67518582746E-02 -0.88783114985E-03  0.10305176364E+01  0.10304303506E+01 0.  0.
     999903    2    3    3    0    0  0.30541301910E-02  0.10829674512E+00  0.77697802218E-01  0.14107933641E+00  0.46140199136E-01 0.  0.
         14    1    1    2    0    0  0.11554897782E-01 -0.67518582746E-02  0.88783114985E-03  0.13412363590E-01  0.00000000000E+00 0. -1.
     999901    1    3    3    0    0 -0.14609027973E-01 -0.10154488685E+00 -0.78585633368E-01  0.88943830000E+00  0.88000000000E+00 0.  1.
        -11    1    4    4    0    0  0.17148574860E-01  0.61271891960E-01  0.23192492422E-01  0.67723490679E-01  0.51100000000E-03 0.  1.
         11    1    4    4    0    0 -0.14094444669E-01  0.47024853160E-01  0.54505309796E-01  0.73355845726E-01  0.51100000000E-03 0. -1.
</event>
<event>
 8    1  0.2943605E+004  0.1043930E+01  0.7957747E-01            NaN
         13   -1    0    0    0    0  0.00000000000E+00  0.00000000000E+00  0.74505805969E-08  0.10566000000E+00  0.10566000000E+00 0.  1.
     999900   -1    0    0    0    0 -0.00000000000E+00 -0.00000000000E+00 -0.74505805969E-08  0.93827000000E+00  0.93827000000E+00 0. -1.
     999902    2    1    2    0    0 -0.72089971392E-02  0.12981601981E-01 -0.39913381439E-02  0.10285539664E+01  0.10284390304E+01 0.  0.
     999903    2    3    3    0    0  0.10143283829E+00 -0.68158990360E-01 -0.44715161116E-01  0.13723737061E+00  0.43593366560E-01 0.  0.
         14    1    1    2    0    0  0.72089971392E-02 -0.12981601981E-01  0.39913381439E-02  0.15376033622E-01  0.00000000000E+00 0.  1.
     999901    1    3    3    0    0 -0.10864183543E+00  0.81140592341E-01  0.40723822973E-01  0.89131659577E+00  0.88000000000E+00 0.  1.
        -11    1    4    4    0    0  0.69153023594E-01 -0.36154187137E-01 -0.73282542251E-02  0.78378762116E-01  0.51100000000E-03 0.  1.
         11    1    4    4    0    0  0.32279814697E-01 -0.32004803223E-01 -0.37386906891E-01  0.58858608496E-01  0.51100000000E-03 0. -1.
</event>
<event>
 8    1  0.2943605E+004  0.1043930E+01  0.7957747E-01            NaN
         13   -1    0    0    0    0  0.00000000000E+00  0.00000000000E+00  0.74505805969E-08  0.10566000000E+00  0.10566000000E+00 0.  1.
     999900   -1    0    0    0    0 -0.00000000000E+00 -0.00000000000E+00 -0.74505805969E-08  0.93827000000E+00  0.93827000000E+00 0. -1.
     999902    2    1    2    0    0  0.52461163838E-02  0.91949583865E-02  0.91649004209E-02  0.10299277003E+01  0.10298325123E+01 0.  0.
     999903    2    3    3    0    0  0.12490716284E+00 -0.38320094363E-01  0.25117259851E-01  0.14041607922E+00  0.44895095518E-01 0.  0.
         14    1    1    2    0    0 -0.52461163838E-02 -0.91949583865E-02 -0.91649004209E-02  0.14002299689E-01  0.00000000000E+00 0. -1.
     999901    1    3    3    0    0 -0.11966104646E+00  0.47515052749E-01 -0.15952359430E-01  0.88951162109E+00  0.88000000000E+00 0. -1.
        -11    1    4    4    0    0  0.35701864665E-01  0.90770678180E-02  0.26859749719E-02  0.36939029268E-01  0.51100000000E-03 0.  1.
         11    1    4    4    0    0  0.89205298176E-01 -0.47397162181E-01  0.22431284879E-01  0.10347704996E+00  0.51100000000E-03 0. -1.
</event>
<event>
 8    1  0.2943605E+004  0.1043930E+01  0.7957747E-01            NaN
         13   -1    0    0    0    0  0.00000000000E+00  0.00000000000E+00  0.74505805969E-08  0.10566000000E+00  0.10566000000E+00 0.  1.
     999900   -1    0    0    0    0 -0.00000000000E+00 -0.00000000000E+00 -0.74505805969E-08  0.93827000000E+00  0.93827000000E+00 0. -1.
     999902    2    1    2    0    0  0.11752640803E-01  0.23281287714E-02 -0.75565287074E-02  0.10297650476E+01  0.10296676199E+01 0.  0.
     999903    2    3    3    0    0 -0.10531384857E-01 -0.82081197967E-01 -0.10388385768E+00  0.14021433714E+00  0.44944091093E-01 0.  0.
         14    1    1    2    0    0 -0.11752640803E-01 -0.23281287714E-02  0.75565287074E-02  0.14164952366E-01  0.00000000000E+00 0.  1.
     999901    1    3    3    0    0  0.22284025661E-01  0.84409326739E-01  0.96327328977E-01  0.88955071050E+00  0.88000000000E+00 0. -1.
        -11    1    4    4    0    0 -0.11340617649E-01 -0.75417225069E-01 -0.63408781941E-01  0.99183174955E-01  0.51100000000E-03 0. -1.
         11    1    4    4    0    0  0.80923279151E-03 -0.66639728980E-02 -0.40475075743E-01  0.41031162181E-01  0.51100000000E-03 0.  1.
</event>
<event>
 8    1  0.2943605E+004  0.1043930E+01  0.7957747E-01            NaN
         13   -1    0    0    0    0  0.00000000000E+00  0.00000000000E+00  0.74505805969E-08  0.10566000000E+00  0.10566000000E+00 0.  1.
     999900   -1    0    0    0    0 -0.00000000000E+00 -0.00000000000E+00 -0.74505805969E-08  0.93827000000E+00  0.93827000000E+00 0. -1.
     999902    2    1    2    0    0  0.11256132718E-01  0.70261060749E-02 -0.41308714954E-02  0.10300328496E+01  0.10299390955E+01 0.  0.
     999903    2    3    3    0    0 -0.76118523903E-01 -0.53706611020E-01 -0.93215658701E-01  0.13915749755E+00  0.44690271311E-01 0.  0.
         14    1    1    2    0    0 -0.11256132718E-01 -0.70261060749E-02  0.41308714954E-02  0.13897150415E-01  0.00000000000E+00 0. -1.
     999901    1    3    3    0    0  0.87374656621E-01  0.60732717095E-01  0.89084787206E-01  0.89087535203E+00  0.88000000000E+00 0.  1.
        -11    1    4    4    0    0 -0.20968849693E-02 -0.11818710944E-01 -0.32519612149E-01  0.34667926824E-01  0.51100000000E-03 0. -1.
         11    1    4    4    0    0 -0.74021638934E-01 -0.41887900076E-01 -0.60696046552E-01  0.10448957073E+00  0.51100000000E-03 0.  1.
</event>
<event>
 8    1  0.2943605E+004  0.1043930E+01  0.7957747E-01            NaN
         13   -1    0    0    0    0  0.00000000000E+00  0.00000000000E+00  0.74505805969E-08  0.10566000000E+00  0.10566000000E+00 0. -1.
     999900   -1    0    0    0    0 -0.00000000000E+00 -0.00000000000E+00 -0.74505805969E-08  0.93827000000E+00  0.93827000000E+00 0. -1.
     999902    2    1    2    0    0  0.85223006981E-02 -0.14245281130E-01 -0.65940674096E-02  0.10260683268E+01  0.10259128481E+01 0.  0.
     999903    2    3    3    0    0 -0.27389335503E-01  0.11526179553E+00 -0.46545239595E-01  0.13496910413E+00  0.44885883442E-01 0.  0.
         14    1    1    2    0    0 -0.85223006981E-02  0.14245281130E-01  0.65940674096E-02  0.17861673177E-01  0.00000000000E+00 0. -1.
     999901    1    3    3    0    0  0.35911636201E-01 -0.12950707666E+00  0.39951172185E-01  0.89109922269E+00  0.88000000000E+00 0.  1.
        -11    1    4    4    0    0 -0.24901224235E-01  0.38337801999E-01 -0.34029213557E-01  0.56992161977E-01  0.51100000000E-03 0. -1.
         11    1    4    4    0    0 -0.24881112675E-02  0.76923993536E-01 -0.12516026038E-01  0.77976942156E-01  0.51100000000E-03 0.  1.
</event>
<event>
 8    1  0.2943605E+004  0.1043930E+01  0.7957747E-01            NaN
         13   -1    0    0    0    0  0.00000000000E+00  0.00000000000E+00  0.74505805969E-08  0.10566000000E+00  0.10566000000E+00 0. -1.
     999900   -1    0    0    0    0 -0.00000000000E+00 -0.00000000000E+00 -0.74505805969E-08  0.93827000000E+00  0.93827000000E+00 0.  1.
     999902    2    1    2    0    0  0.55204622150E-02  0.11956563871E-01  0.47752194410E-02  0.10299215153E+01  0.10298262426E+01 0.  0.
     999903    2    3    3    0    0  0.10883626686E+00 -0.76907461130E-01  0.27679247347E-02  0.13943007814E+00  0.40902258156E-01 0.  0.
         14    1    1    2    0    0 -0.55204622150E-02 -0.11956563871E-01 -0.47752194410E-02  0.14008484692E-01  0.00000000000E+00 0.  1.
     999901    1    3    3    0    0 -0.10331580465E+00  0.88864025001E-01  0.20072947063E-02  0.89049143716E+00  0.88000000000E+00 0.  1.
        -11    1    4    4    0    0  0.85128408337E-01 -0.36680732774E-01  0.26462733537E-02  0.92733952501E-01  0.51100000000E-03 0. -1.
         11    1    4    4    0    0  0.23707858525E-01 -0.40226728356E-01  0.12165138103E-03  0.46696125644E-01  0.51100000000E-03 0.  1.
</event>
<event>
 8    1  0.2943605E+004  0.1043930E+01  0.7957747E-01            NaN
         13   -1    0    0    0    0  0.00000000000E+00  0.00000000000E+00  0.74505805969E-08  0.10566000000E+00  0.10566000000E+00 0.  1.
     999900   -1    0    0    0    0 -0.00000000000E+00 -0.00000000000E+00 -0.74505805969E-08  0.93827000000E+00  0.93827000000E+00 0. -1.
     999902    2    1    2    0    0  0.13409142171E-01  0.29054821545E-03  0.26884333678E-02  0.10302509216E+01  0.10301601061E+01 0.  0.
     999903    2    3    3    0    0 -0.46258249524E-01  0.12311448720E+00  0.10021825789E-01  0.13968947157E+00  0.45996835429E-01 0.  0.
         14    1    1    2    0    0 -0.13409142171E-01 -0.29054821545E-03 -0.26884333678E-02  0.13679078405E-01  0.00000000000E+00 0. -1.
     999901    1    3    3    0    0  0.59667391695E-01 -0.12282393898E+00 -0.73333924217E-02  0.89056145002E+00  0.88000000000E+00 0.  1.
        -11    1    4    4    0    0 -0.17915835611E-01  0.60204349764E-01  0.27402418559E-01  0.68532434365E-01  0.51100000000E-03 0.  1.
         11    1    4    4    0    0 -0.28342413913E-01  0.62910137434E-01 -0.17380592769E-01  0.71157037209E-01  0.51100000000E-03 0. -1.
</event>
<event>
 8    1  0.2943605E+004  0.1043930E+01  0.7957747E-01            NaN
         13   -1    0    0    0    0  0.00000000000E+00  0.00000000000E+00  0.74505805969E-08  0.10566000000E+00  0.10566000000E+00 0. -1.
     999900   -1    0    0    0    0 -0.00000000000E+00 -0.00000000000E+00 -0.74505805969E-08  0.93827000000E+00  0.93827000000E+00 0.  1.
     999902    2    1    2    0    0 -0.36643609615E-02 -0.12745261499E-01  0.23034200870E-02  0.10304698746E+01  0.10303819619E+01 0.  0.
     999903    2    3    3    0    0  0.99396003665E-01 -0.75895016642E-01  0.46599081987E-01  0.14110412531E+00  0.45817907434E-01 0.  0.
         14    1    1    2    0    0  0.36643609615E-02  0.12745261499E-01 -0.23034200870E-02  0.13460125410E-01  0.00000000000E+00 0. -1.
     999901    1    3    3    0    0 -0.10306036463E+00  0.63149755142E-01 -0.44295661900E-01  0.88936574928E+00  0.88000000000E+00 0. -1.
        -11    1    4    4    0    0  0.24044135374E-01 -0.33639864831E-01 -0.30439698576E-02  0.41464295789E-01  0.51100000000E-03 0.  1.
         11    1    4    4    0    0  0.75351868291E-01 -0.42255151810E-01  0.49643051845E-01  0.99639829521E-01  0.51100000000E-03 0. -1.
</event>
<event>
 8    1  0.2943605E+004  0.1043930E+01  0.7957747E-01            NaN
         13   -1    0    0    0    0  0.00000000000E+00  0.00000000000E+00  0.74505805969E-08  0.10566000000E+00  0.10566000000E+00 0.  1.
     999900   -1    0    0    0    0 -0.00000000000E+00 -0.00000000000E+00 -0.74505805969E-08  0.93827000000E+00  0.93827000000E+00 0.  1.
     999902    2    1    2    0    0 -0.13416189821E-01  0.50144509061E-02  0.15918197822E-01  0.10225167357E+01  0.10222924957E+01 0.  0.
     999903    2    3    3    0    0 -0.32439056450E-01 -0.12053335844E+00 -0.84768327939E-02  0.13306789543E+00  0.45327973930E-01 0.  0.
         14    1    1    2    0    0  0.13416189821E-01 -0.50144509061E-02 -0.15918197822E-01  0.21413264326E-01  0.00000000000E+00 0. -1.
     999901    1    3    3    0    0  0.19022866629E-01  0.12554780935E+00  0.24395030616E-01  0.88944884024E+00  0.88000000000E+00 0.  1.
        -11    1    4    4    0    0 -0.32556280597E-01 -0.87287630796E-01  0.12131609821E-01  0.93949342596E-01  0.51100000000E-03 0.  1.
         11    1    4    4    0    0  0.11722414703E-03 -0.33245727643E-01 -0.20608442615E-01  0.39118552837E-01  0.51100000000E-03 0. -1.
</event>
<event>
 8    1  0.2943605E+004  0.1043930E+01  0.7957747E-01            NaN
         13   -1    0    0    0    0  0.00000000000E+00  0.00000000000E+00  0.74505805969E-08  0.10566000000E+00  0.10566000000E+00 0. -1.
     999900   -1    0    0    0    0 -0.00000000000E+00 -0.00000000000E+00 -0.74505805969E-08  0.93827000000E+00  0.93827000000E+00 0.  1.
     999902    2    1    2    0    0  0.70789677082E-02 -0.31207858764E-02 -0.97517598752E-02  0.10314821926E+01  0.10314070805E+01 0.  0.
     999903    2    3    3    0    0 -0.60286474564E-01  0.88906333697E-01 -0.78682072717E-01  0.14144933839E+00  0.47731033695E-01 0.  0.
         14    1    1    2    0    0 -0.70789677082E-02  0.31207858764E-02  0.97517598752E-02  0.12447807396E-01  0.00000000000E+00 0. -1.
     999901    1    3    3    0    0  0.67365442272E-01 -0.92027119574E-01  0.68930312842E-01  0.89003285421E+00  0.88000000000E+00 0. -1.
        -11    1    4    4    0    0 -0.58737595296E-01  0.73572411009E-01 -0.44878216104E-01  0.10429439182E+00  0.51100000000E-03 0. -1.
         11    1    4    4    0    0 -0.15488792672E-02  0.15333922688E-01 -0.33803856613E-01  0.37154946574E-01  0.51100000000E-03 0.  1.
</event>
<event>
 8    1  0.2943605E+004  0.1043930E+01  0.7957747E-01            NaN
         13   -1    0    0    0    0  0.00000000000E+00  0.00000000000E+00  0.74505805969E-08  0.10566000000E+00  0.10566000000E+00 0.  1.
     999900   -1    0    0    0    0 -0.00000000000E+00 -0.00000000000E+00 -0.74505805969E-08  0.93827000000E+00  0.93827000000E+00 0. -1.
     999902    2    1    2    0    0  0.56874269724E-02  0.91956131435E-02  0.10429877685E-01  0.10289070684E+01  0.10287973886E+01 0.  0.
     999903    2    3    3    0    0  0.68443977881E-01 -0.66528966459E-02 -0.11046446076E+00  0.13828649762E+00  0.46817936660E-01 0.  0.
         14    1    1    2    0    0 -0.56874269724E-02 -0.91956131435E-02 -0.10429877685E-01  0.15022931644E-01  0.00000000000E+00 0. -1.
     999901    1    3    3    0    0 -0.62756550909E-01  0.15848509789E-01  0.12089433844E+00  0.89062057073E+00  0.88000000000E+00 0.  1.
        -11    1    4    4    0    0  0.47221372463E-01  0.16622649755E-01 -0.54061463863E-01  0.73682246832E-01  0.51100000000E-03 0.  1.
         11    1    4    4    0    0  0.21222605419E-01 -0.23275546401E-01 -0.56402996892E-01  0.64604250792E-01  0.51100000000E-03 0. -1.
</event>
<event>
 8    1  0.2943605E+004  0.1043930E+01  0.7957747E-01            NaN
         13   -1    0    0    0    0  0.00000000000E+00  0.00000000000E+00  0.74505805969E-08  0.10566000000E+00  0.10566000000E+00 0.  1.
     999900   -1    0    0    0    0 -0.00000000000E+00 -0.00000000000E+00 -0.74505805969E-08  0.93827000000E+00  0.93827000000E+00 0. -1.
     999902    2    1    2    0    0 -0.25524010883E-02  0.10357667418E-01 -0.92720036760E-02  0.10297961372E+01  0.10296991396E+01 0.  0.
     999903    2    3    3    0    0 -0.12618914335E-01 -0.12663123522E+00  0.29279191449E-01  0.13830665953E+00  0.45571419618E-01 0.  0.
         14    1    1    2    0    0  0.25524010883E-02 -0.10357667418E-01  0.92720036760E-02  0.14133862806E-01  0.00000000000E+00 0.  1.
     999901    1    3    3    0    0  0.10066513247E-01  0.13698890264E+00 -0.38551195125E-01  0.89148947766E+00  0.88000000000E+00 0. -1.
        -11    1    4    4    0    0  0.16137467272E-01 -0.31616387843E-01  0.30706322189E-02  0.35632902400E-01  0.51100000000E-03 0. -1.
         11    1    4    4    0    0 -0.28756381608E-01 -0.95014847379E-01  0.26208559230E-01  0.10267375713E+00  0.51100000000E-03 0.  1.
</event>
<event>
 8    1  0.2943605E+004  0.1043930E+01  0.7957747E-01            NaN
         13   -1    0    0    0    0  0.00000000000E+00  0.00000000000E+00  0.74505805969E-08  0.10566000000E+00  0.10566000000E+00 0.  1.
     999900   -1    0    0    0    0 -0.00000000000E+00 -0.00000000000E+00 -0.74505805969E-08  0.93827000000E+00  0.93827000000E+00 0.  1.
     999902    2    1    2    0    0 -0.13947729824E-01  0.46262075258E-02 -0.37543744180E-02  0.10287630527E+01  0.10286512443E+01 0.  0.
     999903    2    3    3    0    0 -0.85589098465E-01 -0.50962971227E-01  0.87043284620E-01  0.13945609928E+00  0.44144671456E-01 0.  0.
         14    1    1    2    0    0  0.13947729824E-01 -0.46262075258E-02  0.37543744180E-02  0.15166947306E-01  0.00000000000E+00 0.  1.
     999901    1    3    3    0    0  0.71641368642E-01  0.55589178753E-01 -0.90797659038E-01  0.88930695341E+00  0.88000000000E+00 0. -1.
        -11    1    4    4    0    0 -0.27593361469E-01  0.48484369453E-02  0.17129566219E-01  0.32841804120E-01  0.51100000000E-03 0.  1.
         11    1    4    4    0    0 -0.57995736996E-01 -0.55811408173E-01  0.69913718401E-01  0.10661429517E+00  0.51100000000E-03 0. -1.
</event>
<event>
 8    1  0.2943605E+004  0.1043930E+01  0.7957747E-01            NaN
         13   -1    0    0    0    0  0.00000000000E+00  0.00000000000E+00  0.74505805969E-08  0.10566000000E+00  0.10566000000E+00 0. -1.
     999900   -1    0    0    0    0 -0.00000000000E+00 -0.00000000000E+00 -0.74505805969E-08  0.93827000000E+00  0.93827000000E+00 0. -1.
     999902    2    1    2    0    0 -0.47425955193E-02 -0.74520475554E-02  0.10743117473E-01  0.10300217363E+01  0.10299278312E+01 0.  0.
     999903    2    3    3    0    0  0.94550076551E-01 -0.82766940788E-01  0.44145326000E-01  0.14061346372E+00  0.45091605741E-01 0.  0.
         14    1    1    2    0    0  0.47425955193E-02  0.74520475554E-02 -0.10743117473E-01  0.13908263661E-01  0.00000000000E+00 0.  1.
     999901    1    3    3    0    0 -0.99292672070E-01  0.75314893232E-01 -0.33402208526E-01  0.88940827262E+00  0.88000000000E+00 0. -1.
        -11    1    4    4    0    0  0.43459977822E-01 -0.65355154034E-01  0.34696001508E-01  0.85814564456E-01  0.51100000000E-03 0. -1.
         11    1    4    4    0    0  0.51090098729E-01 -0.17411786753E-01  0.94493244913E-02  0.54798899263E-01  0.51100000000E-03 0.  1.
</event>
<event>
 8    1  0.2943605E+004  0.1043930E+01  0.7957747E-01            NaN
         13   -1    0    0    0    0  0.00000000000E+00  0.00000000000E+00  0.74505805969E-08  0.10566000000E+00  0.10566000000E+00 0. -1.
     999900   -1    0    0    0    0 -0.00000000000E+00 -0.00000000000E+00 -0.74505805969E-08  0.93827000000E+00  0.93827000000E+00 0.  1.
     999902    2    1    2    0    0  0.11177649651E-01 -0.40801531785E-02 -0.52317970187E-02  0.10309315693E+01  0.10308496211E+01 0.  0.
     999903    2    3    3    0    0 -0.10120224399E+00 -0.84433400325E-01 -0.48556295724E-02  0.14015324312E+00  0.47417941109E-01 0.  0.
         14    1    1    2    0    0 -0.11177649651E-01  0.40801531785E-02  0.52317970187E-02  0.12998430741E-01  0.00000000000E+00 0. -1.
     999901    1    3    3    0    0  0.11237989364E+00  0.80353247147E-01 -0.37616744633E-03  0.89077832614E+00  0.88000000000E+00 0. -1.
        -11    1    4    4    0    0  0.47093753367E-02 -0.82319887608E-02 -0.16308396000E-02  0.96366287580E-02  0.51100000000E-03 0. -1.
         11    1    4    4    0    0 -0.10591161933E+00 -0.76201411565E-01 -0.32247899724E-02  0.13051661436E+00  0.51100000000E-03 0.  1.
</event>
<event>
 8    1  0.2943605E+004  0.1043930E+01  0.7957747E-01            NaN
         13   -1    0    0    0    0  0.00000000000E+00  0.00000000000E+00  0.74505805969E-08  0.10566000000E+00  0.10566000000E+00 0.  1.
     999900   -1    0    0    0    0 -0.00000000000E+00 -0.00000000000E+00 -0.74505805969E-08  0.93827000000E+00  0.93827000000E+00 0.  1.
     999902    2    1    2    0    0 -0.14665650062E-01  0.52308593203E-02  0.46676317505E-02  0.10276748480E+01  0.10275462828E+01 0.  0.
     999903    2    3    3    0    0 -0.49652232378E-02  0.11810022607E+00 -0.55323731852E-01  0.13838718027E+00  0.46021511489E-01 0.  0.
         14    1    1    2    0    0  0.14665650062E-01 -0.52308593203E-02 -0.46676317505E-02  0.16255152018E-01  0.00000000000E+00 0. -1.
     999901    1    3    3    0    0 -0.97004268239E-02 -0.11286936675E+00  0.59991363602E-01  0.88928766771E+00  0.88000000000E+00 0.  1.
        -11    1    4    4    0    0 -0.21613053812E-01  0.53806800838E-01 -0.12371418258E-01  0.59292571392E-01  0.51100000000E-03 0. -1.
         11    1    4    4    0    0  0.16647830574E-01  0.64293425228E-01 -0.42952313594E-01  0.79094608883E-01  0.51100000000E-03 0.  1.
</event>
<event>
 8    1  0.2943605E+004  0.1043930E+01  0.7957747E-01            NaN
         13   -1    0    0    0    0  0.00000000000E+00  0.00000000000E+00  0.74505805969E-08  0.10566000000E+00  0.10566000000E+00 0. -1.
     999900   -1    0    0    0    0 -0.00000000000E+00 -0.00000000000E+00 -0.74505805969E-08  0.93827000000E+00  0.93827000000E+00 0. -1.
     999902    2    1    2    0    0 -0.45900286481E-02 -0.10419059410E-01 -0.54736451494E-02  0.10312972666E+01  0.10312198922E+01 0.  0.
     999903    2    3    3    0    0  0.61507671803E-01  0.74434200356E-01 -0.91961008794E-01  0.14053969814E+00  0.44395222054E-01 0.  0.
         14    1    1    2    0    0  0.45900286481E-02  0.10419059410E-01  0.54736451494E-02  0.12632733402E-01  0.00000000000E+00 0.  1.
     999901    1    3    3    0    0 -0.66097700451E-01 -0.84853259766E-01  0.86487363644E-01  0.89075756846E+00  0.88000000000E+00 0.  1.
        -11    1    4    4    0    0  0.60308879047E-01  0.57332257192E-01 -0.91074608788E-01  0.12336528723E+00  0.51100000000E-03 0. -1.
         11    1    4    4    0    0  0.11987927560E-02  0.17101943164E-01 -0.88640000568E-03  0.17174410908E-01  0.51100000000E-03 0.  1.
</event>
<event>
 8    1  0.2943605E+004  0.1043930E+01  0.7957747E-01            NaN
         13   -1    0    0    0    0  0.00000000000E+00  0.00000000000E+00  0.74505805969E-08  0.10566000000E+00  0.10566000000E+00 0. -1.
     999900   -1    0    0    0    0 -0.00000000000E+00 -0.00000000000E+00 -0.74505805969E-08  0.93827000000E+00  0.93827000000E+00 0. -1.
     999902    2    1    2    0    0  0.11268070148E-01  0.64342186913E-02 -0.47094032301E-02  0.10301261218E+01  0.10300336304E+01 0.  0.
     999903    2    3    3    0    0  0.22160639425E-01  0.66812705904E-01 -0.11432042762E+00  0.14120611051E+00  0.43760414345E-01 0.  0.
         14    1    1    2    0    0 -0.11268070148E-01 -0.64342186913E-02  0.47094032301E-02  0.13803878217E-01  0.00000000000E+00 0.  1.
     999901    1    3    3    0    0 -0.10892569277E-01 -0.60378487212E-01  0.10961102439E+00  0.88892001128E+00  0.88000000000E+00 0.  1.
        -11    1    4    4    0    0 -0.12244742895E-01  0.20680654658E-01 -0.23040412147E-01  0.33297821529E-01  0.51100000000E-03 0.  1.
         11    1    4    4    0    0  0.34405382320E-01  0.46132051245E-01 -0.91280015469E-01  0.10790828898E+00  0.51100000000E-03 0. -1.
</event>
<event>
 8    1  0.2943605E+004  0.1043930E+01  0.7957747E-01            NaN
         13   -1    0    0    0    0  0.00000000000E+00  0.00000000000E+00  0.74505805969E-08  0.10566000000E+00  0.10566000000E+00 0. -1.
     999900   -1    0    0    0    0 -0.00000000000E+00 -0.00000000000E+00 -0.74505805969E-08  0.93827000000E+00  0.93827000000E+00 0. -1.
     999902    2    1    2    0    0  0.74920625155E-02 -0.16470234288E-01  0.52321846127E-02  0.10250945182E+01  0.10249214584E+01 0.  0.
     999903    2    3    3    0    0  0.22233045237E-01  0.88169903716E-01  0.89092840730E-01  0.13481396429E+00  0.44373758871E-01 0.  0.
         14    1    1    2    0    0 -0.74920625155E-02  0.16470234288E-01 -0.52321846127E-02  0.18835481785E-01  0.00000000000E+00 0.  1.
     999901    1    3    3    0    0 -0.14740982721E-01 -0.10464013800E+00 -0.83860656118E-01  0.89028055393E+00  0.88000000000E+00 0.  1.
        -11    1    4    4    0    0  0.19657078839E-01  0.18513809657E-01  0.44533172163E-01  0.52082880493E-01  0.51100000000E-03 0.  1.
         11    1    4    4    0    0  0.25759663976E-02  0.69656094059E-01  0.44559668567E-01  0.82731083797E-01  0.51100000000E-03 0. -1.
</event>
<event>
 8    1  0.2943605E+004  0.1043930E+01  0.7957747E-01            NaN
         13   -1    0    0    0    0  0.00000000000E+00  0.00000000000E+00  0.74505805969E-08  0.10566000000E+00  0.10566000000E+00 0.  1.
     999900   -1    0    0    0    0 -0.00000000000E+00 -0.00000000000E+00 -0.74505805969E-08  0.93827000000E+00  0.93827000000E+00 0. -1.
     999902    2    1    2    0    0 -0.10189328327E-01  0.87890024601E-02  0.54578107681E-02  0.10294090953E+01  0.10293066738E+01 0.  0.
     999903    2    3    3    0    0 -0.65916812563E-01 -0.23820446148E-01  0.11412829432E+00  0.14037692339E+00  0.42047273654E-01 0.  0.
         14    1    1    2    0    0  0.10189328327E-01 -0.87890024601E-02 -0.54578107681E-02  0.14520904737E-01  0.00000000000E+00 0. -1.
     999901    1    3    3    0    0  0.55727484236E-01  0.32609448608E-01 -0.10867048355E+00  0.88903217188E+00  0.88000000000E+00 0. -1.
        -11    1    4    4    0    0 -0.59735542143E-01 -0.28021073340E-01  0.72299073520E-01  0.97882238936E-01  0.51100000000E-03 0.  1.
         11    1    4    4    0    0 -0.61812704207E-02  0.42006271915E-02  0.41829220799E-01  0.42494684450E-01  0.51100000000E-03 0. -1.
</event>
<event>
 8    1  0.2943605E+004  0.1043930E+01  0.7957747E-01            NaN
         13   -1    0    0    0    0  0.00000000000E+00  0.00000000000E+00  0.74505805969E-08  0.10566000000E+00  0.10566000000E+00 0. -1.
     999900   -1    0    0    0    0 -0.00000000000E+00 -0.00000000000E+00 -0.74505805969E-08  0.93827000000E+00  0.93827000000E+00 0.  1.
     999902    2    1    2    0    0  0.43634814397E-02  0.14285506380E-02 -0.12973392647E-01  0.10301681090E+01  0.10300761832E+01 0.  0.
     999903    2    3    3    0    0  0.70857554541E-01 -0.23225542002E-01  0.10960107315E+00  0.13884673839E+00  0.41301364244E-01 0.  0.
         14    1    1    2    0    0 -0.43634814397E-02 -0.14285506380E-02  0.12973392647E-01  0.13761891002E-01  0.00000000000E+00 0. -1.
     999901    1    3    3    0    0 -0.66494073102E-01  0.24654092640E-01 -0.12257446580E+00  0.89132137061E+00  0.88000000000E+00 0.  1.
        -11    1    4    4    0    0  0.23301838016E-01 -0.24214431961E-01  0.67145936172E-01  0.75087630376E-01  0.51100000000E-03 0.  1.
         11    1    4    4    0    0  0.47555716525E-01  0.98888995950E-03  0.42455136978E-01  0.63759108011E-01  0.51100000000E-03 0. -1.
</event>
<event>
 8    1  0.2943605E+004  0.1043930E+01  0.7957747E-01            NaN
         13   -1    0    0    0    0  0.00000000000E+00  0.00000000000E+00  0.74505805969E-08  0.10566000000E+00  0.10566000000E+00 0.  1.
     999900   -1    0    0    0    0 -0.00000000000E+00 -0.00000000000E+00 -0.74505805969E-08  0.93827000000E+00  0.93827000000E+00 0. -1.
     999902    2    1    2    0    0  0.94003721802E-02 -0.51127516896E-02 -0.87864319538E-02  0.10300841120E+01  0.10299910530E+01 0.  0.
     999903    2    3    3    0    0  0.60262099856E-01 -0.10588668030E+00  0.53640308842E-01  0.14068015545E+00  0.45498501737E-01 0.  0.
         14    1    1    2    0    0 -0.94003721802E-02  0.51127516896E-02  0.87864319538E-02  0.13845887962E-01  0.00000000000E+00 0.  1.
     999901    1    3    3    0    0 -0.50861727676E-01  0.10077392861E+00 -0.62426740796E-01  0.88940395659E+00  0.88000000000E+00 0. -1.
        -11    1    4    4    0    0  0.49029150662E-01 -0.73468798075E-01  0.58617384769E-01  0.10600839978E+00  0.51100000000E-03 0. -1.
         11    1    4    4    0    0  0.11232949194E-01 -0.32417882225E-01 -0.49770759264E-02  0.34671755672E-01  0.51100000000E-03 0.  1.
</event>
<event>
 8    1  0.2943605E+004  0.1043930E+01  0.7957747E-01            NaN
         13   -1    0    0    0    0  0.00000000000E+00  0.00000000000E+00  0.74505805969E-08  0.10566000000E+00  0.10566000000E+00 0.  1.
     999900   -1    0    0    0    0 -0.00000000000E+00 -0.00000000000E+00 -0.74505805969E-08  0.93827000000E+00  0.93827000000E+00 0. -1.
     999902    2    1    2    0    0 -0.11199426874E-01 -0.43755058279E-02 -0.60735067866E-02  0.10304593022E+01  0.10303712505E+01 0.  0.
     999903    2    3    3    0    0 -0.47649566389E-01 -0.37301214926E-01  0.11849974157E+00  0.14032941891E+00  0.44590304393E-01 0.  0.
         14    1    1    2    0    0  0.11199426874E-01  0.43755058279E-02  0.60735067866E-02  0.13470697764E-01  0.00000000000E+00 0. -1.
     999901    1    3    3    0    0  0.36450139515E-01  0.32925709098E-01 -0.12457324836E+00  0.89012988333E+00  0.88000000000E+00 0. -1.
        -11    1    4    4    0    0 -0.44251636259E-01 -0.43462491898E-01  0.80212878695E-01  0.10139804013E+00  0.51100000000E-03 0. -1.
         11    1    4    4    0    0 -0.33979301305E-02  0.61612769723E-02  0.38286862877E-01  0.38931378772E-01  0.51100000000E-03 0.  1.
</event>
<event>
 8    1  0.2943605E+004  0.1043930E+01  0.7957747E-01            NaN
         13   -1    0    0    0    0  0.00000000000E+00  0.00000000000E+00  0.74505805969E-08  0.10566000000E+00  0.10566000000E+00 0. -1.
     999900   -1    0    0    0    0 -0.00000000000E+00 -0.00000000000E+00 -0.74505805969E-08  0.93827000000E+00  0.93827000000E+00 0.  1.
     999902    2    1    2    0    0 -0.55518793432E-02  0.97714404278E-02  0.88943831663E-02  0.10295977125E+01  0.10294979530E+01 0.  0.
     999903    2    3    3    0    0 -0.78721555837E-02  0.13154301465E+00  0.21368709473E-01  0.14112187786E+00  0.45751799183E-01 0.  0.
         14    1    1    2    0    0  0.55518793432E-02 -0.97714404278E-02 -0.88943831663E-02  0.14332287472E-01  0.00000000000E+00 0.  1.
     999901    1    3    3    0    0  0.23202762405E-02 -0.12177157423E+00 -0.12474326306E-01  0.88847583467E+00  0.88000000000E+00 0.  1.
        -11    1    4    4    0    0  0.94490267555E-02  0.59073061483E-01  0.28501252475E-01  0.66268342466E-01  0.51100000000E-03 0. -1.
         11    1    4    4    0    0 -0.17321182339E-01  0.72469953171E-01 -0.71325430027E-02  0.74853535394E-01  0.51100000000E-03 0.  1.
</event>
<event>
 8    1  0.2943605E+004  0.1043930E+01  0.7957747E-01            NaN
         13   -1    0    0    0    0  0.00000000000E+00  0.00000000000E+00  0.74505805969E-08  0.10566000000E+00  0.10566000000E+00 0.  1.
     999900   -1    0    0    0    0 -0.00000000000E+00 -0.00000000000E+00 -0.74505805969E-08  0.93827000000E+00  0.93827000000E+00 0.  1.
     999902    2    1    2    0    0 -0.62289340487E-02  0.89934391524E-03 -0.13216755956E-01  0.10292913157E+01  0.10291872141E+01 0.  0.
     999903    2    3    3    0    0 -0.50448782750E-01  0.94690360264E-01  0.75194939299E-01  0.13880337218E+00  0.45833974567E-01 0.  0.
         14    1    1    2    0    0  0.62289340487E-02 -0.89934391524E-03  0.13216755956E-01  0.14638684260E-01  0.00000000000E+00 0.  1.
     999901    1    3    3    0    0  0.44219848701E-01 -0.93791016349E-01 -0.88411695255E-01  0.89048794356E+00  0.88000000000E+00 0.  1.
        -11    1    4    4    0    0 -0.68157918267E-02  0.18392724522E-01  0.39175693271E-01  0.43814876445E-01  0.51100000000E-03 0.  1.
         11    1    4    4    0    0 -0.43632990923E-01  0.76297635742E-01  0.36019246027E-01  0.94988495736E-01  0.51100000000E-03 0. -1.
</event>
<event>
 8    1  0.2943605E+004  0.1043930E+01  0.7957747E-01            NaN
         13   -1    0    0    0    0  0.00000000000E+00  0.00000000000E+00  0.74505805969E-08  0.10566000000E+00  0.10566000000E+00 0.  1.
     999900   -1    0    0    0    0 -0.00000000000E+00 -0.00000000000E+00 -0.74505805969E-08  0.93827000000E+00  0.93827000000E+00 0.  1.
     999902    2    1    2    0    0  0.60289175069E-02 -0.72085879741E-02 -0.85724374861E-02  0.10312100051E+01  0.10311315514E+01 0.  0.
     999903    2    3    3    0    0 -0.10518594123E+00  0.67217722133E-01  0.43328833339E-01  0.13958129177E+00  0.44980493702E-01 0.  0.
         14    1    1    2    0    0 -0.60289175069E-02  0.72085879741E-02  0.85724374861E-02  0.12719994943E-01  0.00000000000E+00 0.  1.
     999901    1    3    3    0    0  0.11121485874E+00 -0.74426310107E-01 -0.51901270825E-01  0.89162871328E+00  0.88000000000E+00 0.  1.
        -11    1    4    4    0    0  0.74553644192E-03  0.48389711941E-02  0.11625554097E-01  0.12624820627E-01  0.51100000000E-03 0. -1.
         11    1    4    4    0    0 -0.10593147767E+00  0.62378750939E-01  0.31703279242E-01  0.12695647115E+00  0.51100000000E-03 0.  1.
</event>
<event>
 8    1  0.2943605E+004  0.1043930E+01  0.7957747E-01            NaN
         13   -1    0    0    0    0  0.00000000000E+00  0.00000000000E+00  0.74505805969E-08  0.10566000000E+00  0.10566000000E+00 0.  1.
     999900   -1    0    0    0    0 -0.00000000000E+00 -0.00000000000E+00 -0.74505805969E-08  0.93827000000E+00  0.93827000000E+00 0. -1.
     999902    2    1    2    0    0  0.11959350906E-01 -0.52135440243E-02  0.53434230214E-02  0.10298317985E+01  0.10297352931E+01 0.  0.
     999903    2    3    3    0    0 -0.30865717443E-01  0.12542595962E+00  0.31092414521E-01  0.13878540413E+00  0.40128372740E-01 0.  0.
         14    1    1    2    0    0 -0.11959350906E-01  0.52135440243E-02 -0.53434230214E-02  0.14098201480E-01  0.00000000000E+00 0.  1.
     999901    1    3    3    0    0  0.42825068349E-01 -0.13063950365E+00 -0.25748991500E-01  0.89104639439E+00  0.88000000000E+00 0. -1.
        -11    1    4    4    0    0 -0.15677676402E-01  0.59401628278E-01  0.35384408755E-01  0.70898945573E-01  0.51100000000E-03 0.  1.
         11    1    4    4    0    0 -0.15188041041E-01  0.66024331343E-01 -0.42919942340E-02  0.67886458557E-01  0.51100000000E-03 0. -1.
</event>
<event>
 8    1  0.2943605E+004  0.1043930E+01  0.7957747E-01            NaN
         13   -1    0    0    0    0  0.00000000000E+00  0.00000000000E+00  0.74505805969E-08  0.10566000000E+00  0.10566000000E+00 0. -1.
     999900   -1    0    0    0    0 -0.00000000000E+00 -0.00000000000E+00 -0.74505805969E-08  0.93827000000E+00  0.93827000000E+00 0. -1.
     999902    2    1    2    0    0 -0.34479480308E-02 -0.12368828035E-01 -0.51264344598E-02  0.10301040612E+01  0.10300112720E+01 0.  0.
     999903    2    3    3    0    0 -0.41710788634E-01 -0.11213798980E+00  0.60155619781E-01  0.14123979869E+00  0.44891686292E-01 0.  0.
         14    1    1    2    0    0  0.34479480308E-02  0.12368828035E-01  0.51264344598E-02  0.13825938769E-01  0.00000000000E+00 0. -1.
     999901    1    3    3    0    0  0.38262840604E-01  0.99769161768E-01 -0.65282054241E-01  0.88886426254E+00  0.88000000000E+00 0. -1.
        -11    1    4    4    0    0 -0.44364564891E-01 -0.71816051812E-01  0.26005957593E-01  0.88330803614E-01  0.51100000000E-03 0.  1.
         11    1    4    4    0    0  0.26537762562E-02 -0.40321937991E-01  0.34149662187E-01  0.52908995079E-01  0.51100000000E-03 0. -1.
</event>
<event>
 8    1  0.2943605E+004  0.1043930E+01  0.7957747E-01            NaN
         13   -1    0    0    0    0  0.00000000000E+00  0.00000000000E+00  0.74505805969E-08  0.10566000000E+00  0.10566000000E+00 0. -1.
     999900   -1    0    0    0    0 -0.00000000000E+00 -0.00000000000E+00 -0.74505805969E-08  0.93827000000E+00  0.93827000000E+00 0.  1.
     999902    2    1    2    0    0  0.26882136948E-03  0.14666569920E-02  0.13752673318E-01  0.10300967296E+01  0.10300038412E+01 0.  0.
     999903    2    3    3    0    0  0.15991570587E-01  0.13034080598E+00  0.23151857825E-01  0.14052149621E+00  0.44337640251E-01 0.  0.
         14    1    1    2    0    0 -0.26882136948E-03 -0.14666569920E-02 -0.13752673318E-01  0.13833270440E-01  0.00000000000E+00 0.  1.
     999901    1    3    3    0    0 -0.15722749218E-01 -0.12887414899E+00 -0.93991845065E-02  0.88957523335E+00  0.88000000000E+00 0.  1.
        -11    1    4    4    0    0  0.22534893191E-01  0.40231914270E-01  0.19587858931E-01  0.50103629364E-01  0.51100000000E-03 0.  1.
         11    1    4    4    0    0 -0.65433226035E-02  0.90108891710E-01  0.35639988939E-02  0.90417866846E-01  0.51100000000E-03 0. -1.
</event>
<event>
 8    1  0.2943605E+004  0.1043930E+01  0.7957747E-01            NaN
         13   -1    0    0    0    0  0.00000000000E+00  0.00000000000E+00  0.74505805969E-08  0.10566000000E+00  0.10566000000E+00 0. -1.
     999900   -1    0    0    0    0 -0.00000000000E+00 -0.00000000000E+00 -0.74505805969E-08  0.93827000000E+00  0.93827000000E+00 0. -1.
     999902    2    1    2    0    0  0.39373152451E-02  0.10790996234E-01 -0.63187136526E-02  0.10308199202E+01  0.10307365491E+01 0.  0.
     999903    2    3    3    0    0  0.37358466377E-01 -0.82281539425E-01 -0.97926166221E-01  0.14055513056E+00  0.44724757762E-01 0.  0.
         14    1    1    2    0    0 -0.39373152451E-02 -0.10790996234E-01  0.63187136526E-02  0.13110079835E-01  0.00000000000E+00 0. -1.
     999901    1    3    3    0    0 -0.33421151132E-01  0.93072535659E-01  0.91607452568E-01  0.89026478960E+00  0.88000000000E+00 0.  1.
        -11    1    4    4    0    0  0.10820562057E-01 -0.47063112622E-01 -0.78940890861E-01  0.92541593372E-01  0.51100000000E-03 0.  1.
         11    1    4    4    0    0  0.26537904320E-01 -0.35218426803E-01 -0.18985275360E-01  0.48013537192E-01  0.51100000000E-03 0. -1.
</event>
<event>
 8    1  0.2943605E+004  0.1043930E+01  0.7957747E-01            NaN
         13   -1    0    0    0    0  0.00000000000E+00  0.00000000000E+00  0.74505805969E-08  0.10566000000E+00  0.10566000000E+00 0. -1.
     999900   -1    0    0    0    0 -0.00000000000E+00 -0.00000000000E+00 -0.74505805969E-08  0.93827000000E+00  0.93827000000E+00 0.  1.
     999902    2    1    2    0    0  0.11930326932E-01 -0.46594813421E-02 -0.66958695320E-02  0.10294773831E+01  0.10293759295E+01 0.  0.
     999903    2    3    3    0    0  0.11055891827E+00  0.78120723564E-01  0.50472752428E-02  0.14002920426E+00  0.35448289078E-01 0.  0.
         14    1    1    2    0    0 -0.11930326932E-01  0.46594813421E-02  0.66958695320E-02  0.14452616921E-01  0.00000000000E+00 0. -1.
     999901    1    3    3    0    0 -0.98628591342E-01 -0.82780204906E-01 -0.11743144775E-01  0.88944817882E+00  0.88000000000E+00 0.  1.
        -11    1    4    4    0    0  0.35311309600E-01  0.39670694153E-01 -0.10411682381E-01  0.54123163352E-01  0.51100000000E-03 0. -1.
         11    1    4    4    0    0  0.75247608673E-01  0.38450029412E-01  0.15458957624E-01  0.85906040908E-01  0.51100000000E-03 0.  1.
</event>
<event>
 8    1  0.2943605E+004  0.1043930E+01  0.7957747E-01            NaN
         13   -1    0    0    0    0  0.00000000000E+00  0.00000000000E+00  0.74505805969E-08  0.10566000000E+00  0.10566000000E+00 0. -1.
     999900   -1    0    0    0    0 -0.00000000000E+00 -0.00000000000E+00 -0.74505805969E-08  0.93827000000E+00  0.93827000000E+00 0.  1.
     999902    2    1    2    0    0  0.32973734358E-02 -0.16113344388E-02  0.12449423728E-01  0.10309508929E+01  0.10308691897E+01 0.  0.
     999903    2    3    3    0    0 -0.12049714744E+00  0.49782857459E-01 -0.25383553739E-01  0.13999759414E+00  0.44239192200E-01 0.  0.
         14    1    1    2    0    0 -0.32973734358E-02  0.16113344388E-02 -0.12449423728E-01  0.12979107111E-01  0.00000000000E+00 0.  1.
     999901    1    3    3    0    0  0.12379452088E+00 -0.51394191898E-01  0.37832977467E-01  0.89095329875E+00  0.88000000000E+00 0.  1.
        -11    1    4    4    0    0 -0.95728579079E-01  0.27955891022E-01 -0.34862479370E-01  0.10564632641E+00  0.51100000000E-03 0.  1.
         11    1    4    4    0    0 -0.24768568365E-01  0.21826966437E-01  0.94789256311E-02  0.34351267732E-01  0.51100000000E-03 0. -1.
</event>
<event>
 8    1  0.2943605E+004  0.1043930E+01  0.7957747E-01            NaN
         13   -1    0    0    0    0  0.00000000000E+00  0.00000000000E+00  0.74505805969E-08  0.10566000000E+00  0.10566000000E+00 0. -1.
     999900   -1    0    0    0    0 -0.00000000000E+00 -0.00000000000E+00 -0.74505805969E-08  0.93827000000E+00  0.93827000000E+00 0. -1.
     999902    2    1    2    0    0 -0.78717816568E-02  0.12940819906E-01 -0.15103888248E-02  0.10287079423E+01  0.10285953138E+01 0.  0.
     999903    2    3    3    0    0  0.10387006421E+00 -0.22171069411E-01 -0.73736235556E-01  0.13801402303E+00  0.48273093540E-01 0.  0.
         14    1    1    2    0    0  0.78717816568E-02 -0.12940819906E-01  0.15103888248E-02  0.15222057703E-01  0.00000000000E+00 0.  1.
     999901    1    3    3    0    0 -0.11174184587E+00  0.35111889318E-01  0.72225846731E-01  0.89069391927E+00  0.88000000000E+00 0.  1.
        -11    1    4    4    0    0  0.21307201327E-01  0.10369573176E-01 -0.32321068854E-01  0.40080387837E-01  0.51100000000E-03 0. -1.
         11    1    4    4    0    0  0.82562862884E-01 -0.32540642587E-01 -0.41415166702E-01  0.97933635190E-01  0.51100000000E-03 0.  1.
</event>
<event>
 8    1  0.2943605E+004  0.1043930E+01  0.7957747E-01            NaN
         13   -1    0    0    0    0  0.00000000000E+00  0.00000000000E+00  0.74505805969E-08  0.10566000000E+00  0.10566000000E+00 0.  1.
     999900   -1    0    0    0    0 -0.00000000000E+00 -0.00000000000E+00 -0.74505805969E-08  0.93827000000E+00  0.93827000000E+00 0. -1.
     999902    2    1    2    0    0 -0.86354565526E-02 -0.53501406753E-02 -0.10907573118E-01  0.10290246229E+01  0.10289166654E+01 0.  0.
     999903    2    3    3    0    0  0.66031315102E-01  0.32079897380E-01  0.10703747818E+00  0.13723587568E+00  0.44580370688E-01 0.  0.
         14    1    1    2    0    0  0.86354565526E-02  0.53501406753E-02  0.10907573118E-01  0.14905377099E-01  0.00000000000E+00 0.  1.
     999901    1    3    3    0    0 -0.74666771654E-01 -0.37430038055E-01 -0.11794505129E+00  0.89178874722E+00  0.88000000000E+00 0. -1.
        -11    1    4    4    0    0  0.41484621904E-01 -0.12614931361E-02  0.71481947200E-01  0.82658908267E-01  0.51100000000E-03 0. -1.
         11    1    4    4    0    0  0.24546693198E-01  0.33341390516E-01  0.35555530975E-01  0.54576967417E-01  0.51100000000E-03 0.  1.
</event>
<event>
 8    1  0.2943605E+004  0.1043930E+01  0.7957747E-01            NaN
         13   -1    0    0    0    0  0.00000000000E+00  0.00000000000E+00  0.74505805969E-08  0.10566000000E+00  0.10566000000E+00 0.  1.
     999900   -1    0    0    0    0 -0.00000000000E+00 -0.00000000000E+00 -0.74505805969E-08  0.93827000000E+00  0.93827000000E+00 0.  1.
     999902    2    1    2    0    0  0.78155910506E-02  0.31988435809E-02  0.10692243735E-01  0.10303050178E+01  0.10302149240E+01 0.  0.
     999903    2    3    3    0    0 -0.25037921467E-01  0.12008655019E+00 -0.35682295975E-01  0.14075867996E+00  0.59094015685E-01 0.  0.
         14    1    1    2    0    0 -0.78155910506E-02 -0.31988435809E-02 -0.10692243735E-01  0.13624982195E-01  0.00000000000E+00 0. -1.
     999901    1    3    3    0    0  0.32853512518E-01 -0.11688770661E+00  0.46374539710E-01  0.88954633785E+00  0.88000000000E+00 0. -1.
        -11    1    4    4    0    0 -0.39834928759E-01  0.78776203465E-01 -0.39496870228E-01  0.96709749563E-01  0.51100000000E-03 0.  1.
         11    1    4    4    0    0  0.14797007292E-01  0.41310346725E-01  0.38145742532E-02  0.44048930397E-01  0.51100000000E-03 0. -1.
</event>
<event>
 8    1  0.2943605E+004  0.1043930E+01  0.7957747E-01            NaN
         13   -1    0    0    0    0  0.00000000000E+00  0.00000000000E+00  0.74505805969E-08  0.10566000000E+00  0.10566000000E+00 0.  1.
     999900   -1    0    0    0    0 -0.00000000000E+00 -0.00000000000E+00 -0.74505805969E-08  0.93827000000E+00  0.93827000000E+00 0. -1.
     999902    2    1    2    0    0 -0.73070952002E-02  0.10178731792E-02  0.99550098997E-02  0.10315391999E+01  0.10314647783E+01 0.  0.
     999903    2    3    3    0    0 -0.82665293471E-01  0.38493665708E-01 -0.97865838312E-01  0.14097273497E+00  0.44500299461E-01 0.  0.
         14    1    1    2    0    0  0.73070952002E-02 -0.10178731792E-02 -0.99550098997E-02  0.12390800143E-01  0.00000000000E+00 0. -1.
     999901    1    3    3    0    0  0.75358198271E-01 -0.37475792529E-01  0.10782084821E+00  0.89056646489E+00  0.88000000000E+00 0.  1.
        -11    1    4    4    0    0 -0.42748673686E-01  0.31731979338E-01 -0.81396903377E-01  0.97262966308E-01  0.51100000000E-03 0.  1.
         11    1    4    4    0    0 -0.39916619785E-01  0.67616863701E-02 -0.16468934935E-01  0.43709768663E-01  0.51100000000E-03 0. -1.
</event>
<event>
 8    1  0.2943605E+004  0.1043930E+01  0.7957747E-01            NaN
         13   -1    0    0    0    0  0.00000000000E+00  0.00000000000E+00  0.74505805969E-08  0.10566000000E+00  0.10566000000E+00 0. -1.
     999900   -1    0    0    0    0 -0.00000000000E+00 -0.00000000000E+00 -0.74505805969E-08  0.93827000000E+00  0.93827000000E+00 0. -1.
     999902    2    1    2    0    0  0.86612161710E-02 -0.10607992019E-01  0.31365870733E-02  0.10298806463E+01  0.10297848131E+01 0.  0.
     999903    2    3    3    0    0  0.30204043867E-01 -0.11915684183E+00  0.54830864322E-01  0.14144424200E+00  0.43467375029E-01 0.  0.
         14    1    1    2    0    0 -0.86612161710E-02  0.10607992019E-01 -0.31365870733E-02  0.14049353675E-01  0.00000000000E+00 0.  1.
     999901    1    3    3    0    0 -0.21542827696E-01  0.10854884982E+00 -0.51694277249E-01  0.88843640432E+00  0.88000000000E+00 0. -1.
        -11    1    4    4    0    0  0.80650686111E-02 -0.10003440976E+00  0.48691872870E-01  0.11154859063E+00  0.51100000000E-03 0.  1.
         11    1    4    4    0    0  0.22138975256E-01 -0.19122432075E-01  0.61389914522E-02  0.29895651371E-01  0.51100000000E-03 0. -1.
</event>
<event>
 7    1  0.2943605E+004  0.1043930E+01  0.7957747E-01            NaN
         13   -1    0    0    0    0  0.00000000000E+00  0.00000000000E+00  0.74505805969E-08  0.10566000000E+00  0.10566000000E+00 0. -1.
     999900   -1    0    0    0    0 -0.00000000000E+00 -0.00000000000E+00 -0.74505805969E-08  0.93827000000E+00  0.93827000000E+00 0.  1.
     999903    2    1    2    0    0  0.39727241726E-01 -0.59658201798E-01  0.84921452157E-01  0.11896723071E+00  0.42475806859E-01 0.  0.
         14    1    1    2    0    0 -0.13728492540E-01 -0.88912870845E-02  0.30295943391E-01  0.34429212587E-01  0.00000000000E+00 0. -1.
     999901    1    1    2    0    0 -0.25998749185E-01  0.68549488882E-01 -0.11521739555E+00  0.89053355671E+00  0.88000000000E+00 0.  1.
        -11    1    3    3    0    0  0.28868647865E-01 -0.51738544088E-01  0.87100312277E-01  0.10534230534E+00  0.51100000000E-03 0. -1.
         11    1    3    3    0    0  0.10858593861E-01 -0.79196577101E-02 -0.21788601200E-02  0.13624925369E-01  0.51100000000E-03 0.  1.
</event>
<event>
 8    1  0.2943605E+004  0.1043930E+01  0.7957747E-01            NaN
         13   -1    0    0    0    0  0.00000000000E+00  0.00000000000E+00  0.74505805969E-08  0.10566000000E+00  0.10566000000E+00 0.  1.
     999900   -1    0    0    0    0 -0.00000000000E+00 -0.00000000000E+00 -0.74505805969E-08  0.93827000000E+00  0.93827000000E+00 0.  1.
     999902    2    1    2    0    0  0.13893712895E-01  0.10216734838E-01  0.50844042505E-02  0.10259503422E+01  0.10257927844E+01 0.  0.
     999903    2    3    3    0    0 -0.69021227164E-01 -0.10042845771E+00 -0.33467224715E-01  0.13432066905E+00  0.45521226764E-01 0.  0.
         14    1    1    2    0    0 -0.13893712895E-01 -0.10216734838E-01 -0.50844042505E-02  0.17979657820E-01  0.00000000000E+00 0. -1.
     999901    1    3    3    0    0  0.82914940059E-01  0.11064519254E+00  0.38551628965E-01  0.89162967313E+00  0.88000000000E+00 0. -1.
        -11    1    4    4    0    0 -0.31617322382E-02 -0.34416057908E-01 -0.20466864136E-01  0.40169829988E-01  0.51100000000E-03 0. -1.
         11    1    4    4    0    0 -0.65859494926E-01 -0.66012399798E-01 -0.13000360578E-01  0.94150839057E-01  0.51100000000E-03 0.  1.
</event>
<event>
 8    1  0.2943605E+004  0.1043930E+01  0.7957747E-01            NaN
         13   -1    0    0    0    0  0.00000000000E+00  0.00000000000E+00  0.74505805969E-08  0.10566000000E+00  0.10566000000E+00 0. -1.
     999900   -1    0    0    0    0 -0.00000000000E+00 -0.00000000000E+00 -0.74505805969E-08  0.93827000000E+00  0.93827000000E+00 0. -1.
     999902    2    1    2    0    0 -0.72222647869E-02 -0.66941776762E-02  0.97305697797E-02  0.10300859720E+01  0.10299929381E+01 0.  0.
     999903    2    3    3    0    0  0.16013481838E-01 -0.10713256680E+00  0.78870239601E-01  0.14137450932E+00  0.45082354873E-01 0.  0.
         14    1    1    2    0    0  0.72222647869E-02  0.66941776762E-02 -0.97305697797E-02  0.13844028014E-01  0.00000000000E+00 0.  1.
     999901    1    3    3    0    0 -0.23235746625E-01  0.10043838912E+00 -0.69139669822E-01  0.88871146267E+00  0.88000000000E+00 0. -1.
        -11    1    4    4    0    0  0.43284764155E-03 -0.96423272860E-01  0.55311355690E-01  0.11116313281E+00  0.51100000000E-03 0.  1.
         11    1    4    4    0    0  0.15580634197E-01 -0.10709293940E-01  0.23558883911E-01  0.30211376513E-01  0.51100000000E-03 0. -1.
</event>
<event>
 8    1  0.2943605E+004  0.1043930E+01  0.7957747E-01            NaN
         13   -1    0    0    0    0  0.00000000000E+00  0.00000000000E+00  0.74505805969E-08  0.10566000000E+00  0.10566000000E+00 0. -1.
     999900   -1    0    0    0    0 -0.00000000000E+00 -0.00000000000E+00 -0.74505805969E-08  0.93827000000E+00  0.93827000000E+00 0.  1.
     999902    2    1    2    0    0  0.43438242569E-02 -0.14323808388E-01  0.70142533433E-03  0.10289455983E+01  0.10288364846E+01 0.  0.
     999903    2    3    3    0    0  0.10113049985E+00 -0.87041793338E-01  0.25031109847E-02  0.14065577402E+00  0.44431176121E-01 0.  0.
         14    1    1    2    0    0 -0.43438242569E-02  0.14323808388E-01 -0.70142533433E-03  0.14984401670E-01  0.00000000000E+00 0.  1.
     999901    1    3    3    0    0 -0.96786675595E-01  0.72717984950E-01 -0.18016856504E-02  0.88828982431E+00  0.88000000000E+00 0. -1.
        -11    1    4    4    0    0  0.76059099573E-01 -0.36849047531E-01  0.75704223869E-03  0.84520252991E-01  0.51100000000E-03 0. -1.
         11    1    4    4    0    0  0.25071400279E-01 -0.50192745807E-01  0.17460687460E-02  0.56135521024E-01  0.51100000000E-03 0.  1.
</event>
<event>
 8    1  0.2943605E+004  0.1043930E+01  0.7957747E-01            NaN
         13   -1    0    0    0    0  0.00000000000E+00  0.00000000000E+00  0.74505805969E-08  0.10566000000E+00  0.10566000000E+00 0. -1.
     999900   -1    0    0    0    0 -0.00000000000E+00 -0.00000000000E+00 -0.74505805969E-08  0.93827000000E+00  0.93827000000E+00 0. -1.
     999902    2    1    2    0    0  0.13258489060E-01 -0.25177638965E-02  0.42804593765E-02  0.10297719987E+01  0.10296746673E+01 0.  0.
     999903    2    3    3    0    0 -0.18206378441E-01 -0.26440790022E-01  0.12880049133E+00  0.14012735765E+00  0.44894567619E-01 0.  0.
         14    1    1    2    0    0 -0.13258489060E-01  0.25177638965E-02 -0.42804593765E-02  0.14158001260E-01  0.00000000000E+00 0. -1.
     999901    1    3    3    0    0  0.31464867502E-01  0.23923026125E-01 -0.12452003195E+00  0.88964464109E+00  0.88000000000E+00 0. -1.
        -11    1    4    4    0    0 -0.25606770281E-01 -0.76774313857E-02  0.10755173416E+00  0.11082547667E+00  0.51100000000E-03 0. -1.
         11    1    4    4    0    0  0.74003918397E-02 -0.18763358636E-01  0.21248757169E-01  0.29301880979E-01  0.51100000000E-03 0.  1.
</event>
<event>
 8    1  0.2943605E+004  0.1043930E+01  0.7957747E-01            NaN
         13   -1    0    0    0    0  0.00000000000E+00  0.00000000000E+00  0.74505805969E-08  0.10566000000E+00  0.10566000000E+00 0.  1.
     999900   -1    0    0    0    0 -0.00000000000E+00 -0.00000000000E+00 -0.74505805969E-08  0.93827000000E+00  0.93827000000E+00 0.  1.
     999902    2    1    2    0    0 -0.61489118562E-03  0.11157025947E-01 -0.14119114504E-01  0.10259242589E+01  0.10257662396E+01 0.  0.
     999903    2    3    3    0    0  0.10002547907E+00  0.28475932611E-02  0.78852898244E-01  0.13528329532E+00  0.45503683160E-01 0.  0.
         14    1    1    2    0    0  0.61489118562E-03 -0.11157025947E-01  0.14119114504E-01  0.18005741126E-01  0.00000000000E+00 0.  1.
     999901    1    3    3    0    0 -0.10064037026E+00  0.83094326858E-02 -0.92972012747E-01  0.89064096355E+00  0.88000000000E+00 0.  1.
        -11    1    4    4    0    0  0.66313088662E-01  0.10413676064E-01  0.74779398372E-01  0.10048925275E+00  0.51100000000E-03 0. -1.
         11    1    4    4    0    0  0.33712390412E-01 -0.75660828026E-02  0.40734998719E-02  0.34794042571E-01  0.51100000000E-03 0.  1.
</event>
<event>
 8    1  0.2943605E+004  0.1043930E+01  0.7957747E-01            NaN
         13   -1    0    0    0    0  0.00000000000E+00  0.00000000000E+00  0.74505805969E-08  0.10566000000E+00  0.10566000000E+00 0.  1.
     999900   -1    0    0    0    0 -0.00000000000E+00 -0.00000000000E+00 -0.74505805969E-08  0.93827000000E+00  0.93827000000E+00 0. -1.
     999902    2    1    2    0    0 -0.34338812688E-02 -0.70706021908E-02  0.75794060967E-02  0.10330106432E+01  0.10329529305E+01 0.  0.
     999903    2    3    3    0    0 -0.14514223207E-01 -0.11882216680E+00 -0.63959553773E-01  0.14299434620E+00  0.45024310390E-01 0.  0.
         14    1    1    2    0    0  0.34338812688E-02  0.70706021908E-02 -0.75794060967E-02  0.10919356789E-01  0.00000000000E+00 0. -1.
     999901    1    3    3    0    0  0.11080341938E-01  0.11175156461E+00  0.71538959870E-01  0.89001629701E+00  0.88000000000E+00 0.  1.
        -11    1    4    4    0    0 -0.13651735753E-01 -0.70056484983E-01 -0.61399608445E-01  0.94151229495E-01  0.51100000000E-03 0.  1.
         11    1    4    4    0    0 -0.86248745410E-03 -0.48765681821E-01 -0.25599453285E-02  0.48843116702E-01  0.51100000000E-03 0. -1.
</event>
<event>
 8    1  0.2943605E+004  0.1043930E+01  0.7957747E-01            NaN
         13   -1    0    0    0    0  0.00000000000E+00  0.00000000000E+00  0.74505805969E-08  0.10566000000E+00  0.10566000000E+00 0.  1.
     999900   -1    0    0    0    0 -0.00000000000E+00 -0.00000000000E+00 -0.74505805969E-08  0.93827000000E+00  0.93827000000E+00 0. -1.
     999902    2    1    2    0    0 -0.78474361731E-02  0.72683401654E-02  0.10175797128E-01  0.10291666037E+01  0.10290607078E+01 0.  0.
     999903    2    3    3    0    0  0.33143581645E-04  0.13178024533E+00 -0.13982310095E-01  0.14003841709E+00  0.45268301367E-01 0.  0.
         14    1    1    2    0    0  0.78474361731E-02 -0.72683401654E-02 -0.10175797128E-01  0.14763396304E-01  0.00000000000E+00 0. -1.
     999901    1    3    3    0    0 -0.78805797547E-02 -0.12451190517E+00  0.24158107223E-01  0.88912818660E+00  0.88000000000E+00 0. -1.
        -11    1    4    4    0    0  0.19962932245E-01  0.98803149425E-01 -0.10499532534E-01  0.10134634825E+00  0.51100000000E-03 0.  1.
         11    1    4    4    0    0 -0.19929788663E-01  0.32977095906E-01 -0.34827775615E-02  0.38692068839E-01  0.51100000000E-03 0. -1.
</event>
<event>
 8    1  0.2943605E+004  0.1043930E+01  0.7957747E-01            NaN
         13   -1    0    0    0    0  0.00000000000E+00  0.00000000000E+00  0.74505805969E-08  0.10566000000E+00  0.10566000000E+00 0. -1.
     999900   -1    0    0    0    0 -0.00000000000E+00 -0.00000000000E+00 -0.74505805969E-08  0.93827000000E+00  0.93827000000E+00 0. -1.
     999902    2    1    2    0    0 -0.74316608309E-02 -0.90184653620E-02 -0.84511187441E-02  0.10295083597E+01  0.10294073436E+01 0.  0.
     999903    2    3    3    0    0 -0.94075541360E-01 -0.49749262293E-01 -0.82019269059E-01  0.14126378046E+00  0.43624518247E-01 0.  0.
         14    1    1    2    0    0  0.74316608309E-02  0.90184653620E-02  0.84511187441E-02  0.14421640275E-01  0.00000000000E+00 0.  1.
     999901    1    3    3    0    0  0.86643880529E-01  0.40730796931E-01  0.73568150315E-01  0.88824457926E+00  0.88000000000E+00 0. -1.
        -11    1    4    4    0    0 -0.53785008056E-01 -0.40951224741E-01 -0.27690582181E-01  0.73053811413E-01  0.51100000000E-03 0. -1.
         11    1    4    4    0    0 -0.40290533304E-01 -0.87980375515E-02 -0.54328686878E-01  0.68209969048E-01  0.51100000000E-03 0.  1.
</event>
<event>
 8    1  0.2943605E+004  0.1043930E+01  0.7957747E-01            NaN
         13   -1    0    0    0    0  0.00000000000E+00  0.00000000000E+00  0.74505805969E-08  0.10566000000E+00  0.10566000000E+00 0. -1.
     999900   -1    0    0    0    0 -0.00000000000E+00 -0.00000000000E+00 -0.74505805969E-08  0.93827000000E+00  0.93827000000E+00 0.  1.
     999902    2    1    2    0    0 -0.50500541272E-02 -0.69730588049E-03  0.12389127869E-01  0.10305329939E+01  0.10304459092E+01 0.  0.
     999903    2    3    3    0    0  0.79766352216E-01 -0.10605009040E+00  0.30289149922E-02  0.14015069089E+00  0.44986100196E-01 0.  0.
         14    1    1    2    0    0  0.50500541272E-02  0.69730588049E-03 -0.12389127869E-01  0.13397006066E-01  0.00000000000E+00 0. -1.
     999901    1    3    3    0    0 -0.84816406343E-01  0.10535278452E+00  0.93602128764E-02  0.89038230305E+00  0.88000000000E+00 0. -1.
        -11    1    4    4    0    0  0.11789212864E-01 -0.65930950656E-03 -0.79724821051E-02  0.14256290573E-01  0.51100000000E-03 0.  1.
         11    1    4    4    0    0  0.67977139352E-01 -0.10539078089E+00  0.11001397097E-01  0.12589440032E+00  0.51100000000E-03 0. -1.
</event>
<event>
 8    1  0.2943605E+004  0.1043930E+01  0.7957747E-01            NaN
         13   -1    0    0    0    0  0.00000000000E+00  0.00000000000E+00  0.74505805969E-08  0.10566000000E+00  0.10566000000E+00 0. -1.
     999900   -1    0    0    0    0 -0.00000000000E+00 -0.00000000000E+00 -0.74505805969E-08  0.93827000000E+00  0.93827000000E+00 0. -1.
     999902    2    1    2    0    0 -0.16786730977E-02 -0.83149750662E-02  0.12926942983E-01  0.10284683504E+01  0.10283521212E+01 0.  0.
     999903    2    3    3    0    0 -0.74175850619E-01 -0.47956094954E-01  0.93991116433E-01  0.14088812340E+00  0.56685884379E-01 0.  0.
         14    1    1    2    0    0  0.16786730977E-02  0.83149750662E-02 -0.12926942983E-01  0.15461649608E-01  0.00000000000E+00 0.  1.
     999901    1    3    3    0    0  0.72497177521E-01  0.39641119888E-01 -0.81064173450E-01  0.88758022699E+00  0.88000000000E+00 0.  1.
        -11    1    4    4    0    0 -0.57970770365E-01 -0.42267004072E-01  0.35737303506E-01  0.80153139881E-01  0.51100000000E-03 0. -1.
         11    1    4    4    0    0 -0.16205080254E-01 -0.56890908815E-02  0.58253812927E-01  0.60734983516E-01  0.51100000000E-03 0.  1.
</event>
<event>
 8    1  0.2943605E+004  0.1043930E+01  0.7957747E-01            NaN
         13   -1    0    0    0    0  0.00000000000E+00  0.00000000000E+00  0.74505805969E-08  0.10566000000E+00  0.10566000000E+00 0.  1.
     999900   -1    0    0    0    0 -0.00000000000E+00 -0.00000000000E+00 -0.74505805969E-08  0.93827000000E+00  0.93827000000E+00 0.  1.
     999902    2    1    2    0    0 -0.53595624322E-02  0.92263691835E-02  0.96885843270E-02  0.10295175240E+01  0.10294166371E+01 0.  0.
     999903    2    3    3    0    0  0.92036946359E-01  0.91139094236E-02  0.94228987908E-01  0.14011706730E+00  0.46902319191E-01 0.  0.
         14    1    1    2    0    0  0.53595624322E-02 -0.92263691835E-02 -0.96885843270E-02  0.14412475986E-01  0.00000000000E+00 0. -1.
     999901    1    3    3    0    0 -0.97396508792E-01  0.11245975982E-03 -0.84540403581E-01  0.88940045672E+00  0.88000000000E+00 0.  1.
        -11    1    4    4    0    0  0.49146531669E-02 -0.54547449728E-03  0.32566532101E-01  0.32943762570E-01  0.51100000000E-03 0.  1.
         11    1    4    4    0    0  0.87122293193E-01  0.96593839209E-02  0.61662455807E-01  0.10717330473E+00  0.51100000000E-03 0. -1.
</event>
<event>
 8    1  0.2943605E+004  0.1043930E+01  0.7957747E-01            NaN
         13   -1    0    0    0    0  0.00000000000E+00  0.00000000000E+00  0.74505805969E-08  0.10566000000E+00  0.10566000000E+00 0. -1.
     999900   -1    0    0    0    0 -0.00000000000E+00 -0.00000000000E+00 -0.74505805969E-08  0.93827000000E+00  0.93827000000E+00 0. -1.
     999902    2    1    2    0    0 -0.65850725888E-02  0.11051300157E-01 -0.56947987622E-02  0.10298614127E+01  0.10297653151E+01 0.  0.
     999903    2    3    3    0    0  0.13120742883E+00  0.10916045414E-01  0.93677798970E-03  0.13911410309E+00  0.44914437513E-01 0.  0.
         14    1    1    2    0    0  0.65850725888E-02 -0.11051300157E-01  0.56947987622E-02  0.14068587317E-01  0.00000000000E+00 0.  1.
     999901    1    3    3    0    0 -0.13779250142E+00  0.13525474314E-03 -0.66315767519E-02  0.89074730960E+00  0.88000000000E+00 0. -1.
        -11    1    4    4    0    0  0.28557219530E-01 -0.21381950878E-02 -0.18124947716E-01  0.33894859732E-01  0.51100000000E-03 0. -1.
         11    1    4    4    0    0  0.10265020930E+00  0.13054240502E-01  0.19061725706E-01  0.10521924336E+00  0.51100000000E-03 0.  1.
</event>
<event>
 8    1  0.2943605E+004  0.1043930E+01  0.7957747E-01            NaN
         13   -1    0    0    0    0  0.00000000000E+00  0.00000000000E+00  0.74505805969E-08  0.10566000000E+00  0.10566000000E+00 0.  1.
     999900   -1    0    0    0    0 -0.00000000000E+00 -0.00000000000E+00 -0.74505805969E-08  0.93827000000E+00  0.93827000000E+00 0.  1.
     999902    2    1    2    0    0  0.13496286825E-01 -0.41441515146E-02  0.34553418883E-03  0.10298075659E+01  0.10297107262E+01 0.  0.
     999903    2    3    3    0    0  0.86834184403E-01 -0.84610310215E-01 -0.56891891721E-01  0.14125291211E+00  0.44906766318E-01 0.  0.
         14    1    1    2    0    0 -0.13496286825E-01  0.41441515146E-02 -0.34553418883E-03  0.14122434057E-01  0.00000000000E+00 0. -1.
     999901    1    3    3    0    0 -0.73337897579E-01  0.80466158701E-01  0.57237425910E-01  0.88855465383E+00  0.88000000000E+00 0. -1.
        -11    1    4    4    0    0  0.53977640852E-01 -0.21448220176E-01 -0.26202648836E-01  0.63721674395E-01  0.51100000000E-03 0. -1.
         11    1    4    4    0    0  0.32856543551E-01 -0.63162090039E-01 -0.30689242885E-01  0.77531237718E-01  0.51100000000E-03 0.  1.
</event>
<event>
 8    1  0.2943605E+004  0.1043930E+01  0.7957747E-01            NaN
         13   -1    0    0    0    0  0.00000000000E+00  0.00000000000E+00  0.74505805969E-08  0.10566000000E+00  0.10566000000E+00 0.  1.
     999900   -1    0    0    0    0 -0.00000000000E+00 -0.00000000000E+00 -0.74505805969E-08  0.93827000000E+00  0.93827000000E+00 0. -1.
     999902    2    1    2    0    0 -0.94309481283E-02 -0.11379151967E-01  0.14801359981E-01  0.10230133048E+01  0.10227994494E+01 0.  0.
     999903    2    3    3    0    0 -0.56030458744E-01  0.75819301633E-01 -0.81148530164E-01  0.13229367092E+00  0.45039456162E-01 0.  0.
         14    1    1    2    0    0  0.94309481283E-02  0.11379151967E-01 -0.14801359981E-01  0.20916695231E-01  0.00000000000E+00 0. -1.
     999901    1    3    3    0    0  0.46599510616E-01 -0.87198453600E-01  0.95949890145E-01  0.89071963385E+00  0.88000000000E+00 0.  1.
        -11    1    4    4    0    0 -0.30269209427E-01  0.39565211177E-01 -0.13996022218E-01  0.51747277549E-01  0.51100000000E-03 0. -1.
         11    1    4    4    0    0 -0.25761249317E-01  0.36254090456E-01 -0.67152507946E-01  0.80546393374E-01  0.51100000000E-03 0.  1.
</event>
<event>
 7    1  0.2943605E+004  0.1043930E+01  0.7957747E-01            NaN
         13   -1    0    0    0    0  0.00000000000E+00  0.00000000000E+00  0.74505805969E-08  0.10566000000E+00  0.10566000000E+00 0.  1.
     999900   -1    0    0    0    0 -0.00000000000E+00 -0.00000000000E+00 -0.74505805969E-08  0.93827000000E+00  0.93827000000E+00 0.  1.
     999903    2    1    2    0    0 -0.15162887984E-01 -0.99947461007E-01  0.29267622919E-01  0.11439292043E+00  0.44830105492E-01 0.  0.
         14    1    1    2    0    0  0.39778183543E-01  0.21065146065E-01 -0.54997559595E-02  0.45346351345E-01  0.00000000000E+00 0. -1.
     999901    1    1    2    0    0 -0.24615295559E-01  0.78882314942E-01 -0.23767866959E-01  0.88419072823E+00  0.88000000000E+00 0.  1.
        -11    1    3    3    0    0 -0.13740122132E-01 -0.56165687159E-01  0.38701908388E-01  0.69580702815E-01  0.51100000000E-03 0.  1.
         11    1    3    3    0    0 -0.14227658518E-02 -0.43781773848E-01 -0.94342854691E-02  0.44812217611E-01  0.51100000000E-03 0. -1.
</event>
<event>
 8    1  0.2943605E+004  0.1043930E+01  0.7957747E-01            NaN
         13   -1    0    0    0    0  0.00000000000E+00  0.00000000000E+00  0.74505805969E-08  0.10566000000E+00  0.10566000000E+00 0.  1.
     999900   -1    0    0    0    0 -0.00000000000E+00 -0.00000000000E+00 -0.74505805969E-08  0.93827000000E+00  0.93827000000E+00 0. -1.
     999902    2    1    2    0    0  0.57617318398E-02  0.99468142975E-02  0.76726008744E-02  0.10301095270E+01  0.10300168116E+01 0.  0.
     999903    2    3    3    0    0  0.68353117476E-01 -0.11199896305E-01 -0.11231484966E+00  0.13951318009E+00  0.45295867577E-01 0.  0.
         14    1    1    2    0    0 -0.57617318398E-02 -0.99468142975E-02 -0.76726008744E-02  0.13820472953E-01  0.00000000000E+00 0. -1.
     999901    1    3    3    0    0 -0.62591385636E-01  0.21146710603E-01  0.11998745053E+00  0.89059634696E+00  0.88000000000E+00 0.  1.
        -11    1    4    4    0    0  0.70751384758E-03  0.11165363321E-01 -0.19730471151E-01  0.22687408992E-01  0.51100000000E-03 0.  1.
         11    1    4    4    0    0  0.67645603628E-01 -0.22365259626E-01 -0.92584378507E-01  0.11682577110E+00  0.51100000000E-03 0. -1.
</event>
<event>
 8    1  0.2943605E+004  0.1043930E+01  0.7957747E-01            NaN
         13   -1    0    0    0    0  0.00000000000E+00  0.00000000000E+00  0.74505805969E-08  0.10566000000E+00  0.10566000000E+00 0.  1.
     999900   -1    0    0    0    0 -0.00000000000E+00 -0.00000000000E+00 -0.74505805969E-08  0.93827000000E+00  0.93827000000E+00 0. -1.
     999902    2    1    2    0    0  0.13021078008E-01  0.23058168739E-02  0.78704646523E-02  0.10285413848E+01  0.10284262593E+01 0.  0.
     999903    2    3    3    0    0  0.42230207362E-01 -0.11476280824E+00 -0.47162697543E-01  0.13860493473E+00  0.45090080089E-01 0.  0.
         14    1    1    2    0    0 -0.13021078008E-01 -0.23058168739E-02 -0.78704646523E-02  0.15388615201E-01  0.00000000000E+00 0. -1.
     999901    1    3    3    0    0 -0.29209129354E-01  0.11706862511E+00  0.55033162195E-01  0.88993645007E+00  0.88000000000E+00 0.  1.
        -11    1    4    4    0    0  0.12810098440E-01 -0.46631830992E-01  0.39037306027E-02  0.48519341683E-01  0.51100000000E-03 0.  1.
         11    1    4    4    0    0  0.29420108922E-01 -0.68130977249E-01 -0.51066428146E-01  0.90085593046E-01  0.51100000000E-03 0. -1.
</event>
<event>
 8    1  0.2943605E+004  0.1043930E+01  0.7957747E-01            NaN
         13   -1    0    0    0    0  0.00000000000E+00  0.00000000000E+00  0.74505805969E-08  0.10566000000E+00  0.10566000000E+00 0. -1.
     999900   -1    0    0    0    0 -0.00000000000E+00 -0.00000000000E+00 -0.74505805969E-08  0.93827000000E+00  0.93827000000E+00 0. -1.
     999902    2    1    2    0    0 -0.18613755935E-02  0.18846582737E-01 -0.12555863465E-02  0.10249501450E+01  0.10247743970E+01 0.  0.
     999903    2    3    3    0    0 -0.43827265619E-01 -0.79343721503E-02  0.11999571070E+00  0.13524219710E+00  0.43677200181E-01 0.  0.
         14    1    1    2    0    0  0.18613755935E-02 -0.18846582737E-01  0.12555863465E-02  0.18979855032E-01  0.00000000000E+00 0. -1.
     999901    1    3    3    0    0  0.41965890025E-01  0.26780954887E-01 -0.12125129705E+00  0.88970794787E+00  0.88000000000E+00 0. -1.
        -11    1    4    4    0    0 -0.10892285198E-01 -0.15117376548E-01  0.12150222426E-01  0.22250078124E-01  0.51100000000E-03 0.  1.
         11    1    4    4    0    0 -0.32934980421E-01  0.71830043978E-02  0.10784548827E+00  0.11299211897E+00  0.51100000000E-03 0. -1.
</event>
<event>
 8    1  0.2943605E+004  0.1043930E+01  0.7957747E-01            NaN
         13   -1    0    0    0    0  0.00000000000E+00  0.00000000000E+00  0.74505805969E-08  0.10566000000E+00  0.10566000000E+00 0.  1.
     999900   -1    0    0    0    0 -0.00000000000E+00 -0.00000000000E+00 -0.74505805969E-08  0.93827000000E+00  0.93827000000E+00 0. -1.
     999902    2    1    2    0    0  0.92562774617E-02  0.79669469071E-02  0.54720727096E-02  0.10305473809E+01  0.10304604843E+01 0.  0.
     999903    2    3    3    0    0 -0.79812458030E-01  0.10135709229E+00  0.33502982103E-01  0.14069307212E+00  0.45042225950E-01 0.  0.
         14    1    1    2    0    0 -0.92562774617E-02 -0.79669469071E-02 -0.54720727096E-02  0.13382619146E-01  0.00000000000E+00 0.  1.
     999901    1    3    3    0    0  0.89068735492E-01 -0.93390145379E-01 -0.28030909394E-01  0.88985430874E+00  0.88000000000E+00 0.  1.
        -11    1    4    4    0    0 -0.44047985680E-02  0.15254385805E-01  0.19851912199E-01  0.25425539831E-01  0.51100000000E-03 0.  1.
         11    1    4    4    0    0 -0.75407659462E-01  0.86102706481E-01  0.13651069904E-01  0.11526753229E+00  0.51100000000E-03 0. -1.
</event>
<event>
 8    1  0.2943605E+004  0.1043930E+01  0.7957747E-01            NaN
         13   -1    0    0    0    0  0.00000000000E+00  0.00000000000E+00  0.74505805969E-08  0.10566000000E+00  0.10566000000E+00 0. -1.
     999900   -1    0    0    0    0 -0.00000000000E+00 -0.00000000000E+00 -0.74505805969E-08  0.93827000000E+00  0.93827000000E+00 0. -1.
     999902    2    1    2    0    0  0.83126712718E-03 -0.11775904673E-01 -0.62326362902E-02  0.10305805172E+01  0.10304940532E+01 0.  0.
     999903    2    3    3    0    0  0.63458140201E-01 -0.28503303165E-01 -0.11467363402E+00  0.14155780597E+00  0.45268048803E-01 0.  0.
         14    1    1    2    0    0 -0.83126712718E-03  0.11775904673E-01  0.62326362902E-02  0.13349482800E-01  0.00000000000E+00 0.  1.
     999901    1    3    3    0    0 -0.62626873074E-01  0.16727398492E-01  0.10844099773E+00  0.88902271123E+00  0.88000000000E+00 0.  1.
        -11    1    4    4    0    0  0.29469360617E-01 -0.13834951237E-01 -0.16225062189E-01  0.36378054579E-01  0.51100000000E-03 0. -1.
         11    1    4    4    0    0  0.33988779584E-01 -0.14668351927E-01 -0.98448571833E-01  0.10517975139E+00  0.51100000000E-03 0.  1.
</event>
<event>
 8    1  0.2943605E+004  0.1043930E+01  0.7957747E-01            NaN
         13   -1    0    0    0    0  0.00000000000E+00  0.00000000000E+00  0.74505805969E-08  0.10566000000E+00  0.10566000000E+00 0.  1.
     999900   -1    0    0    0    0 -0.00000000000E+00 -0.00000000000E+00 -0.74505805969E-08  0.93827000000E+00  0.93827000000E+00 0.  1.
     999902    2    1    2    0    0  0.18391410564E-01 -0.17521118801E-02 -0.11164159256E-02  0.10254216164E+01  0.10252545689E+01 0.  0.
     999903    2    3    3    0    0 -0.12004563358E+00 -0.36279344895E-01 -0.96641267055E-02  0.13388922307E+00  0.45888818912E-01 0.  0.
         14    1    1    2    0    0 -0.18391410564E-01  0.17521118801E-02  0.11164159256E-02  0.18508383589E-01  0.00000000000E+00 0.  1.
     999901    1    3    3    0    0  0.13843704415E+00  0.34527233015E-01  0.85477107799E-02  0.89153239334E+00  0.88000000000E+00 0. -1.
        -11    1    4    4    0    0 -0.45771861484E-01 -0.37208360961E-01 -0.61313159731E-04  0.58989747494E-01  0.51100000000E-03 0.  1.
         11    1    4    4    0    0 -0.74273772101E-01  0.92901606606E-03 -0.96028135458E-02  0.74899475578E-01  0.51100000000E-03 0. -1.
</event>
<event>
 8    1  0.2943605E+004  0.1043930E+01  0.7957747E-01            NaN
         13   -1    0    0    0    0  0.00000000000E+00  0.00000000000E+00  0.74505805969E-08  0.10566000000E+00  0.10566000000E+00 0. -1.
     999900   -1    0    0    0    0 -0.00000000000E+00 -0.00000000000E+00 -0.74505805969E-08  0.93827000000E+00  0.93827000000E+00 0. -1.
     999902    2    1    2    0    0  0.56161110103E-02 -0.13953349036E-01 -0.14323171088E-02  0.10288207914E+01  0.10287098389E+01 0.  0.
     999903    2    3    3    0    0 -0.27353086908E-01  0.12571505517E+00  0.13737277213E-01  0.13706726730E+00  0.45235566982E-01 0.  0.
         14    1    1    2    0    0 -0.56161110103E-02  0.13953349036E-01  0.14323171088E-02  0.15109208599E-01  0.00000000000E+00 0.  1.
     999901    1    3    3    0    0  0.32969197919E-01 -0.13966840421E+00 -0.15169594322E-01  0.89175352410E+00  0.88000000000E+00 0.  1.
        -11    1    4    4    0    0 -0.15641083189E-01  0.42992650731E-01  0.25998917627E-01  0.52623344050E-01  0.51100000000E-03 0.  1.
         11    1    4    4    0    0 -0.11712003720E-01  0.82722404443E-01 -0.12261640414E-01  0.84443923255E-01  0.51100000000E-03 0. -1.
</event>
<event>
 8    1  0.2943605E+004  0.1043930E+01  0.7957747E-01            NaN
         13   -1    0    0    0    0  0.00000000000E+00  0.00000000000E+00  0.74505805969E-08  0.10566000000E+00  0.10566000000E+00 0. -1.
     999900   -1    0    0    0    0 -0.00000000000E+00 -0.00000000000E+00 -0.74505805969E-08  0.93827000000E+00  0.93827000000E+00 0. -1.
     999902    2    1    2    0    0 -0.19638351768E-02 -0.47165746720E-02  0.12929909665E-01  0.10300272920E+01  0.10299334624E+01 0.  0.
     999903    2    3    3    0    0  0.82047367000E-01 -0.33576989841E-01  0.10031832482E+00  0.14124861273E+00  0.45035759401E-01 0.  0.
         14    1    1    2    0    0  0.19638351768E-02  0.47165746720E-02 -0.12929909665E-01  0.13902707980E-01  0.00000000000E+00 0.  1.
     999901    1    3    3    0    0 -0.84011202177E-01  0.28860415169E-01 -0.87388415158E-01  0.88877867929E+00  0.88000000000E+00 0. -1.
        -11    1    4    4    0    0  0.38574322060E-01 -0.33515336441E-01  0.75555748697E-01  0.91215066635E-01  0.51100000000E-03 0. -1.
         11    1    4    4    0    0  0.43473044940E-01 -0.61653399558E-04  0.24762576126E-01  0.50033546096E-01  0.51100000000E-03 0.  1.
</event>
<event>
 8    1  0.2943605E+004  0.1043930E+01  0.7957747E-01            NaN
         13   -1    0    0    0    0  0.00000000000E+00  0.00000000000E+00  0.74505805969E-08  0.10566000000E+00  0.10566000000E+00 0. -1.
     999900   -1    0    0    0    0 -0.00000000000E+00 -0.00000000000E+00 -0.74505805969E-08  0.93827000000E+00  0.93827000000E+00 0. -1.
     999902    2    1    2    0    0  0.11962810283E-01  0.65656499060E-02  0.39035857723E-02  0.10297365307E+01  0.10296387076E+01 0.  0.
     999903    2    3    3    0    0  0.11591677207E+00  0.13106960680E-01  0.65862743588E-01  0.14143019157E+00  0.45344323007E-01 0.  0.
         14    1    1    2    0    0 -0.11962810283E-01 -0.65656499060E-02 -0.39035857723E-02  0.14193469289E-01  0.00000000000E+00 0.  1.
     999901    1    3    3    0    0 -0.10395396179E+00 -0.65413107737E-02 -0.61959157816E-01  0.88830633914E+00  0.88000000000E+00 0. -1.
        -11    1    4    4    0    0  0.29861513857E-01  0.17063889334E-01  0.24959926770E-02  0.34487351732E-01  0.51100000000E-03 0. -1.
         11    1    4    4    0    0  0.86055258215E-01 -0.39569286541E-02  0.63366750911E-01  0.10694283984E+00  0.51100000000E-03 0.  1.
</event>
<event>
 8    1  0.2943605E+004  0.1043930E+01  0.7957747E-01            NaN
         13   -1    0    0    0    0  0.00000000000E+00  0.00000000000E+00  0.74505805969E-08  0.10566000000E+00  0.10566000000E+00 0. -1.
     999900   -1    0    0    0    0 -0.00000000000E+00 -0.00000000000E+00 -0.74505805969E-08  0.93827000000E+00  0.93827000000E+00 0.  1.
     999902    2    1    2    0    0 -0.10747821138E-01  0.48299553628E-02  0.72864143134E-02  0.10300759045E+01  0.10299827344E+01 0.  0.
     999903    2    3    3    0    0 -0.23013924395E-01 -0.77287715439E-01  0.10629258003E+00  0.14064013393E+00  0.44480366794E-01 0.  0.
         14    1    1    2    0    0  0.10747821138E-01 -0.48299553628E-02 -0.72864143134E-02  0.13854095480E-01  0.00000000000E+00 0.  1.
     999901    1    3    3    0    0  0.12266103256E-01  0.82117670801E-01 -0.99006165716E-01  0.88943577059E+00  0.88000000000E+00 0.  1.
        -11    1    4    4    0    0 -0.28109102161E-01 -0.59539407319E-01  0.53915605818E-01  0.85101212212E-01  0.51100000000E-03 0. -1.
         11    1    4    4    0    0  0.50951777668E-02 -0.17748308119E-01  0.52376974211E-01  0.55538921723E-01  0.51100000000E-03 0.  1.
</event>
<event>
 8    1  0.2943605E+004  0.1043930E+01  0.7957747E-01            NaN
         13   -1    0    0    0    0  0.00000000000E+00  0.00000000000E+00  0.74505805969E-08  0.10566000000E+00  0.10566000000E+00 0.  1.
     999900   -1    0    0    0    0 -0.00000000000E+00 -0.00000000000E+00 -0.74505805969E-08  0.93827000000E+00  0.93827000000E+00 0. -1.
     999902    2    1    2    0    0 -0.71567916569E-02 -0.10560147539E-01  0.42836689227E-02  0.10304731727E+01  0.10303853033E+01 0.  0.
     999903    2    3    3    0    0 -0.40608953102E-01  0.12557921789E+00  0.66416505829E-02  0.13937355196E+00  0.44290500384E-01 0.  0.
         14    1    1    2    0    0  0.71567916569E-02  0.10560147539E-01 -0.42836689227E-02  0.13456827349E-01  0.00000000000E+00 0. -1.
     999901    1    3    3    0    0  0.33452161446E-01 -0.13613936543E+00 -0.23579816603E-02  0.89109962069E+00  0.88000000000E+00 0. -1.
        -11    1    4    4    0    0 -0.32105928316E-01  0.79961158403E-01 -0.16156883215E-01  0.87669170650E-01  0.51100000000E-03 0. -1.
         11    1    4    4    0    0 -0.85030247863E-02  0.45618059488E-01  0.22798533798E-01  0.51704381306E-01  0.51100000000E-03 0.  1.
</event>
<event>
 8    1  0.2943605E+004  0.1043930E+01  0.7957747E-01            NaN
         13   -1    0    0    0    0  0.00000000000E+00  0.00000000000E+00  0.74505805969E-08  0.10566000000E+00  0.10566000000E+00 0. -1.
     999900   -1    0    0    0    0 -0.00000000000E+00 -0.00000000000E+00 -0.74505805969E-08  0.93827000000E+00  0.93827000000E+00 0. -1.
     999902    2    1    2    0    0 -0.48306763664E-02 -0.10952878033E-01 -0.67992163494E-02  0.10301629991E+01  0.10300710045E+01 0.  0.
     999903    2    3    3    0    0  0.14429169762E-01 -0.70053375466E-01  0.11162306305E+00  0.14005758581E+00  0.45174581180E-01 0.  0.
         14    1    1    2    0    0  0.48306763664E-02  0.10952878033E-01  0.67992163494E-02  0.13767000920E-01  0.00000000000E+00 0. -1.
     999901    1    3    3    0    0 -0.19259846128E-01  0.59100497434E-01 -0.11842227940E+00  0.89010541327E+00  0.88000000000E+00 0. -1.
        -11    1    4    4    0    0  0.27306070775E-01 -0.54950232027E-01  0.65030450439E-01  0.89411241499E-01  0.51100000000E-03 0. -1.
         11    1    4    4    0    0 -0.12876901013E-01 -0.15103143439E-01  0.46592612611E-01  0.50646344314E-01  0.51100000000E-03 0.  1.
</event>
<event>
 8    1  0.2943605E+004  0.1043930E+01  0.7957747E-01            NaN
         13   -1    0    0    0    0  0.00000000000E+00  0.00000000000E+00  0.74505805969E-08  0.10566000000E+00  0.10566000000E+00 0. -1.
     999900   -1    0    0    0    0 -0.00000000000E+00 -0.00000000000E+00 -0.74505805969E-08  0.93827000000E+00  0.93827000000E+00 0.  1.
     999902    2    1    2    0    0 -0.68356280802E-02 -0.60252808588E-02 -0.11740139202E-01  0.10290686175E+01  0.10289613010E+01 0.  0.
     999903    2    3    3    0    0 -0.99508673263E-01  0.71876911718E-01 -0.49665155524E-01  0.13997056231E+00  0.45352664184E-01 0.  0.
         14    1    1    2    0    0  0.68356280802E-02  0.60252808588E-02  0.11740139202E-01  0.14861382478E-01  0.00000000000E+00 0. -1.
     999901    1    3    3    0    0  0.92673045183E-01 -0.77902192576E-01  0.37925016321E-01  0.88909805521E+00  0.88000000000E+00 0. -1.
        -11    1    4    4    0    0 -0.94200163616E-01  0.46730311653E-01 -0.39621107118E-01  0.11237208774E+00  0.51100000000E-03 0.  1.
         11    1    4    4    0    0 -0.53085096464E-02  0.25146600065E-01 -0.10044048406E-01  0.27598474575E-01  0.51100000000E-03 0. -1.
</event>
<event>
 8    1  0.2943605E+004  0.1043930E+01  0.7957747E-01            NaN
         13   -1    0    0    0    0  0.00000000000E+00  0.00000000000E+00  0.74505805969E-08  0.10566000000E+00  0.10566000000E+00 0. -1.
     999900   -1    0    0    0    0 -0.00000000000E+00 -0.00000000000E+00 -0.74505805969E-08  0.93827000000E+00  0.93827000000E+00 0. -1.
     999902    2    1    2    0    0 -0.19928359506E-02 -0.12867248952E-01 -0.54062470109E-02  0.10298315959E+01  0.10297350878E+01 0.  0.
     999903    2    3    3    0    0 -0.11485696388E+00 -0.53408752135E-01  0.39685105233E-01  0.14055371196E+00  0.46214947932E-01 0.  0.
         14    1    1    2    0    0  0.19928359506E-02  0.12867248952E-01  0.54062470109E-02  0.14098404075E-01  0.00000000000E+00 0. -1.
     999901    1    3    3    0    0  0.11286412793E+00  0.40541503182E-01 -0.45091352244E-01  0.88927788396E+00  0.88000000000E+00 0.  1.
        -11    1    4    4    0    0 -0.26274498798E-01  0.87007892548E-03 -0.61464017113E-02  0.27002698002E-01  0.51100000000E-03 0. -1.
         11    1    4    4    0    0 -0.88582465086E-01 -0.54278831060E-01  0.45831506944E-01  0.11355101396E+00  0.51100000000E-03 0.  1.
</event>
<event>
 8    1  0.2943605E+004  0.1043930E+01  0.7957747E-01            NaN
         13   -1    0    0    0    0  0.00000000000E+00  0.00000000000E+00  0.74505805969E-08  0.10566000000E+00  0.10566000000E+00 0.  1.
     999900   -1    0    0    0    0 -0.00000000000E+00 -0.00000000000E+00 -0.74505805969E-08  0.93827000000E+00  0.93827000000E+00 0. -1.
     999902    2    1    2    0    0 -0.19847902012E-02 -0.73219136628E-02 -0.11561800475E-01  0.10301015857E+01  0.10300087630E+01 0.  0.
     999903    2    3    3    0    0 -0.80292883625E-01 -0.97102921327E-01  0.42176197464E-01  0.14044965418E+00  0.45512077914E-01 0.  0.
         14    1    1    2    0    0  0.19847902012E-02  0.73219136628E-02  0.11561800475E-01  0.13828414300E-01  0.00000000000E+00 0.  1.
     999901    1    3    3    0    0  0.78308093424E-01  0.89781007664E-01 -0.53737997939E-01  0.88965193152E+00  0.88000000000E+00 0. -1.
        -11    1    4    4    0    0 -0.35836140172E-01 -0.15065422255E-01  0.23057838897E-01  0.45200895408E-01  0.51100000000E-03 0.  1.
         11    1    4    4    0    0 -0.44456743454E-01 -0.82037499072E-01  0.19118358567E-01  0.95248758773E-01  0.51100000000E-03 0. -1.
</event>
<event>
 8    1  0.2943605E+004  0.1043930E+01  0.7957747E-01            NaN
         13   -1    0    0    0    0  0.00000000000E+00  0.00000000000E+00  0.74505805969E-08  0.10566000000E+00  0.10566000000E+00 0. -1.
     999900   -1    0    0    0    0 -0.00000000000E+00 -0.00000000000E+00 -0.74505805969E-08  0.93827000000E+00  0.93827000000E+00 0. -1.
     999902    2    1    2    0    0  0.55107134436E-02 -0.80899135695E-02  0.56462931645E-02  0.10326297659E+01  0.10325679339E+01 0.  0.
     999903    2    3    3    0    0  0.25906258835E-01 -0.83478502174E-01  0.10522355803E+00  0.14357687139E+00  0.43617958005E-01 0.  0.
         14    1    1    2    0    0 -0.55107134436E-02  0.80899135695E-02 -0.56462931645E-02  0.11300234100E-01  0.00000000000E+00 0. -1.
     999901    1    3    3    0    0 -0.20395545391E-01  0.75388588605E-01 -0.99577264866E-01  0.88905289451E+00  0.88000000000E+00 0. -1.
        -11    1    4    4    0    0 -0.65809849615E-02 -0.30793985058E-02  0.76015381984E-04  0.72841579857E-02  0.51100000000E-03 0. -1.
         11    1    4    4    0    0  0.32487243796E-01 -0.80399103669E-01  0.10514754265E+00  0.13629271340E+00  0.51100000000E-03 0.  1.
</event>
<event>
 8    1  0.2943605E+004  0.1043930E+01  0.7957747E-01            NaN
         13   -1    0    0    0    0  0.00000000000E+00  0.00000000000E+00  0.74505805969E-08  0.10566000000E+00  0.10566000000E+00 0.  1.
     999900   -1    0    0    0    0 -0.00000000000E+00 -0.00000000000E+00 -0.74505805969E-08  0.93827000000E+00  0.93827000000E+00 0.  1.
     999902    2    1    2    0    0  0.10644443600E-01  0.84254854372E-02  0.17332664496E-02  0.10302443434E+01  0.10301534400E+01 0.  0.
     999903    2    3    3    0    0  0.39523839953E-01  0.12270231767E+00 -0.37674925803E-01  0.14151141413E+00  0.44587976076E-01 0.  0.
         14    1    1    2    0    0 -0.10644443600E-01 -0.84254854372E-02 -0.17332664496E-02  0.13685656615E-01  0.00000000000E+00 0.  1.
     999901    1    3    3    0    0 -0.28879396353E-01 -0.11427683223E+00  0.39408192253E-01  0.88873292925E+00  0.88000000000E+00 0. -1.
        -11    1    4    4    0    0  0.21928361971E-02  0.72300940149E-01 -0.30039793588E-01  0.78325505404E-01  0.51100000000E-03 0.  1.
         11    1    4    4    0    0  0.37331003756E-01  0.50401377518E-01 -0.76351322154E-02  0.63185908730E-01  0.51100000000E-03 0. -1.
</event>
<event>
 8    1  0.2943605E+004  0.1043930E+01  0.7957747E-01            NaN
         13   -1    0    0    0    0  0.00000000000E+00  0.00000000000E+00  0.74505805969E-08  0.10566000000E+00  0.10566000000E+00 0. -1.
     999900   -1    0    0    0    0 -0.00000000000E+00 -0.00000000000E+00 -0.74505805969E-08  0.93827000000E+00  0.93827000000E+00 0. -1.
     999902    2    1    2    0    0 -0.12988298203E-01  0.30198561811E-02 -0.75567346652E-02  0.10286029109E+01  0.10284887110E+01 0.  0.
     999903    2    3    3    0    0 -0.74365293051E-01  0.58951098075E-01 -0.93326446156E-01  0.14054216820E+00  0.45131438207E-01 0.  0.
         14    1    1    2    0    0  0.12988298203E-01 -0.30198561811E-02  0.75567346652E-02  0.15327089102E-01  0.00000000000E+00 0.  1.
     999901    1    3    3    0    0  0.61376994848E-01 -0.55931241894E-01  0.85769711491E-01  0.88806074270E+00  0.88000000000E+00 0.  1.
        -11    1    4    4    0    0 -0.61075946486E-01  0.21135272734E-01 -0.63211276027E-01  0.90404079170E-01  0.51100000000E-03 0.  1.
         11    1    4    4    0    0 -0.13289346565E-01  0.37815825341E-01 -0.30115170129E-01  0.50138089027E-01  0.51100000000E-03 0. -1.
</event>
<event>
 7    1  0.2943605E+004  0.1043930E+01  0.7957747E-01            NaN
         13   -1    0    0    0    0  0.00000000000E+00  0.00000000000E+00  0.74505805969E-08  0.10566000000E+00  0.10566000000E+00 0. -1.
     999900   -1    0    0    0    0 -0.00000000000E+00 -0.00000000000E+00 -0.74505805969E-08  0.93827000000E+00  0.93827000000E+00 0.  1.
     999903    2    1    2    0    0 -0.44422463272E-01  0.53640813797E-01 -0.70341379140E-01  0.10876335474E+00  0.45065125847E-01 0.  0.
         14    1    1    2    0    0 -0.25537407756E-02  0.15346205458E-01  0.48514790774E-01  0.50948135763E-01  0.00000000000E+00 0. -1.
     999901    1    1    2    0    0  0.46976204048E-01 -0.68987019254E-01  0.21826588366E-01  0.88421850949E+00  0.88000000000E+00 0. -1.
        -11    1    3    3    0    0 -0.27782491066E-01  0.50427859451E-01 -0.29826502357E-01  0.64843790624E-01  0.51100000000E-03 0. -1.
         11    1    3    3    0    0 -0.16639972206E-01  0.32129543459E-02 -0.40514876783E-01  0.43919564118E-01  0.51100000000E-03 0.  1.
</event>
<event>
 8    1  0.2943605E+004  0.1043930E+01  0.7957747E-01            NaN
         13   -1    0    0    0    0  0.00000000000E+00  0.00000000000E+00  0.74505805969E-08  0.10566000000E+00  0.10566000000E+00 0.  1.
     999900   -1    0    0    0    0 -0.00000000000E+00 -0.00000000000E+00 -0.74505805969E-08  0.93827000000E+00  0.93827000000E+00 0. -1.
     999902    2    1    2    0    0  0.82074273943E-02  0.68483698398E-02 -0.79530239482E-02  0.10306066137E+01  0.10305204896E+01 0.  0.
     999903    2    3    3    0    0 -0.12403905415E+00 -0.36938889220E-01 -0.26103476865E-01  0.13946358648E+00  0.44928075392E-01 0.  0.
         14    1    1    2    0    0 -0.82074273943E-02 -0.68483698398E-02  0.79530239482E-02  0.13323386349E-01  0.00000000000E+00 0.  1.
     999901    1    3    3    0    0  0.13224648154E+00  0.43787259060E-01  0.18150452917E-01  0.89114302717E+00  0.88000000000E+00 0.  1.
        -11    1    4    4    0    0 -0.35542420598E-01  0.98513470604E-02 -0.76454230034E-02  0.37669965686E-01  0.51100000000E-03 0.  1.
         11    1    4    4    0    0 -0.88496633550E-01 -0.46790236280E-01 -0.18458053861E-01  0.10179362079E+00  0.51100000000E-03 0. -1.
</event>
<event>
 8    1  0.2943605E+004  0.1043930E+01  0.7957747E-01            NaN
         13   -1    0    0    0    0  0.00000000000E+00  0.00000000000E+00  0.74505805969E-08  0.10566000000E+00  0.10566000000E+00 0. -1.
     999900   -1    0    0    0    0 -0.00000000000E+00 -0.00000000000E+00 -0.74505805969E-08  0.93827000000E+00  0.93827000000E+00 0. -1.
     999902    2    1    2    0    0 -0.62301215311E-02  0.42761026217E-02  0.12128955568E-01  0.10296397575E+01  0.10295405865E+01 0.  0.
     999903    2    3    3    0    0 -0.12757604424E+00  0.34202833237E-01 -0.22729773831E-02  0.14069214495E+00  0.48411076832E-01 0.  0.
         14    1    1    2    0    0  0.62301215311E-02 -0.42761026217E-02 -0.12128955568E-01  0.14290242514E-01  0.00000000000E+00 0.  1.
     999901    1    3    3    0    0  0.12134592270E+00 -0.29926730615E-01  0.14401932952E-01  0.88894761254E+00  0.88000000000E+00 0.  1.
        -11    1    4    4    0    0 -0.26440758180E-01  0.28963028281E-01  0.25680560574E-02  0.39304283904E-01  0.51100000000E-03 0. -1.
         11    1    4    4    0    0 -0.10113528606E+00  0.52398049562E-02 -0.48410334405E-02  0.10138786105E+00  0.51100000000E-03 0.  1.
</event>
<event>
 8    1  0.2943605E+004  0.1043930E+01  0.7957747E-01            NaN
         13   -1    0    0    0    0  0.00000000000E+00  0.00000000000E+00  0.74505805969E-08  0.10566000000E+00  0.10566000000E+00 0.  1.
     999900   -1    0    0    0    0 -0.00000000000E+00 -0.00000000000E+00 -0.74505805969E-08  0.93827000000E+00  0.93827000000E+00 0. -1.
     999902    2    1    2    0    0 -0.12029509682E-01  0.46246596718E-02 -0.53093925696E-02  0.10299913405E+01  0.10298970216E+01 0.  0.
     999903    2    3    3    0    0  0.10006712893E-01 -0.86344568599E-01  0.98656638841E-01  0.13894143654E+00  0.44900685630E-01 0.  0.
         14    1    1    2    0    0  0.12029509682E-01 -0.46246596718E-02  0.53093925696E-02  0.13938659538E-01  0.00000000000E+00 0.  1.
     999901    1    3    3    0    0 -0.22036222575E-01  0.90969228271E-01 -0.10396603141E+00  0.89104990393E+00  0.88000000000E+00 0. -1.
        -11    1    4    4    0    0 -0.11019073591E-01 -0.46895690602E-01  0.72801351206E-01  0.87297901683E-01  0.51100000000E-03 0. -1.
         11    1    4    4    0    0  0.21025786484E-01 -0.39448877997E-01  0.25855287634E-01  0.51643534853E-01  0.51100000000E-03 0.  1.
</event>
<event>
 8    1  0.2943605E+004  0.1043930E+01  0.7957747E-01            NaN
         13   -1    0    0    0    0  0.00000000000E+00  0.00000000000E+00  0.74505805969E-08  0.10566000000E+00  0.10566000000E+00 0. -1.
     999900   -1    0    0    0    0 -0.00000000000E+00 -0.00000000000E+00 -0.74505805969E-08  0.93827000000E+00  0.93827000000E+00 0.  1.
     999902    2    1    2    0    0  0.54836977674E-02 -0.17340564117E-02  0.12561309214E-01  0.10301146324E+01  0.10300219859E+01 0.  0.
     999903    2    3    3    0    0 -0.16900656577E-01 -0.77922983439E-01 -0.10421681143E+00  0.13885544373E+00  0.45409987088E-01 0.  0.
         14    1    1    2    0    0 -0.54836977674E-02  0.17340564117E-02 -0.12561309214E-01  0.13815367604E-01  0.00000000000E+00 0.  1.
     999901    1    3    3    0    0  0.22384354344E-01  0.76188927027E-01  0.11677812065E+00  0.89125918867E+00  0.88000000000E+00 0. -1.
        -11    1    4    4    0    0 -0.27041172283E-01 -0.26621793352E-01 -0.31696201127E-01  0.49445476705E-01  0.51100000000E-03 0.  1.
         11    1    4    4    0    0  0.10140515706E-01 -0.51301190086E-01 -0.72520610307E-01  0.89409967024E-01  0.51100000000E-03 0. -1.
</event>
<event>
 8    1  0.2943605E+004  0.1043930E+01  0.7957747E-01            NaN
         13   -1    0    0    0    0  0.00000000000E+00  0.00000000000E+00  0.74505805969E-08  0.10566000000E+00  0.10566000000E+00 0. -1.
     999900   -1    0    0    0    0 -0.00000000000E+00 -0.00000000000E+00 -0.74505805969E-08  0.93827000000E+00  0.93827000000E+00 0.  1.
     999902    2    1    2    0    0  0.95405003459E-02  0.12603892690E-02 -0.92160214273E-02  0.10306054070E+01  0.10305192672E+01 0.  0.
     999903    2    3    3    0    0  0.54041950303E-01 -0.85554158711E-01 -0.88191394022E-01  0.14169919469E+00  0.45397063017E-01 0.  0.
         14    1    1    2    0    0 -0.95405003459E-02 -0.12603892690E-02  0.92160214273E-02  0.13324593011E-01  0.00000000000E+00 0. -1.
     999901    1    3    3    0    0 -0.44501449957E-01  0.86814547980E-01  0.78975372595E-01  0.88890621230E+00  0.88000000000E+00 0. -1.
        -11    1    4    4    0    0  0.97508404903E-02 -0.56577845660E-01 -0.38730884852E-01  0.69256581437E-01  0.51100000000E-03 0.  1.
         11    1    4    4    0    0  0.44291109813E-01 -0.28976313051E-01 -0.49460509170E-01  0.72442613252E-01  0.51100000000E-03 0. -1.
</event>
<event>
 8    1  0.2943605E+004  0.1043930E+01  0.7957747E-01            NaN
         13   -1    0    0    0    0  0.00000000000E+00  0.00000000000E+00  0.74505805969E-08  0.10566000000E+00  0.10566000000E+00 0.  1.
     999900   -1    0    0    0    0 -0.00000000000E+00 -0.00000000000E+00 -0.74505805969E-08  0.93827000000E+00  0.93827000000E+00 0. -1.
     999902    2    1    2    0    0  0.30637256768E-02  0.32898409684E-03  0.13620679138E-01  0.10299651317E+01  0.10298704555E+01 0.  0.
     999903    2    3    3    0    0 -0.88274590015E-01 -0.72303546077E-01 -0.64899220463E-01  0.13879536845E+00  0.45078148469E-01 0.  0.
         14    1    1    2    0    0 -0.30637256768E-02 -0.32898409684E-03 -0.13620679138E-01  0.13964868268E-01  0.00000000000E+00 0. -1.
     999901    1    3    3    0    0  0.91338315691E-01  0.72632530173E-01  0.78519899601E-01  0.89116976328E+00  0.88000000000E+00 0.  1.
        -11    1    4    4    0    0 -0.67413070639E-01 -0.61769449755E-01 -0.28938139286E-01  0.95904452672E-01  0.51100000000E-03 0. -1.
         11    1    4    4    0    0 -0.20861519376E-01 -0.10534096321E-01 -0.35961081177E-01  0.42890915780E-01  0.51100000000E-03 0.  1.
</event>
<event>
 8    1  0.2943605E+004  0.1043930E+01  0.7957747E-01            NaN
         13   -1    0    0    0    0  0.00000000000E+00  0.00000000000E+00  0.74505805969E-08  0.10566000000E+00  0.10566000000E+00 0.  1.
     999900   -1    0    0    0    0 -0.00000000000E+00 -0.00000000000E+00 -0.74505805969E-08  0.93827000000E+00  0.93827000000E+00 0. -1.
     999902    2    1    2    0    0 -0.81738625900E-02 -0.11838943548E-01  0.98939628585E-04  0.10295431170E+01  0.10294425906E+01 0.  0.
     999903    2    3    3    0    0 -0.98990167041E-02  0.89700000777E-01 -0.95029214558E-01  0.13860961829E+00  0.45144146814E-01 0.  0.
         14    1    1    2    0    0  0.81738625900E-02  0.11838943548E-01 -0.98939628585E-04  0.14386883020E-01  0.00000000000E+00 0.  1.
     999901    1    3    3    0    0  0.17251541141E-02 -0.10153894432E+00  0.95128154187E-01  0.89093349869E+00  0.88000000000E+00 0. -1.
        -11    1    4    4    0    0 -0.67229997665E-03  0.91174307469E-01 -0.82428977969E-01  0.12291462020E+00  0.51100000000E-03 0.  1.
         11    1    4    4    0    0 -0.92267167274E-02 -0.14743066924E-02 -0.12600236590E-01  0.15694998086E-01  0.51100000000E-03 0. -1.
</event>
<event>
 8    1  0.2943605E+004  0.1043930E+01  0.7957747E-01            NaN
         13   -1    0    0    0    0  0.00000000000E+00  0.00000000000E+00  0.74505805969E-08  0.10566000000E+00  0.10566000000E+00 0.  1.
     999900   -1    0    0    0    0 -0.00000000000E+00 -0.00000000000E+00 -0.74505805969E-08  0.93827000000E+00  0.93827000000E+00 0. -1.
     999902    2    1    2    0    0  0.13819919218E-01 -0.70038210807E-02 -0.16918780685E-02  0.10283445540E+01  0.10282264418E+01 0.  0.
     999903    2    3    3    0    0  0.68661804132E-01  0.99655806596E-01  0.48655546531E-01  0.13878355454E+00  0.47410860235E-01 0.  0.
         14    1    1    2    0    0 -0.13819919218E-01  0.70038210807E-02  0.16918780685E-02  0.15585446042E-01  0.00000000000E+00 0.  1.
     999901    1    3    3    0    0 -0.54841884914E-01 -0.10665962768E+00 -0.50347424600E-01  0.88956099942E+00  0.88000000000E+00 0.  1.
        -11    1    4    4    0    0  0.30582790356E-01  0.93806828757E-02  0.11577276435E-01  0.34023502580E-01  0.51100000000E-03 0.  1.
         11    1    4    4    0    0  0.38079013777E-01  0.90275123720E-01  0.37078270097E-01  0.10476005196E+00  0.51100000000E-03 0. -1.
</event>
<event>
 8    1  0.2943605E+004  0.1043930E+01  0.7957747E-01            NaN
         13   -1    0    0    0    0  0.00000000000E+00  0.00000000000E+00  0.74505805969E-08  0.10566000000E+00  0.10566000000E+00 0.  1.
     999900   -1    0    0    0    0 -0.00000000000E+00 -0.00000000000E+00 -0.74505805969E-08  0.93827000000E+00  0.93827000000E+00 0. -1.
     999902    2    1    2    0    0 -0.34442617227E-02 -0.77016300420E-02  0.10618996309E-01  0.10303675103E+01  0.10302782465E+01 0.  0.
     999903    2    3    3    0    0  0.12423679358E+00 -0.31416956936E-02 -0.45190544494E-01  0.13939166903E+00  0.44081753062E-01 0.  0.
         14    1    1    2    0    0  0.34442617227E-02  0.77016300420E-02 -0.10618996309E-01  0.13562489695E-01  0.00000000000E+00 0. -1.
     999901    1    3    3    0    0 -0.12768105530E+00 -0.45599343484E-02  0.55809540803E-01  0.89097584127E+00  0.88000000000E+00 0.  1.
        -11    1    4    4    0    0  0.74678930865E-01 -0.23418893019E-01 -0.24976457818E-01  0.82155169232E-01  0.51100000000E-03 0.  1.
         11    1    4    4    0    0  0.49557862716E-01  0.20277197325E-01 -0.20214086676E-01  0.57236499802E-01  0.51100000000E-03 0. -1.
</event>
<event>
 8    1  0.2943605E+004  0.1043930E+01  0.7957747E-01            NaN
         13   -1    0    0    0    0  0.00000000000E+00  0.00000000000E+00  0.74505805969E-08  0.10566000000E+00  0.10566000000E+00 0. -1.
     999900   -1    0    0    0    0 -0.00000000000E+00 -0.00000000000E+00 -0.74505805969E-08  0.93827000000E+00  0.93827000000E+00 0.  1.
     999902    2    1    2    0    0  0.74991674613E-02  0.70156450099E-02  0.57596316313E-02  0.10321558697E+01  0.10320887119E+01 0.  0.
     999903    2    3    3    0    0  0.58569902743E-01  0.10434970145E+00 -0.63700587558E-01  0.14260156525E+00  0.44250964456E-01 0.  0.
         14    1    1    2    0    0 -0.74991674613E-02 -0.70156450099E-02 -0.57596316313E-02  0.11774130288E-01  0.00000000000E+00 0. -1.
     999901    1    3    3    0    0 -0.51070735282E-01 -0.97334056439E-01  0.69460219189E-01  0.88955430447E+00  0.88000000000E+00 0. -1.
        -11    1    4    4    0    0  0.27763084352E-01  0.88851690421E-01 -0.45964225002E-01  0.10381899077E+00  0.51100000000E-03 0. -1.
         11    1    4    4    0    0  0.30806818392E-01  0.15498011028E-01 -0.17736362556E-01  0.38782574475E-01  0.51100000000E-03 0.  1.
</event>
<event>
 8    1  0.2943605E+004  0.1043930E+01  0.7957747E-01            NaN
         13   -1    0    0    0    0  0.00000000000E+00  0.00000000000E+00  0.74505805969E-08  0.10566000000E+00  0.10566000000E+00 0. -1.
     999900   -1    0    0    0    0 -0.00000000000E+00 -0.00000000000E+00 -0.74505805969E-08  0.93827000000E+00  0.93827000000E+00 0.  1.
     999902    2    1    2    0    0 -0.10811999783E-01  0.82705428322E-02 -0.32499893164E-02  0.10299348705E+01  0.10298397807E+01 0.  0.
     999903    2    3    3    0    0 -0.10228773004E+00  0.75883484843E-01 -0.42682158749E-01  0.14173769922E+00  0.45240752825E-01 0.  0.
         14    1    1    2    0    0  0.10811999783E-01 -0.82705428322E-02  0.32499893164E-02  0.13995129460E-01  0.00000000000E+00 0.  1.
     999901    1    3    3    0    0  0.91475730258E-01 -0.67612942011E-01  0.39432169432E-01  0.88819717132E+00  0.88000000000E+00 0. -1.
        -11    1    4    4    0    0 -0.76692702065E-01  0.69902362378E-01 -0.17315671366E-01  0.10520553413E+00  0.51100000000E-03 0. -1.
         11    1    4    4    0    0 -0.25595027976E-01  0.59811224655E-02 -0.25366487382E-01  0.36532165090E-01  0.51100000000E-03 0.  1.
</event>
<event>
 8    1  0.2943605E+004  0.1043930E+01  0.7957747E-01            NaN
         13   -1    0    0    0    0  0.00000000000E+00  0.00000000000E+00  0.74505805969E-08  0.10566000000E+00  0.10566000000E+00 0.  1.
     999900   -1    0    0    0    0 -0.00000000000E+00 -0.00000000000E+00 -0.74505805969E-08  0.93827000000E+00  0.93827000000E+00 0. -1.
     999902    2    1    2    0    0  0.67282395089E-02  0.71448999103E-02 -0.59451835198E-02  0.10324555062E+01  0.10323917416E+01 0.  0.
     999903    2    3    3    0    0  0.15973058157E-01  0.40623806646E-01 -0.12898301622E+00  0.14321728604E+00  0.44374996263E-01 0.  0.
         14    1    1    2    0    0 -0.67282395089E-02 -0.71448999103E-02  0.59451835198E-02  0.11474493832E-01  0.00000000000E+00 0.  1.
     999901    1    3    3    0    0 -0.92448186484E-02 -0.33478906736E-01  0.12303783270E+00  0.88923822013E+00  0.88000000000E+00 0.  1.
        -11    1    4    4    0    0  0.74869299860E-02 -0.85075129585E-02 -0.35493505870E-01  0.37262339933E-01  0.51100000000E-03 0.  1.
         11    1    4    4    0    0  0.84861281713E-02  0.49131319605E-01 -0.93489510349E-01  0.10595494610E+00  0.51100000000E-03 0. -1.
</event>
<event>
 8    1  0.2943605E+004  0.1043930E+01  0.7957747E-01            NaN
         13   -1    0    0    0    0  0.00000000000E+00  0.00000000000E+00  0.74505805969E-08  0.10566000000E+00  0.10566000000E+00 0. -1.
     999900   -1    0    0    0    0 -0.00000000000E+00 -0.00000000000E+00 -0.74505805969E-08  0.93827000000E+00  0.93827000000E+00 0.  1.
     999902    2    1    2    0    0  0.15930380669E-02  0.39380627144E-02  0.13060806435E-01  0.10301957081E+01  0.10301041531E+01 0.  0.
     999903    2    3    3    0    0  0.11413089411E+00 -0.55591557960E-01 -0.37314438295E-01  0.13960814363E+00  0.44517234364E-01 0.  0.
         14    1    1    2    0    0 -0.15930380669E-02 -0.39380627144E-02 -0.13060806435E-01  0.13734291862E-01  0.00000000000E+00 0.  1.
     999901    1    3    3    0    0 -0.11253785604E+00  0.59529620675E-01  0.50375244730E-01  0.89058756451E+00  0.88000000000E+00 0. -1.
        -11    1    4    4    0    0  0.53972351434E-01 -0.21928625598E-01 -0.39914244278E-01  0.70620728949E-01  0.51100000000E-03 0.  1.
         11    1    4    4    0    0  0.60158542673E-01 -0.33662932363E-01  0.25998059831E-02  0.68987414678E-01  0.51100000000E-03 0. -1.
</event>
<event>
 8    1  0.2943605E+004  0.1043930E+01  0.7957747E-01            NaN
         13   -1    0    0    0    0  0.00000000000E+00  0.00000000000E+00  0.74505805969E-08  0.10566000000E+00  0.10566000000E+00 0. -1.
     999900   -1    0    0    0    0 -0.00000000000E+00 -0.00000000000E+00 -0.74505805969E-08  0.93827000000E+00  0.93827000000E+00 0.  1.
     999902    2    1    2    0    0 -0.31945085133E-03 -0.11144786216E-01  0.86632956996E-02  0.10298104745E+01  0.10297136749E+01 0.  0.
     999903    2    3    3    0    0  0.50375309667E-01 -0.11886808260E+00  0.35785803440E-01  0.14137933041E+00  0.45168556016E-01 0.  0.
         14    1    1    2    0    0  0.31945085133E-03  0.11144786216E-01 -0.86632956996E-02  0.14119525524E-01  0.00000000000E+00 0.  1.
     999901    1    3    3    0    0 -0.50694760518E-01  0.10772329639E+00 -0.27122507741E-01  0.88843114407E+00  0.88000000000E+00 0.  1.
        -11    1    4    4    0    0  0.39653995814E-01 -0.77858839528E-01  0.23821245150E-02  0.87409232435E-01  0.51100000000E-03 0. -1.
         11    1    4    4    0    0  0.10721313853E-01 -0.41009243074E-01  0.33403678925E-01  0.53970097971E-01  0.51100000000E-03 0.  1.
</event>
<event>
 8    1  0.2943605E+004  0.1043930E+01  0.7957747E-01            NaN
         13   -1    0    0    0    0  0.00000000000E+00  0.00000000000E+00  0.74505805969E-08  0.10566000000E+00  0.10566000000E+00 0. -1.
     999900   -1    0    0    0    0 -0.00000000000E+00 -0.00000000000E+00 -0.74505805969E-08  0.93827000000E+00  0.93827000000E+00 0. -1.
     999902    2    1    2    0    0 -0.43012944995E-02 -0.66795818709E-02 -0.85122654213E-02  0.10322862630E+01  0.10322205928E+01 0.  0.
     999903    2    3    3    0    0 -0.17488238398E-01 -0.13098374682E+00  0.27235496594E-01  0.14273394673E+00  0.46568517927E-01 0.  0.
         14    1    1    2    0    0  0.43012944995E-02  0.66795818709E-02  0.85122654213E-02  0.11643736984E-01  0.00000000000E+00 0. -1.
     999901    1    3    3    0    0  0.13186943899E-01  0.12430416495E+00 -0.35747762016E-01  0.88955231628E+00  0.88000000000E+00 0.  1.
        -11    1    4    4    0    0 -0.27173216385E-01 -0.60131324170E-01  0.26791595320E-01  0.71219453353E-01  0.51100000000E-03 0.  1.
         11    1    4    4    0    0  0.96849779863E-02 -0.70852422652E-01  0.44390127429E-03  0.71514493382E-01  0.51100000000E-03 0. -1.
</event>
<event>
 8    1  0.2943605E+004  0.1043930E+01  0.7957747E-01            NaN
         13   -1    0    0    0    0  0.00000000000E+00  0.00000000000E+00  0.74505805969E-08  0.10566000000E+00  0.10566000000E+00 0. -1.
     999900   -1    0    0    0    0 -0.00000000000E+00 -0.00000000000E+00 -0.74505805969E-08  0.93827000000E+00  0.93827000000E+00 0. -1.
     999902    2    1    2    0    0 -0.28117273438E-02  0.12956241401E-01  0.46472354047E-02  0.10298812706E+01  0.10297854459E+01 0.  0.
     999903    2    3    3    0    0 -0.12303384062E+00  0.48003141618E-01  0.19942299251E-01  0.14088431854E+00  0.44822632318E-01 0.  0.
         14    1    1    2    0    0  0.28117273438E-02 -0.12956241401E-01 -0.46472354047E-02  0.14048729437E-01  0.00000000000E+00 0.  1.
     999901    1    3    3    0    0  0.12022211327E+00 -0.35046900217E-01 -0.15295063846E-01  0.88899695203E+00  0.88000000000E+00 0.  1.
        -11    1    4    4    0    0 -0.87352702242E-01  0.24001205267E-01  0.32235837412E-01  0.96155929500E-01  0.51100000000E-03 0. -1.
         11    1    4    4    0    0 -0.35681138375E-01  0.24001936350E-01 -0.12293538161E-01  0.44728389036E-01  0.51100000000E-03 0.  1.
</event>
<event>
 8    1  0.2943605E+004  0.1043930E+01  0.7957747E-01            NaN
         13   -1    0    0    0    0  0.00000000000E+00  0.00000000000E+00  0.74505805969E-08  0.10566000000E+00  0.10566000000E+00 0.  1.
     999900   -1    0    0    0    0 -0.00000000000E+00 -0.00000000000E+00 -0.74505805969E-08  0.93827000000E+00  0.93827000000E+00 0.  1.
     999902    2    1    2    0    0 -0.13733842971E-01 -0.97712948715E-03  0.96076982551E-04  0.10301611055E+01  0.10300690855E+01 0.  0.
     999903    2    3    3    0    0  0.44308516579E-01  0.12318519664E+00 -0.14884224334E-01  0.13942567444E+00  0.45608565483E-01 0.  0.
         14    1    1    2    0    0  0.13733842971E-01  0.97712948715E-03 -0.96076982551E-04  0.13768894493E-01  0.00000000000E+00 0. -1.
     999901    1    3    3    0    0 -0.58042359550E-01 -0.12416232613E+00  0.14980301317E-01  0.89073543107E+00  0.88000000000E+00 0. -1.
        -11    1    4    4    0    0  0.29085987633E-01  0.11287064054E+00 -0.13135734778E-02  0.11656655939E+00  0.51100000000E-03 0.  1.
         11    1    4    4    0    0  0.15222528946E-01  0.10314556106E-01 -0.13570650856E-01  0.22859115050E-01  0.51100000000E-03 0. -1.
</event>
<event>
 8    1  0.2943605E+004  0.1043930E+01  0.7957747E-01            NaN
         13   -1    0    0    0    0  0.00000000000E+00  0.00000000000E+00  0.74505805969E-08  0.10566000000E+00  0.10566000000E+00 0.  1.
     999900   -1    0    0    0    0 -0.00000000000E+00 -0.00000000000E+00 -0.74505805969E-08  0.93827000000E+00  0.93827000000E+00 0. -1.
     999902    2    1    2    0    0 -0.10711206004E-01 -0.88188950111E-02 -0.12883570535E-02  0.10299957721E+01  0.10299015137E+01 0.  0.
     999903    2    3    3    0    0  0.11175282798E+00 -0.50399307564E-01  0.48672958381E-01  0.13914084375E+00  0.44298225202E-01 0.  0.
         14    1    1    2    0    0  0.10711206004E-01  0.88188950111E-02  0.12883570535E-02  0.13934227900E-01  0.00000000000E+00 0.  1.
     999901    1    3    3    0    0 -0.12246403399E+00  0.41580412553E-01 -0.49961315434E-01  0.89085492835E+00  0.88000000000E+00 0. -1.
        -11    1    4    4    0    0  0.60853910641E-01 -0.39053090465E-01  0.75018262313E-02  0.72697185867E-01  0.51100000000E-03 0.  1.
         11    1    4    4    0    0  0.50898917343E-01 -0.11346217099E-01  0.41171132150E-01  0.66443657881E-01  0.51100000000E-03 0. -1.
</event>
<event>
 8    1  0.2943605E+004  0.1043930E+01  0.7957747E-01            NaN
         13   -1    0    0    0    0  0.00000000000E+00  0.00000000000E+00  0.74505805969E-08  0.10566000000E+00  0.10566000000E+00 0.  1.
     999900   -1    0    0    0    0 -0.00000000000E+00 -0.00000000000E+00 -0.74505805969E-08  0.93827000000E+00  0.93827000000E+00 0. -1.
     999902    2    1    2    0    0  0.93735593330E-02  0.87888341360E-02  0.63829880035E-02  0.10295825349E+01  0.10294825624E+01 0.  0.
     999903    2    3    3    0    0  0.19650525359E-02  0.37644991250E-01 -0.12634673985E+00  0.13913054602E+00  0.44416251162E-01 0.  0.
         14    1    1    2    0    0 -0.93735593330E-02 -0.87888341360E-02 -0.63829880035E-02  0.14347465138E-01  0.00000000000E+00 0. -1.
     999901    1    3    3    0    0  0.74085067971E-02 -0.28856157114E-01  0.13272972785E+00  0.89045198884E+00  0.88000000000E+00 0.  1.
        -11    1    4    4    0    0 -0.41163960765E-02  0.55812614722E-02 -0.90044901592E-01  0.90313014677E-01  0.51100000000E-03 0.  1.
         11    1    4    4    0    0  0.60814486124E-02  0.32063729778E-01 -0.36301838258E-01  0.48817531343E-01  0.51100000000E-03 0. -1.
</event>
<event>
 8    1  0.2943605E+004  0.1043930E+01  0.7957747E-01            NaN
         13   -1    0    0    0    0  0.00000000000E+00  0.00000000000E+00  0.74505805969E-08  0.10566000000E+00  0.10566000000E+00 0. -1.
     999900   -1    0    0    0    0 -0.00000000000E+00 -0.00000000000E+00 -0.74505805969E-08  0.93827000000E+00  0.93827000000E+00 0.  1.
     999902    2    1    2    0    0  0.83803414388E-02  0.41941325137E-02  0.96756865449E-02  0.10304600416E+01  0.10303719996E+01 0.  0.
     999903    2    3    3    0    0  0.13133284491E+00  0.19995790227E-01  0.20275851452E-01  0.14170845985E+00  0.44966984138E-01 0.  0.
         14    1    1    2    0    0 -0.83803414388E-02 -0.41941325137E-02 -0.96756865449E-02  0.13469958437E-01  0.00000000000E+00 0. -1.
     999901    1    3    3    0    0 -0.12295250347E+00 -0.15801657713E-01 -0.10600164908E-01  0.88875158171E+00  0.88000000000E+00 0. -1.
        -11    1    4    4    0    0  0.11862957044E+00  0.24157479417E-01  0.46722929784E-02  0.12115547960E+00  0.51100000000E-03 0.  1.
         11    1    4    4    0    0  0.12703274472E-01 -0.41616891900E-02  0.15603558474E-01  0.20552980253E-01  0.51100000000E-03 0. -1.
</event>
<event>
 8    1  0.2943605E+004  0.1043930E+01  0.7957747E-01            NaN
         13   -1    0    0    0    0  0.00000000000E+00  0.00000000000E+00  0.74505805969E-08  0.10566000000E+00  0.10566000000E+00 0. -1.
     999900   -1    0    0    0    0 -0.00000000000E+00 -0.00000000000E+00 -0.74505805969E-08  0.93827000000E+00  0.93827000000E+00 0. -1.
     999902    2    1    2    0    0 -0.61598843570E-02 -0.12030259510E-01 -0.91491635253E-03  0.10303834731E+01  0.10302944207E+01 0.  0.
     999903    2    3    3    0    0  0.61461452031E-01  0.11207880786E+00 -0.29216903615E-01  0.13865666055E+00  0.45087390698E-01 0.  0.
         14    1    1    2    0    0  0.61598843570E-02  0.12030259510E-01  0.91491635253E-03  0.13546526902E-01  0.00000000000E+00 0.  1.
     999901    1    3    3    0    0 -0.67621336388E-01 -0.12410906737E+00  0.28301987262E-01  0.89172681255E+00  0.88000000000E+00 0. -1.
        -11    1    4    4    0    0  0.37270329082E-01  0.46710711828E-01  0.68926818945E-02  0.60155949116E-01  0.51100000000E-03 0. -1.
         11    1    4    4    0    0  0.24191122949E-01  0.65368096034E-01 -0.36109585509E-01  0.78500711432E-01  0.51100000000E-03 0.  1.
</event>
<event>
 8    1  0.2943605E+004  0.1043930E+01  0.7957747E-01            NaN
         13   -1    0    0    0    0  0.00000000000E+00  0.00000000000E+00  0.74505805969E-08  0.10566000000E+00  0.10566000000E+00 0. -1.
     999900   -1    0    0    0    0 -0.00000000000E+00 -0.00000000000E+00 -0.74505805969E-08  0.93827000000E+00  0.93827000000E+00 0. -1.
     999902    2    1    2    0    0 -0.60550816506E-02 -0.80109803726E-02  0.89462493349E-02  0.10304810150E+01  0.10303932488E+01 0.  0.
     999903    2    3    3    0    0  0.21404573705E-01  0.10675238283E+00 -0.73309294334E-01  0.13880246492E+00  0.45140277099E-01 0.  0.
         14    1    1    2    0    0  0.60550816506E-02  0.80109803726E-02 -0.89462493349E-02  0.13448984998E-01  0.00000000000E+00 0.  1.
     999901    1    3    3    0    0 -0.27459655356E-01 -0.11476336321E+00  0.82255543669E-01  0.89167855008E+00  0.88000000000E+00 0.  1.
        -11    1    4    4    0    0  0.75168517103E-02  0.92096311006E-01 -0.41900142651E-01  0.10145992626E+00  0.51100000000E-03 0.  1.
         11    1    4    4    0    0  0.13887721995E-01  0.14656071828E-01 -0.31409151683E-01  0.37342538667E-01  0.51100000000E-03 0. -1.
</event>
<event>
 8    1  0.2943605E+004  0.1043930E+01  0.7957747E-01            NaN
         13   -1    0    0    0    0  0.00000000000E+00  0.00000000000E+00  0.74505805969E-08  0.10566000000E+00  0.10566000000E+00 0.  1.
     999900   -1    0    0    0    0 -0.00000000000E+00 -0.00000000000E+00 -0.74505805969E-08  0.93827000000E+00  0.93827000000E+00 0. -1.
     999902    2    1    2    0    0 -0.75920022079E-02 -0.11711493294E-01  0.44235665636E-02  0.10292887735E+01  0.10291846354E+01 0.  0.
     999903    2    3    3    0    0 -0.77670628847E-02  0.11460376356E+00 -0.62027681157E-01  0.13778928213E+00  0.44091985126E-01 0.  0.
         14    1    1    2    0    0  0.75920022079E-02  0.11711493294E-01 -0.44235665636E-02  0.14641226514E-01  0.00000000000E+00 0.  1.
     999901    1    3    3    0    0  0.17506067684E-03 -0.12631525686E+00  0.66451247720E-01  0.89149949135E+00  0.88000000000E+00 0. -1.
        -11    1    4    4    0    0  0.91682332195E-02  0.64193646945E-01 -0.14462597517E-01  0.66440263820E-01  0.51100000000E-03 0.  1.
         11    1    4    4    0    0 -0.16935296104E-01  0.50410116616E-01 -0.47565083640E-01  0.71349018312E-01  0.51100000000E-03 0. -1.
</event>
<event>
 8    1  0.2943605E+004  0.1043930E+01  0.7957747E-01            NaN
         13   -1    0    0    0    0  0.00000000000E+00  0.00000000000E+00  0.74505805969E-08  0.10566000000E+00  0.10566000000E+00 0.  1.
     999900   -1    0    0    0    0 -0.00000000000E+00 -0.00000000000E+00 -0.74505805969E-08  0.93827000000E+00  0.93827000000E+00 0.  1.
     999902    2    1    2    0    0  0.19246391520E-02  0.12302946913E-01  0.63582129184E-02  0.10299480970E+01  0.10298531881E+01 0.  0.
     999903    2    3    3    0    0 -0.72904809668E-01  0.10108497251E+00  0.48449743640E-01  0.14132365926E+00  0.45735282523E-01 0.  0.
         14    1    1    2    0    0 -0.19246391520E-02 -0.12302946913E-01 -0.63582129184E-02  0.13981902951E-01  0.00000000000E+00 0.  1.
     999901    1    3    3    0    0  0.74829448820E-01 -0.88782025596E-01 -0.42091530721E-01  0.88862443779E+00  0.88000000000E+00 0.  1.
        -11    1    4    4    0    0 -0.32189832556E-01  0.25119863178E-01 -0.30019261822E-02  0.40944664218E-01  0.51100000000E-03 0. -1.
         11    1    4    4    0    0 -0.40714977112E-01  0.75965109331E-01  0.51451669822E-01  0.10037899504E+00  0.51100000000E-03 0.  1.
</event>
<event>
 8    1  0.2943605E+004  0.1043930E+01  0.7957747E-01            NaN
         13   -1    0    0    0    0  0.00000000000E+00  0.00000000000E+00  0.74505805969E-08  0.10566000000E+00  0.10566000000E+00 0. -1.
     999900   -1    0    0    0    0 -0.00000000000E+00 -0.00000000000E+00 -0.74505805969E-08  0.93827000000E+00  0.93827000000E+00 0.  1.
     999902    2    1    2    0    0 -0.10426778217E-02 -0.11144635819E-01  0.89000763972E-02  0.10296295998E+01  0.10295302868E+01 0.  0.
     999903    2    3    3    0    0  0.54787316910E-01  0.74879644580E-01 -0.91444373336E-01  0.13800962827E+00  0.45562844656E-01 0.  0.
         14    1    1    2    0    0  0.10426778217E-02  0.11144635819E-01 -0.89000763972E-02  0.14300400150E-01  0.00000000000E+00 0.  1.
     999901    1    3    3    0    0 -0.55829994732E-01 -0.86024280400E-01  0.10034444973E+00  0.89161997158E+00  0.88000000000E+00 0. -1.
        -11    1    4    4    0    0  0.48311028371E-01  0.27742900506E-01 -0.46758977022E-01  0.72734359445E-01  0.51100000000E-03 0. -1.
         11    1    4    4    0    0  0.64762885397E-02  0.47136744075E-01 -0.44685396314E-01  0.65275268823E-01  0.51100000000E-03 0.  1.
</event>
<event>
 8    1  0.2943605E+004  0.1043930E+01  0.7957747E-01            NaN
         13   -1    0    0    0    0  0.00000000000E+00  0.00000000000E+00  0.74505805969E-08  0.10566000000E+00  0.10566000000E+00 0. -1.
     999900   -1    0    0    0    0 -0.00000000000E+00 -0.00000000000E+00 -0.74505805969E-08  0.93827000000E+00  0.93827000000E+00 0. -1.
     999902    2    1    2    0    0  0.10108565182E-01  0.20300888045E-02 -0.91574476789E-02  0.10301400327E+01  0.10300477289E+01 0.  0.
     999903    2    3    3    0    0 -0.21022913268E-01 -0.33861700179E-01 -0.12750501436E+00  0.14094740113E+00  0.44945117381E-01 0.  0.
         14    1    1    2    0    0 -0.10108565182E-01 -0.20300888045E-02  0.91574476789E-02  0.13789967316E-01  0.00000000000E+00 0.  1.
     999901    1    3    3    0    0  0.31131478451E-01  0.35891788983E-01  0.11834756668E+00  0.88919263155E+00  0.88000000000E+00 0.  1.
        -11    1    4    4    0    0  0.64469501229E-03 -0.18599202176E-01 -0.11346401991E-01  0.21802474914E-01  0.51100000000E-03 0.  1.
         11    1    4    4    0    0 -0.21667608281E-01 -0.15262498003E-01 -0.11615861237E+00  0.11914492622E+00  0.51100000000E-03 0. -1.
</event>
<event>
 8    1  0.2943605E+004  0.1043930E+01  0.7957747E-01            NaN
         13   -1    0    0    0    0  0.00000000000E+00  0.00000000000E+00  0.74505805969E-08  0.10566000000E+00  0.10566000000E+00 0.  1.
     999900   -1    0    0    0    0 -0.00000000000E+00 -0.00000000000E+00 -0.74505805969E-08  0.93827000000E+00  0.93827000000E+00 0. -1.
     999902    2    1    2    0    0  0.64879441293E-02  0.11099414206E-01 -0.10722358661E-02  0.10310288332E+01  0.10309481145E+01 0.  0.
     999903    2    3    3    0    0 -0.16668875643E-01  0.73932149083E-01 -0.11072076093E+00  0.14169931615E+00  0.45560895659E-01 0.  0.
         14    1    1    2    0    0 -0.64879441293E-02 -0.11099414206E-01  0.10722358661E-02  0.12901166788E-01  0.00000000000E+00 0.  1.
     999901    1    3    3    0    0  0.23156819773E-01 -0.62832734876E-01  0.10964852506E+00  0.88932951706E+00  0.88000000000E+00 0.  1.
        -11    1    4    4    0    0 -0.27335339129E-01  0.25498349824E-01 -0.60479779423E-01  0.71101697934E-01  0.51100000000E-03 0. -1.
         11    1    4    4    0    0  0.10666463486E-01  0.48433799259E-01 -0.50240981503E-01  0.70597618213E-01  0.51100000000E-03 0.  1.
</event>
<event>
 8    1  0.2943605E+004  0.1043930E+01  0.7957747E-01            NaN
         13   -1    0    0    0    0  0.00000000000E+00  0.00000000000E+00  0.74505805969E-08  0.10566000000E+00  0.10566000000E+00 0.  1.
     999900   -1    0    0    0    0 -0.00000000000E+00 -0.00000000000E+00 -0.74505805969E-08  0.93827000000E+00  0.93827000000E+00 0. -1.
     999902    2    1    2    0    0  0.11159544273E-01  0.70628266529E-02  0.30486410845E-02  0.10303759172E+01  0.10302867647E+01 0.  0.
     999903    2    3    3    0    0  0.58379909532E-01 -0.31249297364E-01 -0.11531317817E+00  0.14037192730E+00  0.44971285184E-01 0.  0.
         14    1    1    2    0    0 -0.11159544273E-01 -0.70628266529E-02 -0.30486410845E-02  0.13554082823E-01  0.00000000000E+00 0. -1.
     999901    1    3    3    0    0 -0.47220365259E-01  0.38312124017E-01  0.11836181925E+00  0.89000398988E+00  0.88000000000E+00 0.  1.
        -11    1    4    4    0    0  0.33336939776E-01  0.71839662983E-02 -0.46421226994E-01  0.57603405820E-01  0.51100000000E-03 0. -1.
         11    1    4    4    0    0  0.25042969756E-01 -0.38433263662E-01 -0.68891951176E-01  0.82768521479E-01  0.51100000000E-03 0.  1.
</event>
<event>
 8    1  0.2943605E+004  0.1043930E+01  0.7957747E-01            NaN
         13   -1    0    0    0    0  0.00000000000E+00  0.00000000000E+00  0.74505805969E-08  0.10566000000E+00  0.10566000000E+00 0.  1.
     999900   -1    0    0    0    0 -0.00000000000E+00 -0.00000000000E+00 -0.74505805969E-08  0.93827000000E+00  0.93827000000E+00 0. -1.
     999902    2    1    2    0    0 -0.60654337236E-02  0.11652476049E-02 -0.12449925490E-01  0.10300322328E+01  0.10299384703E+01 0.  0.
     999903    2    3    3    0    0 -0.73286893425E-01  0.11071147601E+00 -0.81164539062E-02  0.14068534898E+00  0.45809288621E-01 0.  0.
         14    1    1    2    0    0  0.60654337236E-02 -0.11652476049E-02  0.12449925490E-01  0.13897767193E-01  0.00000000000E+00 0.  1.
     999901    1    3    3    0    0  0.67221459702E-01 -0.10954622841E+00 -0.43334715835E-02  0.88934688383E+00  0.88000000000E+00 0. -1.
        -11    1    4    4    0    0 -0.18286583957E-01  0.40019439221E-01 -0.23374847555E-01  0.49825689033E-01  0.51100000000E-03 0.  1.
         11    1    4    4    0    0 -0.55000309469E-01  0.70692036792E-01  0.15258393649E-01  0.90859659944E-01  0.51100000000E-03 0. -1.
</event>
<event>
 8    1  0.2943605E+004  0.1043930E+01  0.7957747E-01            NaN
         13   -1    0    0    0    0  0.00000000000E+00  0.00000000000E+00  0.74505805969E-08  0.10566000000E+00  0.10566000000E+00 0.  1.
     999900   -1    0    0    0    0 -0.00000000000E+00 -0.00000000000E+00 -0.74505805969E-08  0.93827000000E+00  0.93827000000E+00 0.  1.
     999902    2    1    2    0    0 -0.87534944299E-02  0.11359512135E-01 -0.41180909175E-03  0.10295831618E+01  0.10294831981E+01 0.  0.
     999903    2    3    3    0    0  0.25939794680E-01  0.96814248439E-01 -0.87398545518E-01  0.14049777296E+00  0.45334829873E-01 0.  0.
         14    1    1    2    0    0  0.87534944299E-02 -0.11359512135E-01  0.41180909175E-03  0.14346838237E-01  0.00000000000E+00 0.  1.
     999901    1    3    3    0    0 -0.34693289110E-01 -0.85454736304E-01  0.86986736426E-01  0.88908538880E+00  0.88000000000E+00 0. -1.
        -11    1    4    4    0    0 -0.69520976860E-02  0.48628102334E-01 -0.25178038444E-01  0.55201618995E-01  0.51100000000E-03 0. -1.
         11    1    4    4    0    0  0.32891892366E-01  0.48186146105E-01 -0.62220507074E-01  0.85296153966E-01  0.51100000000E-03 0.  1.
</event>
<event>
 8    1  0.2943605E+004  0.1043930E+01  0.7957747E-01            NaN
         13   -1    0    0    0    0  0.00000000000E+00  0.00000000000E+00  0.74505805969E-08  0.10566000000E+00  0.10566000000E+00 0. -1.
     999900   -1    0    0    0    0 -0.00000000000E+00 -0.00000000000E+00 -0.74505805969E-08  0.93827000000E+00  0.93827000000E+00 0. -1.
     999902    2    1    2    0    0  0.11053464751E-01 -0.70993789433E-02  0.55054784687E-02  0.10296860343E+01  0.10295875090E+01 0.  0.
     999903    2    3    3    0    0  0.97467355435E-01  0.42637700362E-01 -0.79131924627E-01  0.14002057612E+00  0.45011569331E-01 0.  0.
         14    1    1    2    0    0 -0.11053464751E-01  0.70993789433E-02 -0.55054784687E-02  0.14243965654E-01  0.00000000000E+00 0. -1.
     999901    1    3    3    0    0 -0.86413890683E-01 -0.49737079305E-01  0.84637403095E-01  0.88966545823E+00  0.88000000000E+00 0.  1.
        -11    1    4    4    0    0  0.43039671538E-01 -0.47849786502E-02 -0.28514409416E-01  0.51852116756E-01  0.51100000000E-03 0. -1.
         11    1    4    4    0    0  0.54427683897E-01  0.47422679012E-01 -0.50617515211E-01  0.88168459361E-01  0.51100000000E-03 0.  1.
</event>
<event>
 8    1  0.2943605E+004  0.1043930E+01  0.7957747E-01            NaN
         13   -1    0    0    0    0  0.00000000000E+00  0.00000000000E+00  0.74505805969E-08  0.10566000000E+00  0.10566000000E+00 0.  1.
     999900   -1    0    0    0    0 -0.00000000000E+00 -0.00000000000E+00 -0.74505805969E-08  0.93827000000E+00  0.93827000000E+00 0.  1.
     999902    2    1    2    0    0 -0.52959608390E-02  0.99078387239E-02  0.76159716534E-02  0.10303573992E+01  0.10302680013E+01 0.  0.
     999903    2    3    3    0    0  0.79160960230E-01  0.31093990666E-01  0.10635431229E+00  0.14056467922E+00  0.34841002011E-01 0.  0.
         14    1    1    2    0    0  0.52959608390E-02 -0.99078387239E-02 -0.76159716534E-02  0.13572600842E-01  0.00000000000E+00 0. -1.
     999901    1    3    3    0    0 -0.84456921069E-01 -0.21186151942E-01 -0.98738340633E-01  0.88979271994E+00  0.88000000000E+00 0.  1.
        -11    1    4    4    0    0  0.74060921519E-01  0.33923563690E-01  0.10720976195E+00  0.13464777179E+00  0.51100000000E-03 0.  1.
         11    1    4    4    0    0  0.51000387111E-02 -0.28295730243E-02 -0.85544966395E-03  0.59169074255E-02  0.51100000000E-03 0. -1.
</event>
<event>
 8    1  0.2943605E+004  0.1043930E+01  0.7957747E-01            NaN
         13   -1    0    0    0    0  0.00000000000E+00  0.00000000000E+00  0.74505805969E-08  0.10566000000E+00  0.10566000000E+00 0. -1.
     999900   -1    0    0    0    0 -0.00000000000E+00 -0.00000000000E+00 -0.74505805969E-08  0.93827000000E+00  0.93827000000E+00 0.  1.
     999902    2    1    2    0    0  0.11267195464E-01 -0.75414657962E-02  0.55537106631E-02  0.10292784778E+01  0.10291741922E+01 0.  0.
     999903    2    3    3    0    0 -0.41590910003E-01 -0.89728159590E-02  0.12507629905E+00  0.13962591799E+00  0.45177440944E-01 0.  0.
         14    1    1    2    0    0 -0.11267195464E-01  0.75414657962E-02 -0.55537106631E-02  0.14651522177E-01  0.00000000000E+00 0.  1.
     999901    1    3    3    0    0  0.52858105468E-01  0.14313501628E-02 -0.11952258839E+00  0.88965255983E+00  0.88000000000E+00 0.  1.
        -11    1    4    4    0    0 -0.27634686831E-01 -0.21069943301E-01  0.41976365551E-01  0.54496741304E-01  0.51100000000E-03 0. -1.
         11    1    4    4    0    0 -0.13956223173E-01  0.12097127342E-01  0.83099933499E-01  0.85129176688E-01  0.51100000000E-03 0.  1.
</event>
<event>
 8    1  0.2943605E+004  0.1043930E+01  0.7957747E-01            NaN
         13   -1    0    0    0    0  0.00000000000E+00  0.00000000000E+00  0.74505805969E-08  0.10566000000E+00  0.10566000000E+00 0. -1.
     999900   -1    0    0    0    0 -0.00000000000E+00 -0.00000000000E+00 -0.74505805969E-08  0.93827000000E+00  0.93827000000E+00 0.  1.
     999902    2    1    2    0    0 -0.99401904608E-02  0.10832663629E-01  0.48074339154E-02  0.10284617936E+01  0.10283454651E+01 0.  0.
     999903    2    3    3    0    0 -0.77375044749E-01  0.50924024255E-01 -0.93926998518E-01  0.13947176842E+00  0.45276255787E-01 0.  0.
         14    1    1    2    0    0  0.99401904608E-02 -0.10832663629E-01 -0.48074339154E-02  0.15468206378E-01  0.00000000000E+00 0.  1.
     999901    1    3    3    0    0  0.67434854288E-01 -0.40091360626E-01  0.98734432434E-01  0.88899002521E+00  0.88000000000E+00 0.  1.
        -11    1    4    4    0    0 -0.29974275845E-01 -0.16834481222E-02 -0.15448685516E-01  0.33767058136E-01  0.51100000000E-03 0.  1.
         11    1    4    4    0    0 -0.47400768904E-01  0.52607472377E-01 -0.78478313002E-01  0.10570471028E+00  0.51100000000E-03 0. -1.
</event>
<event>
 8    1  0.2943605E+004  0.1043930E+01  0.7957747E-01            NaN
         13   -1    0    0    0    0  0.00000000000E+00  0.00000000000E+00  0.74505805969E-08  0.10566000000E+00  0.10566000000E+00 0.  1.
     999900   -1    0    0    0    0 -0.00000000000E+00 -0.00000000000E+00 -0.74505805969E-08  0.93827000000E+00  0.93827000000E+00 0.  1.
     999902    2    1    2    0    0 -0.81719293598E-02 -0.58516930142E-02  0.96862509387E-02  0.10299712680E+01  0.10298766755E+01 0.  0.
     999903    2    3    3    0    0  0.99826731844E-01 -0.84280514641E-01  0.19439440652E-01  0.13985334575E+00  0.45961776783E-01 0.  0.
         14    1    1    2    0    0  0.81719293598E-02  0.58516930142E-02 -0.96862509387E-02  0.13958731957E-01  0.00000000000E+00 0. -1.
     999901    1    3    3    0    0 -0.10799866120E+00  0.78428821626E-01 -0.97531897128E-02  0.89011792230E+00  0.88000000000E+00 0.  1.
        -11    1    4    4    0    0  0.33321197674E-01 -0.14769540908E-01 -0.12424552131E-01  0.38510676049E-01  0.51100000000E-03 0.  1.
         11    1    4    4    0    0  0.66505534169E-01 -0.69510973733E-01  0.31863992783E-01  0.10134266970E+00  0.51100000000E-03 0. -1.
</event>
<event>
 8    1  0.2943605E+004  0.1043930E+01  0.7957747E-01            NaN
         13   -1    0    0    0    0  0.00000000000E+00  0.00000000000E+00  0.74505805969E-08  0.10566000000E+00  0.10566000000E+00 0.  1.
     999900   -1    0    0    0    0 -0.00000000000E+00 -0.00000000000E+00 -0.74505805969E-08  0.93827000000E+00  0.93827000000E+00 0.  1.
     999902    2    1    2    0    0 -0.12910031226E-01 -0.53425374445E-02  0.21784407046E-03  0.10299564869E+01  0.10298616926E+01 0.  0.
     999903    2    3    3    0    0 -0.13329614011E+00 -0.82465052323E-02 -0.12744152070E-01  0.14166078073E+00  0.45491730746E-01 0.  0.
         14    1    1    2    0    0  0.12910031226E-01  0.53425374445E-02 -0.21784407046E-03  0.13973513111E-01  0.00000000000E+00 0. -1.
     999901    1    3    3    0    0  0.12038610889E+00  0.29039677877E-02  0.12961996140E-01  0.88829570616E+00  0.88000000000E+00 0. -1.
        -11    1    4    4    0    0 -0.38615107407E-01 -0.73110274219E-02 -0.24395001446E-01  0.46259646114E-01  0.51100000000E-03 0. -1.
         11    1    4    4    0    0 -0.94681032707E-01 -0.93547781038E-03  0.11650849376E-01  0.95401134613E-01  0.51100000000E-03 0.  1.
</event>
<event>
 8    1  0.2943605E+004  0.1043930E+01  0.7957747E-01            NaN
         13   -1    0    0    0    0  0.00000000000E+00  0.00000000000E+00  0.74505805969E-08  0.10566000000E+00  0.10566000000E+00 0.  1.
     999900   -1    0    0    0    0 -0.00000000000E+00 -0.00000000000E+00 -0.74505805969E-08  0.93827000000E+00  0.93827000000E+00 0. -1.
     999902    2    1    2    0    0  0.12636565448E-01 -0.33246461152E-02 -0.32387289555E-02  0.10304680008E+01  0.10303800635E+01 0.  0.
     999903    2    3    3    0    0  0.76782159600E-01 -0.11022183034E+00 -0.48295335531E-02  0.14167995185E+00  0.44783171429E-01 0.  0.
         14    1    1    2    0    0 -0.12636565448E-01  0.33246461152E-02  0.32387289555E-02  0.13461999234E-01  0.00000000000E+00 0.  1.
     999901    1    3    3    0    0 -0.64145594151E-01  0.10689718423E+00  0.15908045976E-02  0.88878804892E+00  0.88000000000E+00 0. -1.
        -11    1    4    4    0    0  0.48149053436E-01 -0.57694400340E-01 -0.23949513307E-01  0.78872146453E-01  0.51100000000E-03 0. -1.
         11    1    4    4    0    0  0.28633106164E-01 -0.52527430004E-01  0.19119979754E-01  0.62807805393E-01  0.51100000000E-03 0.  1.
</event>
<event>
 8    1  0.2943605E+004  0.1043930E+01  0.7957747E-01            NaN
         13   -1    0    0    0    0  0.00000000000E+00  0.00000000000E+00  0.74505805969E-08  0.10566000000E+00  0.10566000000E+00 0. -1.
     999900   -1    0    0    0    0 -0.00000000000E+00 -0.00000000000E+00 -0.74505805969E-08  0.93827000000E+00  0.93827000000E+00 0. -1.
     999902    2    1    2    0    0 -0.66988108195E-03 -0.13955865209E-01  0.22709852809E-02  0.10297747081E+01  0.10296774141E+01 0.  0.
     999903    2    3    3    0    0 -0.15917411162E-01 -0.55982418933E-01 -0.11694395219E+00  0.14061166361E+00  0.52041875262E-01 0.  0.
         14    1    1    2    0    0  0.66988108195E-03  0.13955865209E-01 -0.22709852809E-02  0.14155291891E-01  0.00000000000E+00 0. -1.
     999901    1    3    3    0    0  0.15247530080E-01  0.42026553724E-01  0.11921493747E+00  0.88916304450E+00  0.88000000000E+00 0.  1.
        -11    1    4    4    0    0  0.18065695032E-01 -0.29177408702E-01 -0.44158120047E-01  0.55927553162E-01  0.51100000000E-03 0. -1.
         11    1    4    4    0    0 -0.33983106195E-01 -0.26805010231E-01 -0.72785832143E-01  0.84684110445E-01  0.51100000000E-03 0.  1.
</event>
<event>
 8    1  0.2943605E+004  0.1043930E+01  0.7957747E-01            NaN
         13   -1    0    0    0    0  0.00000000000E+00  0.00000000000E+00  0.74505805969E-08  0.10566000000E+00  0.10566000000E+00 0.  1.
     999900   -1    0    0    0    0 -0.00000000000E+00 -0.00000000000E+00 -0.74505805969E-08  0.93827000000E+00  0.93827000000E+00 0.  1.
     999902    2    1    2    0    0 -0.16832513202E-02 -0.78534265426E-02  0.10988762418E-01  0.10303188816E+01  0.10302289723E+01 0.  0.
     999903    2    3    3    0    0 -0.52839406453E-01 -0.45525928391E-01 -0.11254430338E+00  0.13942237365E+00  0.43677969523E-01 0.  0.
         14    1    1    2    0    0  0.16832513202E-02  0.78534265426E-02 -0.10988762418E-01  0.13611118357E-01  0.00000000000E+00 0. -1.
     999901    1    3    3    0    0  0.51156155133E-01  0.37672501848E-01  0.12353306580E+00  0.89089650799E+00  0.88000000000E+00 0. -1.
        -11    1    4    4    0    0 -0.31657000902E-01 -0.37892037357E-01 -0.10437290217E+00  0.11546400317E+00  0.51100000000E-03 0.  1.
         11    1    4    4    0    0 -0.21182405551E-01 -0.76338910337E-02 -0.81714012127E-02  0.23958370479E-01  0.51100000000E-03 0. -1.
</event>
<event>
 8    1  0.2943605E+004  0.1043930E+01  0.7957747E-01            NaN
         13   -1    0    0    0    0  0.00000000000E+00  0.00000000000E+00  0.74505805969E-08  0.10566000000E+00  0.10566000000E+00 0. -1.
     999900   -1    0    0    0    0 -0.00000000000E+00 -0.00000000000E+00 -0.74505805969E-08  0.93827000000E+00  0.93827000000E+00 0.  1.
     999902    2    1    2    0    0  0.82026873661E-02 -0.99826765676E-02  0.31124545975E-02  0.10306399554E+01  0.10305542647E+01 0.  0.
     999903    2    3    3    0    0  0.26959273078E-01  0.39974940701E-02  0.12717829670E+00  0.14162950111E+00  0.56051887297E-01 0.  0.
         14    1    1    2    0    0 -0.82026873661E-02  0.99826765676E-02 -0.31124545975E-02  0.13290044586E-01  0.00000000000E+00 0.  1.
     999901    1    3    3    0    0 -0.18756585712E-01 -0.13980170638E-01 -0.12406584211E+00  0.88901045430E+00  0.88000000000E+00 0.  1.
        -11    1    4    4    0    0 -0.11346873961E-01 -0.15312036367E-01  0.46441353180E-01  0.50202294894E-01  0.51100000000E-03 0. -1.
         11    1    4    4    0    0  0.38306147039E-01  0.19309530437E-01  0.80736943523E-01  0.91427206219E-01  0.51100000000E-03 0.  1.
</event>
<event>
 8    1  0.2943605E+004  0.1043930E+01  0.7957747E-01            NaN
         13   -1    0    0    0    0  0.00000000000E+00  0.00000000000E+00  0.74505805969E-08  0.10566000000E+00  0.10566000000E+00 0. -1.
     999900   -1    0    0    0    0 -0.00000000000E+00 -0.00000000000E+00 -0.74505805969E-08  0.93827000000E+00  0.93827000000E+00 0. -1.
     999902    2    1    2    0    0 -0.67398694500E-02  0.83494389383E-02 -0.17143366387E-01  0.10237054115E+01  0.10235056109E+01 0.  0.
     999903    2    3    3    0    0 -0.43464008027E-01 -0.92301275771E-01  0.72135494535E-01  0.13272283938E+00  0.44756865612E-01 0.  0.
         14    1    1    2    0    0  0.67398694500E-02 -0.83494389383E-02  0.17143366387E-01  0.20224588546E-01  0.00000000000E+00 0. -1.
     999901    1    3    3    0    0  0.36724138577E-01  0.10065071471E+00 -0.89278860922E-01  0.89098257207E+00  0.88000000000E+00 0. -1.
        -11    1    4    4    0    0 -0.47474942457E-01 -0.52616164276E-01  0.52901728097E-01  0.88437462995E-01  0.51100000000E-03 0. -1.
         11    1    4    4    0    0  0.40109344304E-02 -0.39685111496E-01  0.19233766438E-01  0.44285376388E-01  0.51100000000E-03 0.  1.
</event>
<event>
 8    1  0.2943605E+004  0.1043930E+01  0.7957747E-01            NaN
         13   -1    0    0    0    0  0.00000000000E+00  0.00000000000E+00  0.74505805969E-08  0.10566000000E+00  0.10566000000E+00 0. -1.
     999900   -1    0    0    0    0 -0.00000000000E+00 -0.00000000000E+00 -0.74505805969E-08  0.93827000000E+00  0.93827000000E+00 0.  1.
     999902    2    1    2    0    0 -0.28555740527E-02  0.13476177371E-01  0.24111132537E-02  0.10299451823E+01  0.10298502335E+01 0.  0.
     999903    2    3    3    0    0 -0.93034146674E-01 -0.86519811845E-01  0.32858060846E-01  0.13918236904E+00  0.46379407074E-01 0.  0.
         14    1    1    2    0    0  0.28555740527E-02 -0.13476177371E-01 -0.24111132537E-02  0.13984817726E-01  0.00000000000E+00 0.  1.
     999901    1    3    3    0    0  0.90178572622E-01  0.99995989216E-01 -0.30446947592E-01  0.89076281323E+00  0.88000000000E+00 0.  1.
        -11    1    4    4    0    0 -0.26832576327E-01 -0.33915186112E-01 -0.99890176113E-02  0.44387707703E-01  0.51100000000E-03 0.  1.
         11    1    4    4    0    0 -0.66201570348E-01 -0.52604625733E-01  0.42847078457E-01  0.94794661339E-01  0.51100000000E-03 0. -1.
</event>
<event>
 8    1  0.2943605E+004  0.1043930E+01  0.7957747E-01            NaN
         13   -1    0    0    0    0  0.00000000000E+00  0.00000000000E+00  0.74505805969E-08  0.10566000000E+00  0.10566000000E+00 0. -1.
     999900   -1    0    0    0    0 -0.00000000000E+00 -0.00000000000E+00 -0.74505805969E-08  0.93827000000E+00  0.93827000000E+00 0.  1.
     999902    2    1    2    0    0 -0.60781086857E-02  0.19875431952E-01 -0.60717172296E-02  0.10222772415E+01  0.10220479033E+01 0.  0.
     999903    2    3    3    0    0 -0.87901933011E-01 -0.39056131374E-01  0.79571078085E-01  0.13238805976E+00  0.44078460450E-01 0.  0.
         14    1    1    2    0    0  0.60781086857E-02 -0.19875431952E-01  0.60717172296E-02  0.21652758498E-01  0.00000000000E+00 0. -1.
     999901    1    3    3    0    0  0.81823824325E-01  0.58931563326E-01 -0.85642795315E-01  0.88988918174E+00  0.88000000000E+00 0.  1.
        -11    1    4    4    0    0 -0.44579992645E-01 -0.18092978530E-01  0.67279021855E-01  0.82713115762E-01  0.51100000000E-03 0.  1.
         11    1    4    4    0    0 -0.43321940367E-01 -0.20963152844E-01  0.12292056230E-01  0.49674944002E-01  0.51100000000E-03 0. -1.
</event>
<event>
 8    1  0.2943605E+004  0.1043930E+01  0.7957747E-01            NaN
         13   -1    0    0    0    0  0.00000000000E+00  0.00000000000E+00  0.74505805969E-08  0.10566000000E+00  0.10566000000E+00 0. -1.
     999900   -1    0    0    0    0 -0.00000000000E+00 -0.00000000000E+00 -0.74505805969E-08  0.93827000000E+00  0.93827000000E+00 0. -1.
     999902    2    1    2    0    0  0.50729369589E-02 -0.75139232592E-02 -0.10560644823E-01  0.10300116326E+01  0.10299175901E+01 0.  0.
     999903    2    3    3    0    0  0.37740144696E-01  0.12469573113E+00  0.19628319479E-01  0.13902458850E+00  0.44375910109E-01 0.  0.
         14    1    1    2    0    0 -0.50729369589E-02  0.75139232592E-02  0.10560644823E-01  0.13918367404E-01  0.00000000000E+00 0. -1.
     999901    1    3    3    0    0 -0.32667207737E-01 -0.13220965439E+00 -0.30188964302E-01  0.89098704409E+00  0.88000000000E+00 0.  1.
        -11    1    4    4    0    0  0.96579005747E-02  0.98649905175E-01  0.10747881017E-01  0.99703845973E-01  0.51100000000E-03 0. -1.
         11    1    4    4    0    0  0.28082244121E-01  0.26045825959E-01  0.88804384627E-02  0.39320742529E-01  0.51100000000E-03 0.  1.
</event>
<event>
 8    1  0.2943605E+004  0.1043930E+01  0.7957747E-01            NaN
         13   -1    0    0    0    0  0.00000000000E+00  0.00000000000E+00  0.74505805969E-08  0.10566000000E+00  0.10566000000E+00 0. -1.
     999900   -1    0    0    0    0 -0.00000000000E+00 -0.00000000000E+00 -0.74505805969E-08  0.93827000000E+00  0.93827000000E+00 0.  1.
     999902    2    1    2    0    0  0.66338030285E-02 -0.16532756563E-01 -0.20824003227E-02  0.10259946781E+01  0.10258379032E+01 0.  0.
     999903    2    3    3    0    0 -0.58549226321E-01 -0.56750419740E-01 -0.10065244219E+00  0.13718517040E+00  0.45168958540E-01 0.  0.
         14    1    1    2    0    0 -0.66338030285E-02  0.16532756563E-01  0.20824003227E-02  0.17935321946E-01  0.00000000000E+00 0. -1.
     999901    1    3    3    0    0  0.65183029350E-01  0.40217663177E-01  0.98570041865E-01  0.88880950766E+00  0.88000000000E+00 0. -1.
        -11    1    4    4    0    0 -0.60677484440E-02  0.38919541452E-02 -0.28177471362E-01  0.29089446396E-01  0.51100000000E-03 0.  1.
         11    1    4    4    0    0 -0.52481477877E-01 -0.60642373885E-01 -0.72474970825E-01  0.10809572400E+00  0.51100000000E-03 0. -1.
</event>
<event>
 8    1  0.2943605E+004  0.1043930E+01  0.7957747E-01            NaN
         13   -1    0    0    0    0  0.00000000000E+00  0.00000000000E+00  0.74505805969E-08  0.10566000000E+00  0.10566000000E+00 0. -1.
     999900   -1    0    0    0    0 -0.00000000000E+00 -0.00000000000E+00 -0.74505805969E-08  0.93827000000E+00  0.93827000000E+00 0. -1.
     999902    2    1    2    0    0 -0.12882677685E-01  0.23468175813E-02  0.51123245723E-02  0.10298727314E+01  0.10297767895E+01 0.  0.
     999903    2    3    3    0    0 -0.65800071280E-01 -0.28136384847E-01  0.11426092956E+00  0.14102916018E+00  0.41380653282E-01 0.  0.
         14    1    1    2    0    0  0.12882677685E-01 -0.23468175813E-02 -0.51123245723E-02  0.14057268570E-01  0.00000000000E+00 0. -1.
     999901    1    3    3    0    0  0.52917393594E-01  0.30483202428E-01 -0.10914860499E+00  0.88884357125E+00  0.88000000000E+00 0. -1.
        -11    1    4    4    0    0 -0.54837052368E-02 -0.14385809034E-01  0.47842773580E-01  0.50261462668E-01  0.51100000000E-03 0.  1.
         11    1    4    4    0    0 -0.60316366043E-01 -0.13750575813E-01  0.66418155978E-01  0.90767697516E-01  0.51100000000E-03 0. -1.
</event>
<event>
 8    1  0.2943605E+004  0.1043930E+01  0.7957747E-01            NaN
         13   -1    0    0    0    0  0.00000000000E+00  0.00000000000E+00  0.74505805969E-08  0.10566000000E+00  0.10566000000E+00 0.  1.
     999900   -1    0    0    0    0 -0.00000000000E+00 -0.00000000000E+00 -0.74505805969E-08  0.93827000000E+00  0.93827000000E+00 0.  1.
     999902    2    1    2    0    0 -0.78189081950E-02 -0.63552157256E-02  0.11718357518E-01  0.10284754215E+01  0.10283592994E+01 0.  0.
     999903    2    3    3    0    0  0.88852594194E-01 -0.92039066909E-03 -0.94435956711E-01  0.13682321630E+00  0.43667058334E-01 0.  0.
         14    1    1    2    0    0  0.78189081950E-02  0.63552157256E-02 -0.11718357518E-01  0.15454578454E-01  0.00000000000E+00 0. -1.
     999901    1    3    3    0    0 -0.96671502389E-01 -0.54348250565E-02  0.10615431423E+00  0.89165220525E+00  0.88000000000E+00 0. -1.
        -11    1    4    4    0    0  0.83562807064E-01  0.79955574296E-02 -0.66731460703E-01  0.10723814914E+00  0.51100000000E-03 0.  1.
         11    1    4    4    0    0  0.52897871303E-02 -0.89159480987E-02 -0.27704496008E-01  0.29585067153E-01  0.51100000000E-03 0. -1.
</event>
<event>
 8    1  0.2943605E+004  0.1043930E+01  0.7957747E-01            NaN
         13   -1    0    0    0    0  0.00000000000E+00  0.00000000000E+00  0.74505805969E-08  0.10566000000E+00  0.10566000000E+00 0.  1.
     999900   -1    0    0    0    0 -0.00000000000E+00 -0.00000000000E+00 -0.74505805969E-08  0.93827000000E+00  0.93827000000E+00 0. -1.
     999902    2    1    2    0    0  0.42644507580E-02 -0.73792611217E-02  0.11597873048E-01  0.10295373041E+01  0.10294366959E+01 0.  0.
     999903    2    3    3    0    0 -0.68239413248E-02  0.51546128881E-01  0.12266973886E+00  0.14053105365E+00  0.44693876897E-01 0.  0.
         14    1    1    2    0    0 -0.42644507580E-02  0.73792611217E-02 -0.11597873048E-01  0.14392695863E-01  0.00000000000E+00 0. -1.
     999901    1    3    3    0    0  0.11088392083E-01 -0.58925390002E-01 -0.11107186581E+00  0.88900625048E+00  0.88000000000E+00 0. -1.
        -11    1    4    4    0    0 -0.18859478099E-01  0.23385043793E-01  0.93594427734E-01  0.98299126198E-01  0.51100000000E-03 0. -1.
         11    1    4    4    0    0  0.12035536774E-01  0.28161085088E-01  0.29075311122E-01  0.42231927455E-01  0.51100000000E-03 0.  1.
</event>
<event>
 8    1  0.2943605E+004  0.1043930E+01  0.7957747E-01            NaN
         13   -1    0    0    0    0  0.00000000000E+00  0.00000000000E+00  0.74505805969E-08  0.10566000000E+00  0.10566000000E+00 0. -1.
     999900   -1    0    0    0    0 -0.00000000000E+00 -0.00000000000E+00 -0.74505805969E-08  0.93827000000E+00  0.93827000000E+00 0. -1.
     999902    2    1    2    0    0  0.64709863151E-02  0.12988031947E-01 -0.24205975544E-02  0.10292187142E+01  0.10291135699E+01 0.  0.
     999903    2    3    3    0    0 -0.77028410329E-02 -0.14112561407E-01 -0.13092809158E+00  0.13935944691E+00  0.44948772258E-01 0.  0.
         14    1    1    2    0    0 -0.64709863151E-02 -0.12988031947E-01  0.24205975544E-02  0.14711285813E-01  0.00000000000E+00 0. -1.
     999901    1    3    3    0    0  0.14173827348E-01  0.27100593355E-01  0.12850749403E+00  0.88985926728E+00  0.88000000000E+00 0.  1.
        -11    1    4    4    0    0 -0.13746294746E-01  0.13562406491E-01 -0.48958236567E-01  0.52631450083E-01  0.51100000000E-03 0.  1.
         11    1    4    4    0    0  0.60434537133E-02 -0.27674967898E-01 -0.81969855015E-01  0.86727996824E-01  0.51100000000E-03 0. -1.
</event>
<event>
 8    1  0.2943605E+004  0.1043930E+01  0.7957747E-01            NaN
         13   -1    0    0    0    0  0.00000000000E+00  0.00000000000E+00  0.74505805969E-08  0.10566000000E+00  0.10566000000E+00 0.  1.
     999900   -1    0    0    0    0 -0.00000000000E+00 -0.00000000000E+00 -0.74505805969E-08  0.93827000000E+00  0.93827000000E+00 0.  1.
     999902    2    1    2    0    0 -0.65626054214E-02 -0.97356836065E-02  0.71517670244E-02  0.10301823058E+01  0.10300905708E+01 0.  0.
     999903    2    3    3    0    0 -0.12059495083E+00  0.55642572334E-01  0.62798681785E-05  0.14039089755E+00  0.45501275280E-01 0.  0.
         14    1    1    2    0    0  0.65626054214E-02  0.97356836065E-02 -0.71517670244E-02  0.13747694235E-01  0.00000000000E+00 0. -1.
     999901    1    3    3    0    0  0.11403234541E+00 -0.65378255941E-01  0.71454871562E-02  0.88979140822E+00  0.88000000000E+00 0. -1.
        -11    1    4    4    0    0 -0.73705817808E-01  0.57397931498E-01 -0.16902876093E-02  0.93435476732E-01  0.51100000000E-03 0.  1.
         11    1    4    4    0    0 -0.46889133027E-01 -0.17553591633E-02  0.16965674774E-02  0.46955420816E-01  0.51100000000E-03 0. -1.
</event>
<event>
 8    1  0.2943605E+004  0.1043930E+01  0.7957747E-01            NaN
         13   -1    0    0    0    0  0.00000000000E+00  0.00000000000E+00  0.74505805969E-08  0.10566000000E+00  0.10566000000E+00 0. -1.
     999900   -1    0    0    0    0 -0.00000000000E+00 -0.00000000000E+00 -0.74505805969E-08  0.93827000000E+00  0.93827000000E+00 0. -1.
     999902    2    1    2    0    0 -0.11599248529E-01  0.65619713686E-02  0.35664600028E-02  0.10301342879E+01  0.10300419067E+01 0.  0.
     999903    2    3    3    0    0  0.12681646672E+00 -0.24509979753E-01 -0.16883703804E-01  0.13853875991E+00  0.47167501579E-01 0.  0.
         14    1    1    2    0    0  0.11599248529E-01 -0.65619713686E-02 -0.35664600028E-02  0.13795712074E-01  0.00000000000E+00 0.  1.
     999901    1    3    3    0    0 -0.13841571525E+00  0.31071951121E-01  0.20450163806E-01  0.89159552801E+00  0.88000000000E+00 0. -1.
        -11    1    4    4    0    0  0.10484134730E+00 -0.37743715091E-01 -0.17915781189E-01  0.11286067725E+00  0.51100000000E-03 0. -1.
         11    1    4    4    0    0  0.21975119416E-01  0.13233735338E-01  0.10320773851E-02  0.25678082660E-01  0.51100000000E-03 0.  1.
</event>
<event>
 8    1  0.2943605E+004  0.1043930E+01  0.7957747E-01            NaN
         13   -1    0    0    0    0  0.00000000000E+00  0.00000000000E+00  0.74505805969E-08  0.10566000000E+00  0.10566000000E+00 0.  1.
     999900   -1    0    0    0    0 -0.00000000000E+00 -0.00000000000E+00 -0.74505805969E-08  0.93827000000E+00  0.93827000000E+00 0.  1.
     999902    2    1    2    0    0  0.62367199705E-02 -0.13534444791E-01 -0.20213685657E-02  0.10288912566E+01  0.10287813442E+01 0.  0.
     999903    2    3    3    0    0 -0.43740355333E-02 -0.13136115705E+00  0.22111651534E-01  0.14064685054E+00  0.44919101347E-01 0.  0.
         14    1    1    2    0    0 -0.62367199705E-02  0.13534444791E-01  0.20213685657E-02  0.15038743387E-01  0.00000000000E+00 0. -1.
     999901    1    3    3    0    0  0.10610755504E-01  0.11782671226E+00 -0.24133020100E-01  0.88824440607E+00  0.88000000000E+00 0.  1.
        -11    1    4    4    0    0 -0.11146633281E-01 -0.79065888819E-01  0.33674405729E-01  0.86659615337E-01  0.51100000000E-03 0. -1.
         11    1    4    4    0    0  0.67725977476E-02 -0.52295268232E-01 -0.11562754195E-01  0.53987235207E-01  0.51100000000E-03 0.  1.
</event>
<event>
 8    1  0.2943605E+004  0.1043930E+01  0.7957747E-01            NaN
         13   -1    0    0    0    0  0.00000000000E+00  0.00000000000E+00  0.74505805969E-08  0.10566000000E+00  0.10566000000E+00 0.  1.
     999900   -1    0    0    0    0 -0.00000000000E+00 -0.00000000000E+00 -0.74505805969E-08  0.93827000000E+00  0.93827000000E+00 0. -1.
     999902    2    1    2    0    0 -0.15099505458E-02  0.65523317343E-02 -0.11899056118E-01  0.10302625007E+01  0.10301718399E+01 0.  0.
     999903    2    3    3    0    0  0.12348764744E+00  0.23836345558E-01  0.40965399249E-01  0.13969089361E+00  0.44922281591E-01 0.  0.
         14    1    1    2    0    0  0.15099505458E-02 -0.65523317343E-02  0.11899056118E-01  0.13667499343E-01  0.00000000000E+00 0.  1.
     999901    1    3    3    0    0 -0.12499759798E+00 -0.17284013823E-01 -0.52864455367E-01  0.89057160705E+00  0.88000000000E+00 0.  1.
        -11    1    4    4    0    0  0.97680769851E-01 -0.58943419003E-03  0.25658420291E-01  0.10099750435E+00  0.51100000000E-03 0.  1.
         11    1    4    4    0    0  0.25806877585E-01  0.24425779748E-01  0.15306978958E-01  0.38693389265E-01  0.51100000000E-03 0. -1.
</event>
<event>
 8    1  0.2943605E+004  0.1043930E+01  0.7957747E-01            NaN
         13   -1    0    0    0    0  0.00000000000E+00  0.00000000000E+00  0.74505805969E-08  0.10566000000E+00  0.10566000000E+00 0. -1.
     999900   -1    0    0    0    0 -0.00000000000E+00 -0.00000000000E+00 -0.74505805969E-08  0.93827000000E+00  0.93827000000E+00 0.  1.
     999902    2    1    2    0    0  0.23025000267E-02  0.96949599815E-02  0.70650639913E-02  0.10317148911E+01  0.10316425775E+01 0.  0.
     999903    2    3    3    0    0 -0.41082261217E-01  0.11342386492E-01 -0.12635347244E+00  0.14060016374E+00  0.44573581047E-01 0.  0.
         14    1    1    2    0    0 -0.23025000267E-02 -0.96949599815E-02 -0.70650639913E-02  0.12215108866E-01  0.00000000000E+00 0.  1.
     999901    1    3    3    0    0  0.43384761244E-01 -0.16474265109E-02  0.13341853643E+00  0.89111472740E+00  0.88000000000E+00 0. -1.
        -11    1    4    4    0    0 -0.16449366555E-01  0.18756130936E-01 -0.22473235720E-01  0.33580970094E-01  0.51100000000E-03 0. -1.
         11    1    4    4    0    0 -0.24632894662E-01 -0.74137444433E-02 -0.10388023672E+00  0.10701919364E+00  0.51100000000E-03 0.  1.
</event>
<event>
 8    1  0.2943605E+004  0.1043930E+01  0.7957747E-01            NaN
         13   -1    0    0    0    0  0.00000000000E+00  0.00000000000E+00  0.74505805969E-08  0.10566000000E+00  0.10566000000E+00 0. -1.
     999900   -1    0    0    0    0 -0.00000000000E+00 -0.00000000000E+00 -0.74505805969E-08  0.93827000000E+00  0.93827000000E+00 0. -1.
     999902    2    1    2    0    0 -0.12018639039E-01  0.36831527066E-02 -0.24914984501E-02  0.10311151312E+01  0.10310354955E+01 0.  0.
     999903    2    3    3    0    0  0.10941914019E+00  0.56491073891E-01  0.48008161936E-01  0.13977567483E+00  0.45482589973E-01 0.  0.
         14    1    1    2    0    0  0.12018639039E-01 -0.36831527066E-02  0.24914984501E-02  0.12814868815E-01  0.00000000000E+00 0. -1.
     999901    1    3    3    0    0 -0.12143777923E+00 -0.52807921185E-01 -0.50499660387E-01  0.89133945636E+00  0.88000000000E+00 0. -1.
        -11    1    4    4    0    0  0.50745425411E-01  0.30607496479E-01  0.46996642025E-01  0.75636383596E-01  0.51100000000E-03 0. -1.
         11    1    4    4    0    0  0.58673714781E-01  0.25883577413E-01  0.10115199111E-02  0.64139291230E-01  0.51100000000E-03 0.  1.
</event>
<event>
 8    1  0.2943605E+004  0.1043930E+01  0.7957747E-01            NaN
         13   -1    0    0    0    0  0.00000000000E+00  0.00000000000E+00  0.74505805969E-08  0.10566000000E+00  0.10566000000E+00 0.  1.
     999900   -1    0    0    0    0 -0.00000000000E+00 -0.00000000000E+00 -0.74505805969E-08  0.93827000000E+00  0.93827000000E+00 0.  1.
     999902    2    1    2    0    0 -0.30249310891E-02  0.75955982011E-02  0.10418337691E-01  0.10306866968E+01  0.10306016116E+01 0.  0.
     999903    2    3    3    0    0  0.23802224143E-01 -0.37100087385E-01 -0.12383798336E+00  0.13897925579E+00  0.45126766526E-01 0.  0.
         14    1    1    2    0    0  0.30249310891E-02 -0.75955982011E-02 -0.10418337691E-01  0.13243303227E-01  0.00000000000E+00 0. -1.
     999901    1    3    3    0    0 -0.26827155232E-01  0.44695685586E-01  0.13425632105E+00  0.89170744099E+00  0.88000000000E+00 0. -1.
        -11    1    4    4    0    0  0.16577379897E-01 -0.17637067338E-01 -0.15677211836E-01  0.28842880586E-01  0.51100000000E-03 0.  1.
         11    1    4    4    0    0  0.72248442463E-02 -0.19463020046E-01 -0.10816077153E+00  0.11013637520E+00  0.51100000000E-03 0. -1.
</event>
<event>
 7    1  0.2943605E+004  0.1043930E+01  0.7957747E-01            NaN
         13   -1    0    0    0    0  0.00000000000E+00  0.00000000000E+00  0.74505805969E-08  0.10566000000E+00  0.10566000000E+00 0. -1.
     999900   -1    0    0    0    0 -0.00000000000E+00 -0.00000000000E+00 -0.74505805969E-08  0.93827000000E+00  0.93827000000E+00 0.  1.
     999903    2    1    2    0    0  0.47175694149E-01 -0.32589433524E-01 -0.86443628966E-01  0.11377629335E+00  0.46743198911E-01 0.  0.
         14    1    1    2    0    0 -0.29980913163E-01 -0.21360929068E-01 -0.20063996608E-01  0.41925033150E-01  0.00000000000E+00 0. -1.
     999901    1    1    2    0    0 -0.17194780986E-01  0.53950362593E-01  0.10650762557E+00  0.88822867350E+00  0.88000000000E+00 0. -1.
        -11    1    3    3    0    0  0.16572921756E-01 -0.22110197988E-01 -0.74210237871E-01  0.79189286627E-01  0.51100000000E-03 0. -1.
         11    1    3    3    0    0  0.30602772393E-01 -0.10479235536E-01 -0.12233391095E-01  0.34587006726E-01  0.51100000000E-03 0.  1.
</event>
<event>
 8    1  0.2943605E+004  0.1043930E+01  0.7957747E-01            NaN
         13   -1    0    0    0    0  0.00000000000E+00  0.00000000000E+00  0.74505805969E-08  0.10566000000E+00  0.10566000000E+00 0.  1.
     999900   -1    0    0    0    0 -0.00000000000E+00 -0.00000000000E+00 -0.74505805969E-08  0.93827000000E+00  0.93827000000E+00 0. -1.
     999902    2    1    2    0    0  0.11567785401E-01 -0.82642790350E-02 -0.18753748311E-02  0.10295902302E+01  0.10294903657E+01 0.  0.
     999903    2    3    3    0    0 -0.67958567085E-01 -0.40074431536E-01  0.10531320324E+00  0.13895802901E+00  0.44655751538E-01 0.  0.
         14    1    1    2    0    0 -0.11567785401E-01  0.82642790350E-02  0.18753748311E-02  0.14339769797E-01  0.00000000000E+00 0.  1.
     999901    1    3    3    0    0  0.79526352487E-01  0.31810152501E-01 -0.10718857807E+00  0.89063220120E+00  0.88000000000E+00 0.  1.
        -11    1    4    4    0    0 -0.48709217978E-01 -0.43826937079E-01  0.57129320841E-01  0.86933358100E-01  0.51100000000E-03 0. -1.
         11    1    4    4    0    0 -0.19249349108E-01  0.37525055429E-02  0.48183882398E-01  0.52024670905E-01  0.51100000000E-03 0.  1.
</event>
<event>
 8    1  0.2943605E+004  0.1043930E+01  0.7957747E-01            NaN
         13   -1    0    0    0    0  0.00000000000E+00  0.00000000000E+00  0.74505805969E-08  0.10566000000E+00  0.10566000000E+00 0. -1.
     999900   -1    0    0    0    0 -0.00000000000E+00 -0.00000000000E+00 -0.74505805969E-08  0.93827000000E+00  0.93827000000E+00 0.  1.
     999902    2    1    2    0    0 -0.91601712023E-02  0.81330645909E-02  0.47631141487E-02  0.10307868370E+01  0.10307030420E+01 0.  0.
     999903    2    3    3    0    0  0.20790883706E-01  0.10648327929E+00 -0.77923322211E-01  0.14095152802E+00  0.44992660439E-01 0.  0.
         14    1    1    2    0    0  0.91601712023E-02 -0.81330645909E-02 -0.47631141487E-02  0.13143162956E-01  0.00000000000E+00 0.  1.
     999901    1    3    3    0    0 -0.29951054908E-01 -0.98350214703E-01  0.82686436360E-01  0.88983530902E+00  0.88000000000E+00 0.  1.
        -11    1    4    4    0    0  0.41437353600E-02  0.58435943894E-01 -0.15817210317E-01  0.60682578593E-01  0.51100000000E-03 0.  1.
         11    1    4    4    0    0  0.16647148346E-01  0.48047335399E-01 -0.62106111894E-01  0.80268949430E-01  0.51100000000E-03 0. -1.
</event>
<event>
 8    1  0.2943605E+004  0.1043930E+01  0.7957747E-01            NaN
         13   -1    0    0    0    0  0.00000000000E+00  0.00000000000E+00  0.74505805969E-08  0.10566000000E+00  0.10566000000E+00 0.  1.
     999900   -1    0    0    0    0 -0.00000000000E+00 -0.00000000000E+00 -0.74505805969E-08  0.93827000000E+00  0.93827000000E+00 0. -1.
     999902    2    1    2    0    0  0.10364642617E-01  0.13956288824E-01  0.22354378433E-02  0.10264028497E+01  0.10262531895E+01 0.  0.
     999903    2    3    3    0    0 -0.40184418242E-01 -0.10242971361E+00  0.64182625155E-01  0.13514622948E+00  0.45149310868E-01 0.  0.
         14    1    1    2    0    0 -0.10364642617E-01 -0.13956288824E-01 -0.22354378433E-02  0.17527150272E-01  0.00000000000E+00 0.  1.
     999901    1    3    3    0    0  0.50549060859E-01  0.11638600243E+00 -0.61947187311E-01  0.89125662025E+00  0.88000000000E+00 0. -1.
        -11    1    4    4    0    0 -0.40059556271E-01 -0.56673428379E-01  0.21727461072E-01  0.72725437218E-01  0.51100000000E-03 0.  1.
         11    1    4    4    0    0 -0.12486197119E-03 -0.45756285230E-01  0.42455164083E-01  0.62420792264E-01  0.51100000000E-03 0. -1.
</event>
<event>
 8    1  0.2943605E+004  0.1043930E+01  0.7957747E-01            NaN
         13   -1    0    0    0    0  0.00000000000E+00  0.00000000000E+00  0.74505805969E-08  0.10566000000E+00  0.10566000000E+00 0. -1.
     999900   -1    0    0    0    0 -0.00000000000E+00 -0.00000000000E+00 -0.74505805969E-08  0.93827000000E+00  0.93827000000E+00 0.  1.
     999902    2    1    2    0    0 -0.12973678313E-01 -0.37780960244E-02 -0.22772749558E-02  0.10302268500E+01  0.10301357125E+01 0.  0.
     999903    2    3    3    0    0  0.12503920086E+00  0.15376382793E-03  0.38191351248E-01  0.13854264355E+00  0.45832950781E-01 0.  0.
         14    1    1    2    0    0  0.12973678313E-01  0.37780960244E-02  0.22772749558E-02  0.13703149994E-01  0.00000000000E+00 0.  1.
     999901    1    3    3    0    0 -0.13801287917E+00 -0.39318598523E-02 -0.40468626203E-01  0.89168420646E+00  0.88000000000E+00 0.  1.
        -11    1    4    4    0    0  0.35291656071E-01 -0.12121073829E-01 -0.59256445082E-02  0.37786185344E-01  0.51100000000E-03 0.  1.
         11    1    4    4    0    0  0.89747544786E-01  0.12274837657E-01  0.44116995756E-01  0.10075645821E+00  0.51100000000E-03 0. -1.
</event>
<event>
 8    1  0.2943605E+004  0.1043930E+01  0.7957747E-01            NaN
         13   -1    0    0    0    0  0.00000000000E+00  0.00000000000E+00  0.74505805969E-08  0.10566000000E+00  0.10566000000E+00 0.  1.
     999900   -1    0    0    0    0 -0.00000000000E+00 -0.00000000000E+00 -0.74505805969E-08  0.93827000000E+00  0.93827000000E+00 0.  1.
     999902    2    1    2    0    0  0.10047450105E-01 -0.82124439150E-02  0.52827911245E-02  0.10299191695E+01  0.10298238647E+01 0.  0.
     999903    2    3    3    0    0 -0.54550200346E-01  0.99706899640E-01  0.68430030319E-01  0.13873623938E+00  0.40594148275E-01 0.  0.
         14    1    1    2    0    0 -0.10047450105E-01  0.82124439150E-02 -0.52827911245E-02  0.14010830480E-01  0.00000000000E+00 0.  1.
     999901    1    3    3    0    0  0.64597650450E-01 -0.10791934355E+00 -0.63147239194E-01  0.89118293014E+00  0.88000000000E+00 0.  1.
        -11    1    4    4    0    0  0.39977117027E-02  0.15227452904E-01  0.19006891676E-01  0.24685624825E-01  0.51100000000E-03 0.  1.
         11    1    4    4    0    0 -0.58547912048E-01  0.84479446736E-01  0.49423138643E-01  0.11405061455E+00  0.51100000000E-03 0. -1.
</event>
<event>
 8    1  0.2943605E+004  0.1043930E+01  0.7957747E-01            NaN
         13   -1    0    0    0    0  0.00000000000E+00  0.00000000000E+00  0.74505805969E-08  0.10566000000E+00  0.10566000000E+00 0.  1.
     999900   -1    0    0    0    0 -0.00000000000E+00 -0.00000000000E+00 -0.74505805969E-08  0.93827000000E+00  0.93827000000E+00 0. -1.
     999902    2    1    2    0    0  0.69062406135E-02  0.53083261684E-02  0.10576109936E-01  0.10302285918E+01  0.10301374776E+01 0.  0.
     999903    2    3    3    0    0 -0.51990595262E-01 -0.11615298442E+00  0.35385020716E-01  0.13958996174E+00  0.45152186467E-01 0.  0.
         14    1    1    2    0    0 -0.69062406135E-02 -0.53083261684E-02 -0.10576109936E-01  0.13701408230E-01  0.00000000000E+00 0. -1.
     999901    1    3    3    0    0  0.58896835875E-01  0.12146131059E+00 -0.24808910780E-01  0.89063863003E+00  0.88000000000E+00 0.  1.
        -11    1    4    4    0    0 -0.46130913647E-01 -0.51760394547E-01  0.96844821421E-02  0.70008927665E-01  0.51100000000E-03 0. -1.
         11    1    4    4    0    0 -0.58596816150E-02 -0.64392589871E-01  0.25700538574E-01  0.69581034075E-01  0.51100000000E-03 0.  1.
</event>
<event>
 8    1  0.2943605E+004  0.1043930E+01  0.7957747E-01            NaN
         13   -1    0    0    0    0  0.00000000000E+00  0.00000000000E+00  0.74505805969E-08  0.10566000000E+00  0.10566000000E+00 0. -1.
     999900   -1    0    0    0    0 -0.00000000000E+00 -0.00000000000E+00 -0.74505805969E-08  0.93827000000E+00  0.93827000000E+00 0.  1.
     999902    2    1    2    0    0  0.97394239094E-02  0.10762359174E-01  0.17606045913E-02  0.10293086293E+01  0.10292047755E+01 0.  0.
     999903    2    3    3    0    0 -0.48834957188E-01 -0.11413102399E+00  0.38818006728E-01  0.13779162646E+00  0.45485722969E-01 0.  0.
         14    1    1    2    0    0 -0.97394239094E-02 -0.10762359174E-01 -0.17606045913E-02  0.14621370716E-01  0.00000000000E+00 0.  1.
     999901    1    3    3    0    0  0.58574381098E-01  0.12489338317E+00 -0.37057402137E-01  0.89151700283E+00  0.88000000000E+00 0.  1.
        -11    1    4    4    0    0 -0.18936536259E-01 -0.77917409312E-01  0.58278017459E-02  0.80398628555E-01  0.51100000000E-03 0.  1.
         11    1    4    4    0    0 -0.29898420930E-01 -0.36213614679E-01  0.32990204982E-01  0.57392997900E-01  0.51100000000E-03 0. -1.
</event>
<event>
 8    1  0.2943605E+004  0.1043930E+01  0.7957747E-01            NaN
         13   -1    0    0    0    0  0.00000000000E+00  0.00000000000E+00  0.74505805969E-08  0.10566000000E+00  0.10566000000E+00 0.  1.
     999900   -1    0    0    0    0 -0.00000000000E+00 -0.00000000000E+00 -0.74505805969E-08  0.93827000000E+00  0.93827000000E+00 0.  1.
     999902    2    1    2    0    0  0.12899870813E-01 -0.52972084840E-02 -0.30692191037E-02  0.10296510928E+01  0.10295520801E+01 0.  0.
     999903    2    3    3    0    0 -0.69056759520E-01  0.86915708712E-01 -0.69992552315E-01  0.13852885435E+00  0.44363381863E-01 0.  0.
         14    1    1    2    0    0 -0.12899870813E-01  0.52972084840E-02  0.30692191037E-02  0.14278907193E-01  0.00000000000E+00 0. -1.
     999901    1    3    3    0    0  0.81956630334E-01 -0.92212917196E-01  0.66923333211E-01  0.89112223846E+00  0.88000000000E+00 0.  1.
        -11    1    4    4    0    0 -0.12938822030E-01  0.51671322236E-01 -0.30418981497E-01  0.61342597055E-01  0.51100000000E-03 0. -1.
         11    1    4    4    0    0 -0.56117937490E-01  0.35244386476E-01 -0.39573570817E-01  0.77186257290E-01  0.51100000000E-03 0.  1.
</event>
<event>
 8    1  0.2943605E+004  0.1043930E+01  0.7957747E-01            NaN
         13   -1    0    0    0    0  0.00000000000E+00  0.00000000000E+00  0.74505805969E-08  0.10566000000E+00  0.10566000000E+00 0.  1.
     999900   -1    0    0    0    0 -0.00000000000E+00 -0.00000000000E+00 -0.74505805969E-08  0.93827000000E+00  0.93827000000E+00 0. -1.
     999902    2    1    2    0    0  0.99745769399E-03 -0.18063562931E-02 -0.13757424810E-01  0.10300186887E+01  0.10299247421E+01 0.  0.
     999903    2    3    3    0    0 -0.10634447665E+00  0.24302232938E-01  0.73360997799E-01  0.13884330255E+00  0.44675277563E-01 0.  0.
         14    1    1    2    0    0 -0.99745769399E-03  0.18063562931E-02  0.13757424810E-01  0.13911311308E-01  0.00000000000E+00 0.  1.
     999901    1    3    3    0    0  0.10734193435E+00 -0.26108589231E-01 -0.87118422609E-01  0.89117538614E+00  0.88000000000E+00 0.  1.
        -11    1    4    4    0    0 -0.54324544786E-01  0.25567673344E-01  0.17592125916E-01  0.62566813102E-01  0.51100000000E-03 0. -1.
         11    1    4    4    0    0 -0.52019931868E-01 -0.12654404063E-02  0.55768871883E-01  0.76276489452E-01  0.51100000000E-03 0.  1.
</event>
<event>
 8    1  0.2943605E+004  0.1043930E+01  0.7957747E-01            NaN
         13   -1    0    0    0    0  0.00000000000E+00  0.00000000000E+00  0.74505805969E-08  0.10566000000E+00  0.10566000000E+00 0.  1.
     999900   -1    0    0    0    0 -0.00000000000E+00 -0.00000000000E+00 -0.74505805969E-08  0.93827000000E+00  0.93827000000E+00 0.  1.
     999902    2    1    2    0    0 -0.36704576043E-02 -0.13195503446E-01 -0.33418854963E-02  0.10298317104E+01  0.10297352038E+01 0.  0.
     999903    2    3    3    0    0 -0.16895636105E-01  0.66319992200E-01 -0.11317080533E+00  0.13934868924E+00  0.43893303919E-01 0.  0.
         14    1    1    2    0    0  0.36704576043E-02  0.13195503446E-01  0.33418854963E-02  0.14098289573E-01  0.00000000000E+00 0.  1.
     999901    1    3    3    0    0  0.13225178500E-01 -0.79515495645E-01  0.10982891983E+00  0.89048302119E+00  0.88000000000E+00 0. -1.
        -11    1    4    4    0    0  0.50482486365E-02  0.52536406734E-01 -0.58168863977E-01  0.78545761847E-01  0.51100000000E-03 0. -1.
         11    1    4    4    0    0 -0.21943884741E-01  0.13783585466E-01 -0.55001941352E-01  0.60802927391E-01  0.51100000000E-03 0.  1.
</event>
<event>
 8    1  0.2943605E+004  0.1043930E+01  0.7957747E-01            NaN
         13   -1    0    0    0    0  0.00000000000E+00  0.00000000000E+00  0.74505805969E-08  0.10566000000E+00  0.10566000000E+00 0. -1.
     999900   -1    0    0    0    0 -0.00000000000E+00 -0.00000000000E+00 -0.74505805969E-08  0.93827000000E+00  0.93827000000E+00 0.  1.
     999902    2    1    2    0    0  0.31181229788E-02 -0.29248020347E-02  0.12508859152E-01  0.10307107445E+01  0.10306259701E+01 0.  0.
     999903    2    3    3    0    0 -0.97392456808E-02  0.10969290712E+00  0.75991940329E-01  0.14117257113E+00  0.45028136364E-01 0.  0.
         14    1    1    2    0    0 -0.31181229788E-02  0.29248020347E-02 -0.12508859152E-01  0.13219255469E-01  0.00000000000E+00 0.  1.
     999901    1    3    3    0    0  0.12857368660E-01 -0.11261770916E+00 -0.63483081176E-01  0.88953817340E+00  0.88000000000E+00 0.  1.
        -11    1    4    4    0    0 -0.11145146146E-01  0.68708907343E-01  0.21265595842E-01  0.72784716242E-01  0.51100000000E-03 0. -1.
         11    1    4    4    0    0  0.14059004654E-02  0.40983999781E-01  0.54726344487E-01  0.68387854887E-01  0.51100000000E-03 0.  1.
</event>
<event>
 8    1  0.2943605E+004  0.1043930E+01  0.7957747E-01            NaN
         13   -1    0    0    0    0  0.00000000000E+00  0.00000000000E+00  0.74505805969E-08  0.10566000000E+00  0.10566000000E+00 0.  1.
     999900   -1    0    0    0    0 -0.00000000000E+00 -0.00000000000E+00 -0.74505805969E-08  0.93827000000E+00  0.93827000000E+00 0. -1.
     999902    2    1    2    0    0  0.60070664290E-02 -0.10513586735E-01 -0.88894337003E-02  0.10289086024E+01  0.10287989453E+01 0.  0.
     999903    2    3    3    0    0  0.18836150459E-01  0.80629799392E-01  0.10039834257E+00  0.13738433453E+00  0.44030251762E-01 0.  0.
         14    1    1    2    0    0 -0.60070664290E-02  0.10513586735E-01  0.88894337003E-02  0.15021397559E-01  0.00000000000E+00 0.  1.
     999901    1    3    3    0    0 -0.12829084030E-01 -0.91143386127E-01 -0.10928777627E+00  0.89152426791E+00  0.88000000000E+00 0. -1.
        -11    1    4    4    0    0 -0.10373872737E-01  0.34250107710E-02  0.84680530034E-02  0.13831738033E-01  0.51100000000E-03 0.  1.
         11    1    4    4    0    0  0.29210023196E-01  0.77204788621E-01  0.91930289563E-01  0.12355259650E+00  0.51100000000E-03 0. -1.
</event>
<event>
 8    1  0.2943605E+004  0.1043930E+01  0.7957747E-01            NaN
         13   -1    0    0    0    0  0.00000000000E+00  0.00000000000E+00  0.74505805969E-08  0.10566000000E+00  0.10566000000E+00 0.  1.
     999900   -1    0    0    0    0 -0.00000000000E+00 -0.00000000000E+00 -0.74505805969E-08  0.93827000000E+00  0.93827000000E+00 0. -1.
     999902    2    1    2    0    0 -0.13570324205E-01 -0.11818515422E-02  0.47705941008E-03  0.10302999575E+01  0.10302097963E+01 0.  0.
     999903    2    3    3    0    0 -0.10822182802E+00 -0.29021261776E-01 -0.75380623916E-01  0.14154333839E+00  0.42403779160E-01 0.  0.
         14    1    1    2    0    0  0.13570324205E-01  0.11818515422E-02 -0.47705941008E-03  0.13630042472E-01  0.00000000000E+00 0. -1.
     999901    1    3    3    0    0  0.94651503812E-01  0.27839410234E-01  0.75857683326E-01  0.88875661913E+00  0.88000000000E+00 0.  1.
        -11    1    4    4    0    0 -0.61362910289E-01 -0.32047815236E-01 -0.61432316503E-01  0.92556252368E-01  0.51100000000E-03 0. -1.
         11    1    4    4    0    0 -0.46858917729E-01  0.30265534598E-02 -0.13948307413E-01  0.48987086025E-01  0.51100000000E-03 0.  1.
</event>
<event>
 8    1  0.2943605E+004  0.1043930E+01  0.7957747E-01            NaN
         13   -1    0    0    0    0  0.00000000000E+00  0.00000000000E+00  0.74505805969E-08  0.10566000000E+00  0.10566000000E+00 0. -1.
     999900   -1    0    0    0    0 -0.00000000000E+00 -0.00000000000E+00 -0.74505805969E-08  0.93827000000E+00  0.93827000000E+00 0.  1.
     999902    2    1    2    0    0  0.12137095592E-01  0.28080030139E-02 -0.68369459878E-02  0.10297195179E+01  0.10296214585E+01 0.  0.
     999903    2    3    3    0    0 -0.12707177417E+00  0.13355842370E-01 -0.28948883092E-01  0.13843992986E+00  0.44743290341E-01 0.  0.
         14    1    1    2    0    0 -0.12137095592E-01 -0.28080030139E-02  0.68369459878E-02  0.14210482074E-01  0.00000000000E+00 0. -1.
     999901    1    3    3    0    0  0.13920886977E+00 -0.10547839356E-01  0.22111937104E-01  0.89127958806E+00  0.88000000000E+00 0. -1.
        -11    1    4    4    0    0 -0.11698438062E+00 -0.13831298763E-02 -0.29152505182E-01  0.12057109122E+00  0.51100000000E-03 0.  1.
         11    1    4    4    0    0 -0.10087393551E-01  0.14738972246E-01  0.20362209035E-03  0.17868838644E-01  0.51100000000E-03 0. -1.
</event>
<event>
 8    1  0.2943605E+004  0.1043930E+01  0.7957747E-01            NaN
         13   -1    0    0    0    0  0.00000000000E+00  0.00000000000E+00  0.74505805969E-08  0.10566000000E+00  0.10566000000E+00 0.  1.
     999900   -1    0    0    0    0 -0.00000000000E+00 -0.00000000000E+00 -0.74505805969E-08  0.93827000000E+00  0.93827000000E+00 0.  1.
     999902    2    1    2    0    0 -0.29855367051E-02  0.90570416860E-02 -0.77672279798E-02  0.10316306803E+01  0.10315573602E+01 0.  0.
     999903    2    3    3    0    0 -0.71844802508E-01 -0.12709986567E-01  0.11150084496E+00  0.14065353404E+00  0.45030642964E-01 0.  0.
         14    1    1    2    0    0  0.29855367051E-02 -0.90570416860E-02  0.77672279798E-02  0.12299319656E-01  0.00000000000E+00 0.  1.
     999901    1    3    3    0    0  0.68859265802E-01  0.21767028253E-01 -0.11926807294E+00  0.89097714630E+00  0.88000000000E+00 0. -1.
        -11    1    4    4    0    0 -0.83924297321E-02 -0.14691177489E-01  0.68682638270E-02  0.18267395595E-01  0.51100000000E-03 0.  1.
         11    1    4    4    0    0 -0.63452372776E-01  0.19811909218E-02  0.10463258114E+00  0.12238613845E+00  0.51100000000E-03 0. -1.
</event>
<event>
 8    1  0.2943605E+004  0.1043930E+01  0.7957747E-01            NaN
         13   -1    0    0    0    0  0.00000000000E+00  0.00000000000E+00  0.74505805969E-08  0.10566000000E+00  0.10566000000E+00 0.  1.
     999900   -1    0    0    0    0 -0.00000000000E+00 -0.00000000000E+00 -0.74505805969E-08  0.93827000000E+00  0.93827000000E+00 0. -1.
     999902    2    1    2    0    0  0.31930124157E-02  0.11004957879E-01 -0.64117486980E-02  0.10307993128E+01  0.10307156777E+01 0.  0.
     999903    2    3    3    0    0 -0.11492362167E+00  0.68525197848E-01 -0.96153735265E-02  0.14104070478E+00  0.43553225353E-01 0.  0.
         14    1    1    2    0    0 -0.31930124157E-02 -0.11004957879E-01  0.64117486980E-02  0.13130687247E-01  0.00000000000E+00 0.  1.
     999901    1    3    3    0    0  0.11811663408E+00 -0.57520239969E-01  0.32036248284E-02  0.88975860797E+00  0.88000000000E+00 0. -1.
        -11    1    4    4    0    0 -0.70984382308E-01  0.17537876534E-01 -0.94648619561E-02  0.73730620354E-01  0.51100000000E-03 0.  1.
         11    1    4    4    0    0 -0.43939239361E-01  0.50987321314E-01 -0.15051157037E-03  0.67310084424E-01  0.51100000000E-03 0. -1.
</event>
<event>
 8    1  0.2943605E+004  0.1043930E+01  0.7957747E-01            NaN
         13   -1    0    0    0    0  0.00000000000E+00  0.00000000000E+00  0.74505805969E-08  0.10566000000E+00  0.10566000000E+00 0.  1.
     999900   -1    0    0    0    0 -0.00000000000E+00 -0.00000000000E+00 -0.74505805969E-08  0.93827000000E+00  0.93827000000E+00 0. -1.
     999902    2    1    2    0    0 -0.32389790298E-02  0.32234739108E-02  0.15585459985E-01  0.10276884381E+01  0.10275600895E+01 0.  0.
     999903    2    3    3    0    0  0.24991736865E-01 -0.12150113491E+00  0.40613496003E-01  0.13809324707E+00  0.45090754385E-01 0.  0.
         14    1    1    2    0    0  0.32389790298E-02 -0.32234739108E-02 -0.15585459985E-01  0.16241561875E-01  0.00000000000E+00 0. -1.
     999901    1    3    3    0    0 -0.28230715895E-01  0.12472460882E+00 -0.25028036018E-01  0.88959519106E+00  0.88000000000E+00 0.  1.
        -11    1    4    4    0    0  0.91758646257E-02 -0.49486081547E-01  0.40108292945E-01  0.64358410813E-01  0.51100000000E-03 0. -1.
         11    1    4    4    0    0  0.15815872240E-01 -0.72015053367E-01  0.50520305788E-03  0.73734836253E-01  0.51100000000E-03 0.  1.
</event>
<event>
 8    1  0.2943605E+004  0.1043930E+01  0.7957747E-01            NaN
         13   -1    0    0    0    0  0.00000000000E+00  0.00000000000E+00  0.74505805969E-08  0.10566000000E+00  0.10566000000E+00 0. -1.
     999900   -1    0    0    0    0 -0.00000000000E+00 -0.00000000000E+00 -0.74505805969E-08  0.93827000000E+00  0.93827000000E+00 0.  1.
     999902    2    1    2    0    0 -0.17380697885E-02  0.38334261651E-02  0.13205287277E-01  0.10300701423E+01  0.10299768941E+01 0.  0.
     999903    2    3    3    0    0 -0.12496092198E+00  0.38604191418E-01  0.26435667237E-01  0.14070636952E+00  0.44653357141E-01 0.  0.
         14    1    1    2    0    0  0.17380697885E-02 -0.38334261651E-02 -0.13205287277E-01  0.13859857677E-01  0.00000000000E+00 0.  1.
     999901    1    3    3    0    0  0.12322285219E+00 -0.34770765253E-01 -0.13230379960E-01  0.88936377280E+00  0.88000000000E+00 0. -1.
        -11    1    4    4    0    0 -0.70443147430E-01  0.42768198736E-01  0.24568636277E-01  0.85995551352E-01  0.51100000000E-03 0.  1.
         11    1    4    4    0    0 -0.54517774552E-01 -0.41640073179E-02  0.18670309602E-02  0.54710818169E-01  0.51100000000E-03 0. -1.
</event>
<event>
 7    1  0.2943605E+004  0.1043930E+01  0.7957747E-01            NaN
         13   -1    0    0    0    0  0.00000000000E+00  0.00000000000E+00  0.74505805969E-08  0.10566000000E+00  0.10566000000E+00 0. -1.
     999900   -1    0    0    0    0 -0.00000000000E+00 -0.00000000000E+00 -0.74505805969E-08  0.93827000000E+00  0.93827000000E+00 0.  1.
     999903    2    1    2    0    0  0.78840093776E-03 -0.83796411314E-01  0.50645063039E-01  0.10749160854E+00  0.44351588154E-01 0.  0.
         14    1    1    2    0    0  0.10209184277E-01  0.53512870700E-01 -0.27869673246E-02  0.54549261782E-01  0.00000000000E+00 0. -1.
     999901    1    1    2    0    0 -0.10997585215E-01  0.30283540614E-01 -0.47858095715E-01  0.88188912967E+00  0.88000000000E+00 0.  1.
        -11    1    3    3    0    0 -0.12126656155E-01 -0.73892171048E-01  0.28764842964E-01  0.80217118145E-01  0.51100000000E-03 0.  1.
         11    1    3    3    0    0  0.12915057093E-01 -0.99042402661E-02  0.21880220075E-01  0.27274490398E-01  0.51100000000E-03 0. -1.
</event>
<event>
 8    1  0.2943605E+004  0.1043930E+01  0.7957747E-01            NaN
         13   -1    0    0    0    0  0.00000000000E+00  0.00000000000E+00  0.74505805969E-08  0.10566000000E+00  0.10566000000E+00 0.  1.
     999900   -1    0    0    0    0 -0.00000000000E+00 -0.00000000000E+00 -0.74505805969E-08  0.93827000000E+00  0.93827000000E+00 0.  1.
     999902    2    1    2    0    0 -0.21395187840E-02 -0.12370200032E-01 -0.48397900723E-02  0.10304755228E+01  0.10303876844E+01 0.  0.
     999903    2    3    3    0    0  0.10782724954E+00  0.59492964417E-01 -0.48379608158E-01  0.13965976163E+00  0.44700491882E-01 0.  0.
         14    1    1    2    0    0  0.21395187840E-02  0.12370200032E-01  0.48397900723E-02  0.13454477225E-01  0.00000000000E+00 0. -1.
     999901    1    3    3    0    0 -0.10996676833E+00 -0.71863164449E-01  0.43539818085E-01  0.89081576114E+00  0.88000000000E+00 0. -1.
        -11    1    4    4    0    0  0.87599844763E-01  0.27188198571E-01 -0.25500034185E-01  0.95202120819E-01  0.51100000000E-03 0.  1.
         11    1    4    4    0    0  0.20227404781E-01  0.32304765846E-01 -0.22879573972E-01  0.44457640814E-01  0.51100000000E-03 0. -1.
</event>
<event>
 7    1  0.2943605E+004  0.1043930E+01  0.7957747E-01            NaN
         13   -1    0    0    0    0  0.00000000000E+00  0.00000000000E+00  0.74505805969E-08  0.10566000000E+00  0.10566000000E+00 0.  1.
     999900   -1    0    0    0    0 -0.00000000000E+00 -0.00000000000E+00 -0.74505805969E-08  0.93827000000E+00  0.93827000000E+00 0. -1.
     999902    2    1    2    0    0  0.35347646583E-02  0.73850566220E-02 -0.11061218141E-01  0.10301683079E+01  0.10300763848E+01 0.  0.
         14    1    1    2    0    0 -0.35347646583E-02 -0.73850566220E-02  0.11061218141E-01  0.13761692093E-01  0.00000000000E+00 0.  1.
     999901    1    3    3    0    0  0.67645788815E-01  0.11563141047E+00 -0.15755784035E-01  0.89027794568E+00  0.88000000000E+00 0. -1.
        -11    1    3    3    0    0  0.11448100913E-01 -0.17496625361E-01 -0.46716764236E-02  0.21430739491E-01  0.51100000000E-03 0. -1.
         11    1    3    3    0    0 -0.75559125070E-01 -0.90749728492E-01  0.93662423180E-02  0.11845962274E+00  0.51100000000E-03 0.  1.
</event>
<event>
 8    1  0.2943605E+004  0.1043930E+01  0.7957747E-01            NaN
         13   -1    0    0    0    0  0.00000000000E+00  0.00000000000E+00  0.74505805969E-08  0.10566000000E+00  0.10566000000E+00 0. -1.
     999900   -1    0    0    0    0 -0.00000000000E+00 -0.00000000000E+00 -0.74505805969E-08  0.93827000000E+00  0.93827000000E+00 0.  1.
     999902    2    1    2    0    0  0.31569412050E-02 -0.33877583125E-02 -0.12346522493E-01  0.10307436509E+01  0.10306593007E+01 0.  0.
     999903    2    3    3    0    0 -0.27813241799E-01  0.11983536458E+00 -0.51531094889E-01  0.14075571788E+00  0.44973629541E-01 0.  0.
         14    1    1    2    0    0 -0.31569412050E-02  0.33877583125E-02  0.12346522493E-01  0.13186349071E-01  0.00000000000E+00 0. -1.
     999901    1    3    3    0    0  0.30970183004E-01 -0.12322312289E+00  0.39184572395E-01  0.88998793304E+00  0.88000000000E+00 0. -1.
        -11    1    4    4    0    0 -0.56019029749E-02  0.92313989455E-01 -0.50491941803E-01  0.10537054272E+00  0.51100000000E-03 0. -1.
         11    1    4    4    0    0 -0.22211338824E-01  0.27521375122E-01 -0.10391530860E-02  0.35385175160E-01  0.51100000000E-03 0.  1.
</event>
<event>
 8    1  0.2943605E+004  0.1043930E+01  0.7957747E-01            NaN
         13   -1    0    0    0    0  0.00000000000E+00  0.00000000000E+00  0.74505805969E-08  0.10566000000E+00  0.10566000000E+00 0.  1.
     999900   -1    0    0    0    0 -0.00000000000E+00 -0.00000000000E+00 -0.74505805969E-08  0.93827000000E+00  0.93827000000E+00 0.  1.
     999902    2    1    2    0    0  0.21678896225E-02 -0.74677994705E-02 -0.73934849633E-02  0.10332000702E+01  0.10331443527E+01 0.  0.
     999903    2    3    3    0    0  0.54431214205E-01  0.14189274642E-02  0.12361434107E+00  0.14192374966E+00  0.43555424060E-01 0.  0.
         14    1    1    2    0    0 -0.21678896225E-02  0.74677994705E-02  0.73934849633E-02  0.10729929834E-01  0.00000000000E+00 0.  1.
     999901    1    3    3    0    0 -0.52263324583E-01 -0.88867269347E-02 -0.13100782603E+00  0.89127632051E+00  0.88000000000E+00 0.  1.
        -11    1    4    4    0    0  0.39936798431E-01  0.86656211953E-02  0.41580171927E-01  0.58302767328E-01  0.51100000000E-03 0. -1.
         11    1    4    4    0    0  0.14494415774E-01 -0.72466937312E-02  0.82034169140E-01  0.83620982332E-01  0.51100000000E-03 0.  1.
</event>
<event>
 8    1  0.2943605E+004  0.1043930E+01  0.7957747E-01            NaN
         13   -1    0    0    0    0  0.00000000000E+00  0.00000000000E+00  0.74505805969E-08  0.10566000000E+00  0.10566000000E+00 0. -1.
     999900   -1    0    0    0    0 -0.00000000000E+00 -0.00000000000E+00 -0.74505805969E-08  0.93827000000E+00  0.93827000000E+00 0. -1.
     999902    2    1    2    0    0 -0.10780248790E-01 -0.98919725668E-02  0.43012336781E-02  0.10286799018E+01  0.10285668548E+01 0.  0.
     999903    2    3    3    0    0  0.22977140877E-01 -0.10575353160E+00 -0.75820831192E-01  0.13921458757E+00  0.43819453473E-01 0.  0.
         14    1    1    2    0    0  0.10780248790E-01  0.98919725668E-02 -0.43012336781E-02  0.15250098242E-01  0.00000000000E+00 0. -1.
     999901    1    3    3    0    0 -0.33757389666E-01  0.95861559031E-01  0.80122064870E-01  0.88946531418E+00  0.88000000000E+00 0.  1.
        -11    1    4    4    0    0  0.29449101004E-01 -0.37563697429E-01 -0.37677683961E-01  0.60812415707E-01  0.51100000000E-03 0.  1.
         11    1    4    4    0    0 -0.64719601271E-02 -0.68189834169E-01 -0.38143147231E-01  0.78402171867E-01  0.51100000000E-03 0. -1.
</event>
<event>
 8    1  0.2943605E+004  0.1043930E+01  0.7957747E-01            NaN
         13   -1    0    0    0    0  0.00000000000E+00  0.00000000000E+00  0.74505805969E-08  0.10566000000E+00  0.10566000000E+00 0. -1.
     999900   -1    0    0    0    0 -0.00000000000E+00 -0.00000000000E+00 -0.74505805969E-08  0.93827000000E+00  0.93827000000E+00 0. -1.
     999902    2    1    2    0    0 -0.72572789385E-02 -0.86008134502E-02  0.69078753683E-02  0.10307254238E+01  0.10306408388E+01 0.  0.
     999903    2    3    3    0    0  0.22325525389E-01 -0.11525221172E-01 -0.12985244817E+00  0.13966589689E+00  0.44873652077E-01 0.  0.
         14    1    1    2    0    0  0.72572789385E-02  0.86008134502E-02 -0.69078753683E-02  0.13204576165E-01  0.00000000000E+00 0. -1.
     999901    1    3    3    0    0 -0.29582804328E-01  0.29244077216E-02  0.13676032354E+00  0.89105952695E+00  0.88000000000E+00 0.  1.
        -11    1    4    4    0    0  0.31915169800E-01  0.29512311088E-02 -0.10122946987E+00  0.10618358874E+00  0.51100000000E-03 0. -1.
         11    1    4    4    0    0 -0.95896444107E-02 -0.14476452281E-01 -0.28622978302E-01  0.33482308141E-01  0.51100000000E-03 0.  1.
</event>
<event>
 8    1  0.2943605E+004  0.1043930E+01  0.7957747E-01            NaN
         13   -1    0    0    0    0  0.00000000000E+00  0.00000000000E+00  0.74505805969E-08  0.10566000000E+00  0.10566000000E+00 0.  1.
     999900   -1    0    0    0    0 -0.00000000000E+00 -0.00000000000E+00 -0.74505805969E-08  0.93827000000E+00  0.93827000000E+00 0. -1.
     999902    2    1    2    0    0  0.44797579094E-02  0.11611147423E-01 -0.91917948124E-03  0.10314507426E+01  0.10313752481E+01 0.  0.
     999903    2    3    3    0    0  0.58057170985E-01  0.62440716024E-01  0.10470731272E+00  0.14206267198E+00  0.44144119774E-01 0.  0.
         14    1    1    2    0    0 -0.44797579094E-02 -0.11611147423E-01  0.91917948124E-03  0.12479257443E-01  0.00000000000E+00 0. -1.
     999901    1    3    3    0    0 -0.53577413075E-01 -0.50829568601E-01 -0.10562649221E+00  0.88938807058E+00  0.88000000000E+00 0. -1.
        -11    1    4    4    0    0  0.43870920774E-01  0.46111760410E-01  0.43368748879E-01  0.77019878201E-01  0.51100000000E-03 0. -1.
         11    1    4    4    0    0  0.14186250211E-01  0.16328955614E-01  0.61338563846E-01  0.65042793776E-01  0.51100000000E-03 0.  1.
</event>
<event>
 8    1  0.2943605E+004  0.1043930E+01  0.7957747E-01            NaN
         13   -1    0    0    0    0  0.00000000000E+00  0.00000000000E+00  0.74505805969E-08  0.10566000000E+00  0.10566000000E+00 0.  1.
     999900   -1    0    0    0    0 -0.00000000000E+00 -0.00000000000E+00 -0.74505805969E-08  0.93827000000E+00  0.93827000000E+00 0. -1.
     999902    2    1    2    0    0  0.11250006207E-01 -0.82386860194E-02  0.51175324237E-02  0.10290764575E+01  0.10289692550E+01 0.  0.
     999903    2    3    3    0    0  0.13459599172E-01  0.11879502082E+00 -0.52268004750E-01  0.13810196580E+00  0.45241472734E-01 0.  0.
         14    1    1    2    0    0 -0.11250006207E-01  0.82386860194E-02 -0.51175324237E-02  0.14853542510E-01  0.00000000000E+00 0. -1.
     999901    1    3    3    0    0 -0.22095929654E-02 -0.12703370684E+00  0.57385537173E-01  0.89097449169E+00  0.88000000000E+00 0. -1.
        -11    1    4    4    0    0  0.12670859400E-01  0.69303359900E-01 -0.53691807225E-01  0.88580910220E-01  0.51100000000E-03 0.  1.
         11    1    4    4    0    0  0.78873977230E-03  0.49491660918E-01  0.14238024752E-02  0.49521055576E-01  0.51100000000E-03 0. -1.
</event>
<event>
 8    1  0.2943605E+004  0.1043930E+01  0.7957747E-01            NaN
         13   -1    0    0    0    0  0.00000000000E+00  0.00000000000E+00  0.74505805969E-08  0.10566000000E+00  0.10566000000E+00 0. -1.
     999900   -1    0    0    0    0 -0.00000000000E+00 -0.00000000000E+00 -0.74505805969E-08  0.93827000000E+00  0.93827000000E+00 0. -1.
     999902    2    1    2    0    0 -0.22270625075E-02 -0.43459158230E-02  0.12557217980E-01  0.10304566739E+01  0.10303685876E+01 0.  0.
     999903    2    3    3    0    0  0.10709463576E+00 -0.63266517476E-01 -0.45087878369E-01  0.13986932385E+00  0.45371772444E-01 0.  0.
         14    1    1    2    0    0  0.22270625075E-02  0.43459158230E-02 -0.12557217980E-01  0.13473326061E-01  0.00000000000E+00 0.  1.
     999901    1    3    3    0    0 -0.10932169827E+00  0.58920601653E-01  0.57645096349E-01  0.89058735009E+00  0.88000000000E+00 0.  1.
        -11    1    4    4    0    0  0.95102922215E-01 -0.41359461947E-01 -0.22347031980E-01  0.10608874524E+00  0.51100000000E-03 0. -1.
         11    1    4    4    0    0  0.11991713548E-01 -0.21907055529E-01 -0.22740846390E-01  0.33780578611E-01  0.51100000000E-03 0.  1.
</event>
<event>
 8    1  0.2943605E+004  0.1043930E+01  0.7957747E-01            NaN
         13   -1    0    0    0    0  0.00000000000E+00  0.00000000000E+00  0.74505805969E-08  0.10566000000E+00  0.10566000000E+00 0.  1.
     999900   -1    0    0    0    0 -0.00000000000E+00 -0.00000000000E+00 -0.74505805969E-08  0.93827000000E+00  0.93827000000E+00 0. -1.
     999902    2    1    2    0    0  0.99850002397E-02  0.38795628265E-02  0.91024746147E-02  0.10298727499E+01  0.10297768082E+01 0.  0.
     999903    2    3    3    0    0  0.12400862367E+00  0.47850027759E-01  0.16814208949E-01  0.14139412922E+00  0.45186483085E-01 0.  0.
         14    1    1    2    0    0 -0.99850002397E-02 -0.38795628265E-02 -0.91024746147E-02  0.14057250144E-01  0.00000000000E+00 0. -1.
     999901    1    3    3    0    0 -0.11402362343E+00 -0.43970464933E-01 -0.77117343344E-02  0.88847862064E+00  0.88000000000E+00 0. -1.
        -11    1    4    4    0    0  0.26779922111E-01  0.23799147792E-01 -0.10932841743E-01  0.37461337583E-01  0.51100000000E-03 0.  1.
         11    1    4    4    0    0  0.97228701557E-01  0.24050879968E-01  0.27747050692E-01  0.10393279163E+00  0.51100000000E-03 0. -1.
</event>
<event>
 8    1  0.2943605E+004  0.1043930E+01  0.7957747E-01            NaN
         13   -1    0    0    0    0  0.00000000000E+00  0.00000000000E+00  0.74505805969E-08  0.10566000000E+00  0.10566000000E+00 0.  1.
     999900   -1    0    0    0    0 -0.00000000000E+00 -0.00000000000E+00 -0.74505805969E-08  0.93827000000E+00  0.93827000000E+00 0.  1.
     999902    2    1    2    0    0 -0.81269377055E-02  0.10103217111E-01  0.51735518195E-02  0.10299697797E+01  0.10298751669E+01 0.  0.
     999903    2    3    3    0    0  0.16957836998E-01 -0.23980484851E-01 -0.12811127760E+00  0.13892781076E+00  0.45008946482E-01 0.  0.
         14    1    1    2    0    0  0.81269377055E-02 -0.10103217111E-01 -0.51735518195E-02  0.13960220302E-01  0.00000000000E+00 0. -1.
     999901    1    3    3    0    0 -0.25084774704E-01  0.34083701962E-01  0.13328482942E+00  0.89104196894E+00  0.88000000000E+00 0. -1.
        -11    1    4    4    0    0  0.26286044075E-01 -0.31551587567E-01 -0.89195007319E-01  0.98196075496E-01  0.51100000000E-03 0. -1.
         11    1    4    4    0    0 -0.93282070769E-02  0.75711027160E-02 -0.38916270283E-01  0.40731735260E-01  0.51100000000E-03 0.  1.
</event>
<event>
 8    1  0.2943605E+004  0.1043930E+01  0.7957747E-01            NaN
         13   -1    0    0    0    0  0.00000000000E+00  0.00000000000E+00  0.74505805969E-08  0.10566000000E+00  0.10566000000E+00 0. -1.
     999900   -1    0    0    0    0 -0.00000000000E+00 -0.00000000000E+00 -0.74505805969E-08  0.93827000000E+00  0.93827000000E+00 0. -1.
     999902    2    1    2    0    0 -0.23867135429E-02  0.13565954900E-01  0.32385778414E-02  0.10297800912E+01  0.10296828717E+01 0.  0.
     999903    2    3    3    0    0 -0.33465944198E-01 -0.11745429027E+00  0.47405840540E-01  0.13844234915E+00  0.44760368611E-01 0.  0.
         14    1    1    2    0    0  0.23867135429E-02 -0.13565954900E-01 -0.32385778414E-02  0.14149908845E-01  0.00000000000E+00 0.  1.
     999901    1    3    3    0    0  0.31079230655E-01  0.13102024517E+00 -0.44167262699E-01  0.89133774200E+00  0.88000000000E+00 0. -1.
        -11    1    4    4    0    0 -0.30504195818E-02 -0.80789615520E-01  0.40090909430E-01  0.90243056106E-01  0.51100000000E-03 0. -1.
         11    1    4    4    0    0 -0.30415524616E-01 -0.36664674749E-01  0.73149311103E-02  0.48199293047E-01  0.51100000000E-03 0.  1.
</event>
<event>
 8    1  0.2943605E+004  0.1043930E+01  0.7957747E-01            NaN
         13   -1    0    0    0    0  0.00000000000E+00  0.00000000000E+00  0.74505805969E-08  0.10566000000E+00  0.10566000000E+00 0. -1.
     999900   -1    0    0    0    0 -0.00000000000E+00 -0.00000000000E+00 -0.74505805969E-08  0.93827000000E+00  0.93827000000E+00 0.  1.
     999902    2    1    2    0    0  0.62286310070E-02  0.69211849189E-02  0.29433274674E-03  0.10346141384E+01  0.10345721967E+01 0.  0.
     999903    2    3    3    0    0  0.29581852378E-01  0.12450598491E+00 -0.50992200971E-01  0.14500643463E+00  0.45275106360E-01 0.  0.
         14    1    1    2    0    0 -0.62286310070E-02 -0.69211849189E-02 -0.29433274674E-03  0.93158615635E-02  0.00000000000E+00 0.  1.
     999901    1    3    3    0    0 -0.23353221371E-01 -0.11758479999E+00  0.51286533718E-01  0.88960770381E+00  0.88000000000E+00 0. -1.
        -11    1    4    4    0    0  0.18858325602E-01  0.54250513306E-01 -0.46310712746E-01  0.73781419575E-01  0.51100000000E-03 0.  1.
         11    1    4    4    0    0  0.10723526776E-01  0.70255471599E-01 -0.46814882257E-02  0.71225015052E-01  0.51100000000E-03 0. -1.
</event>
<event>
 8    1  0.2943605E+004  0.1043930E+01  0.7957747E-01            NaN
         13   -1    0    0    0    0  0.00000000000E+00  0.00000000000E+00  0.74505805969E-08  0.10566000000E+00  0.10566000000E+00 0.  1.
     999900   -1    0    0    0    0 -0.00000000000E+00 -0.00000000000E+00 -0.74505805969E-08  0.93827000000E+00  0.93827000000E+00 0. -1.
     999902    2    1    2    0    0 -0.10034347733E-01 -0.24080874871E-02 -0.11824169894E-01  0.10282361154E+01  0.10281163412E+01 0.  0.
     999903    2    3    3    0    0  0.10403670442E+00  0.40098881348E-01  0.64632346651E-01  0.13657213932E+00  0.45200142180E-01 0.  0.
         14    1    1    2    0    0  0.10034347733E-01  0.24080874871E-02  0.11824169894E-01  0.15693884588E-01  0.00000000000E+00 0.  1.
     999901    1    3    3    0    0 -0.11407105215E+00 -0.42506968835E-01 -0.76456516545E-01  0.89166397609E+00  0.88000000000E+00 0.  1.
        -11    1    4    4    0    0  0.66198159976E-01  0.39744611448E-01  0.23572502093E-01  0.80732611127E-01  0.51100000000E-03 0. -1.
         11    1    4    4    0    0  0.37838544442E-01  0.35426989977E-03  0.41059844558E-01  0.55839528193E-01  0.51100000000E-03 0.  1.
</event>
<event>
 8    1  0.2943605E+004  0.1043930E+01  0.7957747E-01            NaN
         13   -1    0    0    0    0  0.00000000000E+00  0.00000000000E+00  0.74505805969E-08  0.10566000000E+00  0.10566000000E+00 0.  1.
     999900   -1    0    0    0    0 -0.00000000000E+00 -0.00000000000E+00 -0.74505805969E-08  0.93827000000E+00  0.93827000000E+00 0.  1.
     999902    2    1    2    0    0 -0.23902044508E-02 -0.74761125486E-02 -0.11109318998E-01  0.10303277096E+01  0.10302379176E+01 0.  0.
     999903    2    3    3    0    0 -0.10634324648E+00 -0.74791411399E-01  0.29422207685E-01  0.14073207725E+00  0.45135462437E-01 0.  0.
         14    1    1    2    0    0  0.23902044508E-02  0.74761125486E-02  0.11109318998E-01  0.13602290423E-01  0.00000000000E+00 0.  1.
     999901    1    3    3    0    0  0.10395304203E+00  0.67315298851E-01 -0.40531526683E-01  0.88959563233E+00  0.88000000000E+00 0. -1.
        -11    1    4    4    0    0 -0.56026808432E-03 -0.12376851867E-01  0.10917630373E-01  0.16521384217E-01  0.51100000000E-03 0.  1.
         11    1    4    4    0    0 -0.10578297840E+00 -0.62414559532E-01  0.18504577312E-01  0.12421069303E+00  0.51100000000E-03 0. -1.
</event>
<event>
 8    1  0.2943605E+004  0.1043930E+01  0.7957747E-01            NaN
         13   -1    0    0    0    0  0.00000000000E+00  0.00000000000E+00  0.74505805969E-08  0.10566000000E+00  0.10566000000E+00 0. -1.
     999900   -1    0    0    0    0 -0.00000000000E+00 -0.00000000000E+00 -0.74505805969E-08  0.93827000000E+00  0.93827000000E+00 0.  1.
     999902    2    1    2    0    0 -0.85604475240E-02 -0.44260229009E-02 -0.97777721234E-02  0.10302013523E+01  0.10301098730E+01 0.  0.
     999903    2    3    3    0    0  0.11507877602E-01 -0.10194164602E+00 -0.86042834017E-01  0.14130968616E+00  0.45172200272E-01 0.  0.
         14    1    1    2    0    0  0.85604475240E-02  0.44260229009E-02  0.97777721234E-02  0.13728647720E-01  0.00000000000E+00 0. -1.
     999901    1    3    3    0    0 -0.20068325126E-01  0.97515623120E-01  0.76265061894E-01  0.88889166612E+00  0.88000000000E+00 0. -1.
        -11    1    4    4    0    0 -0.93328145467E-02 -0.21598196548E-01 -0.39950061801E-01  0.46366497392E-01  0.51100000000E-03 0. -1.
         11    1    4    4    0    0  0.20840692149E-01 -0.80343449473E-01 -0.46092772216E-01  0.94943188771E-01  0.51100000000E-03 0.  1.
</event>
<event>
 8    1  0.2943605E+004  0.1043930E+01  0.7957747E-01            NaN
         13   -1    0    0    0    0  0.00000000000E+00  0.00000000000E+00  0.74505805969E-08  0.10566000000E+00  0.10566000000E+00 0. -1.
     999900   -1    0    0    0    0 -0.00000000000E+00 -0.00000000000E+00 -0.74505805969E-08  0.93827000000E+00  0.93827000000E+00 0.  1.
     999902    2    1    2    0    0  0.97488520235E-02  0.99272854848E-02 -0.42428129010E-03  0.10300098302E+01  0.10299157631E+01 0.  0.
     999903    2    3    3    0    0  0.61038598685E-01  0.87450287663E-01  0.80430327058E-01  0.14142785779E+00  0.46470830719E-01 0.  0.
         14    1    1    2    0    0 -0.97488520235E-02 -0.99272854848E-02  0.42428129010E-03  0.13920169808E-01  0.00000000000E+00 0.  1.
     999901    1    3    3    0    0 -0.51289746661E-01 -0.77523002179E-01 -0.80854608349E-01  0.88858197240E+00  0.88000000000E+00 0.  1.
        -11    1    4    4    0    0  0.17961852640E-01  0.64291058052E-01  0.53811211030E-01  0.85743080474E-01  0.51100000000E-03 0.  1.
         11    1    4    4    0    0  0.43076746045E-01  0.23159229611E-01  0.26619116029E-01  0.55684777320E-01  0.51100000000E-03 0. -1.
</event>
<event>
 8    1  0.2943605E+004  0.1043930E+01  0.7957747E-01            NaN
         13   -1    0    0    0    0  0.00000000000E+00  0.00000000000E+00  0.74505805969E-08  0.10566000000E+00  0.10566000000E+00 0.  1.
     999900   -1    0    0    0    0 -0.00000000000E+00 -0.00000000000E+00 -0.74505805969E-08  0.93827000000E+00  0.93827000000E+00 0.  1.
     999902    2    1    2    0    0  0.11734237714E-01 -0.29869667343E-02  0.54501766832E-02  0.10306514937E+01  0.10305659526E+01 0.  0.
     999903    2    3    3    0    0  0.40385837844E-01 -0.45040809568E-01 -0.11831425010E+00  0.14053516798E+00  0.45740367699E-01 0.  0.
         14    1    1    2    0    0 -0.11734237714E-01  0.29869667343E-02 -0.54501766832E-02  0.13278506349E-01  0.00000000000E+00 0. -1.
     999901    1    3    3    0    0 -0.28651600130E-01  0.42053842834E-01  0.12376442679E+00  0.89011632567E+00  0.88000000000E+00 0. -1.
        -11    1    4    4    0    0 -0.72964385506E-02  0.11612191803E-02 -0.24551465037E-01  0.25644141669E-01  0.51100000000E-03 0. -1.
         11    1    4    4    0    0  0.47682276394E-01 -0.46202028748E-01 -0.93762785065E-01  0.11489102631E+00  0.51100000000E-03 0.  1.
</event>
<event>
 8    1  0.2943605E+004  0.1043930E+01  0.7957747E-01            NaN
         13   -1    0    0    0    0  0.00000000000E+00  0.00000000000E+00  0.74505805969E-08  0.10566000000E+00  0.10566000000E+00 0.  1.
     999900   -1    0    0    0    0 -0.00000000000E+00 -0.00000000000E+00 -0.74505805969E-08  0.93827000000E+00  0.93827000000E+00 0. -1.
     999902    2    1    2    0    0  0.65056459643E-02 -0.12126250738E-01 -0.36405856499E-02  0.10296954206E+01  0.10295970260E+01 0.  0.
     999903    2    3    3    0    0 -0.19518378054E-01 -0.98726837514E-01 -0.87990328156E-01  0.14104937718E+00  0.44996371254E-01 0.  0.
         14    1    1    2    0    0 -0.65056459643E-02  0.12126250738E-01  0.36405856499E-02  0.14234579384E-01  0.00000000000E+00 0.  1.
     999901    1    3    3    0    0  0.26024024018E-01  0.86600586777E-01  0.84349742506E-01  0.88864604344E+00  0.88000000000E+00 0.  1.
        -11    1    4    4    0    0 -0.28869909914E-01 -0.35390046388E-01 -0.43573664539E-01  0.63125687673E-01  0.51100000000E-03 0. -1.
         11    1    4    4    0    0  0.93515318605E-02 -0.63336791127E-01 -0.44416663616E-01  0.77923689505E-01  0.51100000000E-03 0.  1.
</event>
<event>
 8    1  0.2943605E+004  0.1043930E+01  0.7957747E-01            NaN
         13   -1    0    0    0    0  0.00000000000E+00  0.00000000000E+00  0.74505805969E-08  0.10566000000E+00  0.10566000000E+00 0.  1.
     999900   -1    0    0    0    0 -0.00000000000E+00 -0.00000000000E+00 -0.74505805969E-08  0.93827000000E+00  0.93827000000E+00 0.  1.
     999902    2    1    2    0    0  0.94103278407E-02 -0.89864204652E-02 -0.78988018394E-03  0.10308941290E+01  0.10308117050E+01 0.  0.
     999903    2    3    3    0    0 -0.45627954091E-01 -0.74257213026E-01 -0.10133492947E+00  0.14106336091E+00  0.45100554103E-01 0.  0.
         14    1    1    2    0    0 -0.94103278407E-02  0.89864204652E-02  0.78988018394E-03  0.13035871032E-01  0.00000000000E+00 0.  1.
     999901    1    3    3    0    0  0.55038281931E-01  0.65270792561E-01  0.10054504929E+00  0.88983076805E+00  0.88000000000E+00 0.  1.
        -11    1    4    4    0    0 -0.17616329688E-01 -0.37229075367E-01 -0.79963071443E-01  0.89948279805E-01  0.51100000000E-03 0. -1.
         11    1    4    4    0    0 -0.28011624402E-01 -0.37028137659E-01 -0.21371858030E-01  0.51115081109E-01  0.51100000000E-03 0.  1.
</event>
<event>
 7    1  0.2943605E+004  0.1043930E+01  0.7957747E-01            NaN
         13   -1    0    0    0    0  0.00000000000E+00  0.00000000000E+00  0.74505805969E-08  0.10566000000E+00  0.10566000000E+00 0.  1.
     999900   -1    0    0    0    0 -0.00000000000E+00 -0.00000000000E+00 -0.74505805969E-08  0.93827000000E+00  0.93827000000E+00 0. -1.
     999903    2    1    2    0    0  0.71360321948E-01 -0.49528317733E-01  0.33484438469E-01  0.10353149182E+00  0.45301350681E-01 0.  0.
         14    1    1    2    0    0 -0.17670488670E-02  0.51952989773E-01  0.20777235581E-01  0.55981507004E-01  0.00000000000E+00 0.  1.
     999901    1    1    2    0    0 -0.69593273081E-01 -0.24246720407E-02 -0.54261674049E-01  0.88441700117E+00  0.88000000000E+00 0.  1.
        -11    1    3    3    0    0  0.28224410644E-02 -0.15559448921E-01  0.20573920233E-01  0.25953996591E-01  0.51100000000E-03 0. -1.
         11    1    3    3    0    0  0.68537880884E-01 -0.33968868812E-01  0.12910518236E-01  0.77577495233E-01  0.51100000000E-03 0.  1.
</event>
<event>
 8    1  0.2943605E+004  0.1043930E+01  0.7957747E-01            NaN
         13   -1    0    0    0    0  0.00000000000E+00  0.00000000000E+00  0.74505805969E-08  0.10566000000E+00  0.10566000000E+00 0.  1.
     999900   -1    0    0    0    0 -0.00000000000E+00 -0.00000000000E+00 -0.74505805969E-08  0.93827000000E+00  0.93827000000E+00 0. -1.
     999902    2    1    2    0    0 -0.82461298813E-02  0.50880686122E-02  0.45307008524E-02  0.10332335356E+01  0.10331781670E+01 0.  0.
     999903    2    3    3    0    0 -0.87314148463E-01 -0.87790498159E-01  0.56069345908E-01  0.14332656763E+00  0.45473083785E-01 0.  0.
         14    1    1    2    0    0  0.82461298813E-02 -0.50880686122E-02 -0.45307008524E-02  0.10696464390E-01  0.00000000000E+00 0. -1.
     999901    1    3    3    0    0  0.79068018582E-01  0.92878566771E-01 -0.51538645055E-01  0.88990696798E+00  0.88000000000E+00 0. -1.
        -11    1    4    4    0    0 -0.66175008994E-01 -0.34811361505E-01  0.34374949301E-01  0.82297393432E-01  0.51100000000E-03 0.  1.
         11    1    4    4    0    0 -0.21139139469E-01 -0.52979136654E-01  0.21694396607E-01  0.61029174197E-01  0.51100000000E-03 0. -1.
</event>
<event>
 8    1  0.2943605E+004  0.1043930E+01  0.7957747E-01            NaN
         13   -1    0    0    0    0  0.00000000000E+00  0.00000000000E+00  0.74505805969E-08  0.10566000000E+00  0.10566000000E+00 0. -1.
     999900   -1    0    0    0    0 -0.00000000000E+00 -0.00000000000E+00 -0.74505805969E-08  0.93827000000E+00  0.93827000000E+00 0.  1.
     999902    2    1    2    0    0 -0.11269662835E-02  0.11434205363E-01  0.76721652039E-02  0.10301143124E+01  0.10300216616E+01 0.  0.
     999903    2    3    3    0    0  0.12472457718E+00 -0.34395358297E-01 -0.24769011196E-01  0.13938910795E+00  0.45569273348E-01 0.  0.
         14    1    1    2    0    0  0.11269662835E-02 -0.11434205363E-01 -0.76721652039E-02  0.13815687612E-01  0.00000000000E+00 0.  1.
     999901    1    3    3    0    0 -0.12585154346E+00  0.45829563660E-01  0.32441176400E-01  0.89072520444E+00  0.88000000000E+00 0. -1.
        -11    1    4    4    0    0  0.48861640095E-01 -0.23874302079E-02 -0.29120894372E-01  0.56933709750E-01  0.51100000000E-03 0.  1.
         11    1    4    4    0    0  0.75862937086E-01 -0.32007928089E-01  0.43518831761E-02  0.82455398198E-01  0.51100000000E-03 0. -1.
</event>
<event>
 8    1  0.2943605E+004  0.1043930E+01  0.7957747E-01            NaN
         13   -1    0    0    0    0  0.00000000000E+00  0.00000000000E+00  0.74505805969E-08  0.10566000000E+00  0.10566000000E+00 0.  1.
     999900   -1    0    0    0    0 -0.00000000000E+00 -0.00000000000E+00 -0.74505805969E-08  0.93827000000E+00  0.93827000000E+00 0. -1.
     999902    2    1    2    0    0 -0.10156836800E-01  0.93822859839E-02 -0.31525673090E-02  0.10297480641E+01  0.10296504010E+01 0.  0.
     999903    2    3    3    0    0 -0.12498185071E+00  0.82531326541E-02 -0.47288595927E-01  0.14119077965E+00  0.44833556040E-01 0.  0.
         14    1    1    2    0    0  0.10156836800E-01 -0.93822859839E-02  0.31525673090E-02  0.14181935859E-01  0.00000000000E+00 0.  1.
     999901    1    3    3    0    0  0.11482501391E+00  0.11291533298E-02  0.44136028618E-01  0.88855728449E+00  0.88000000000E+00 0. -1.
        -11    1    4    4    0    0 -0.22309529440E-01 -0.89303943881E-02  0.52199121084E-02  0.24596252787E-01  0.51100000000E-03 0. -1.
         11    1    4    4    0    0 -0.10267232127E+00  0.17183527042E-01 -0.52508508036E-01  0.11659452686E+00  0.51100000000E-03 0.  1.
</event>
<event>
 8    1  0.2943605E+004  0.1043930E+01  0.7957747E-01            NaN
         13   -1    0    0    0    0  0.00000000000E+00  0.00000000000E+00  0.74505805969E-08  0.10566000000E+00  0.10566000000E+00 0.  1.
     999900   -1    0    0    0    0 -0.00000000000E+00 -0.00000000000E+00 -0.74505805969E-08  0.93827000000E+00  0.93827000000E+00 0.  1.
     999902    2    1    2    0    0 -0.70282836299E-02 -0.14136315072E-01 -0.13284005663E-02  0.10280871208E+01  0.10279650437E+01 0.  0.
     999903    2    3    3    0    0  0.11692147291E+00  0.51900261971E-01 -0.18032644189E-01  0.13679401330E+00  0.44979526407E-01 0.  0.
         14    1    1    2    0    0  0.70282836299E-02  0.14136315072E-01  0.13284005663E-02  0.15842879242E-01  0.00000000000E+00 0. -1.
     999901    1    3    3    0    0 -0.12394975654E+00 -0.66036577044E-01  0.16704243623E-01  0.89129310746E+00  0.88000000000E+00 0.  1.
        -11    1    4    4    0    0  0.29560275065E-01  0.35415354771E-01 -0.28030029205E-03  0.46134552179E-01  0.51100000000E-03 0. -1.
         11    1    4    4    0    0  0.87361197850E-01  0.16484907201E-01 -0.17752343897E-01  0.90659461117E-01  0.51100000000E-03 0.  1.
</event>
<event>
 8    1  0.2943605E+004  0.1043930E+01  0.7957747E-01            NaN
         13   -1    0    0    0    0  0.00000000000E+00  0.00000000000E+00  0.74505805969E-08  0.10566000000E+00  0.10566000000E+00 0.  1.
     999900   -1    0    0    0    0 -0.00000000000E+00 -0.00000000000E+00 -0.74505805969E-08  0.93827000000E+00  0.93827000000E+00 0.  1.
     999902    2    1    2    0    0 -0.51142732026E-02  0.11660146432E-01 -0.84667360839E-02  0.10286394662E+01  0.10285258144E+01 0.  0.
     999903    2    3    3    0    0  0.82224349752E-01  0.41285640287E-01 -0.94677193207E-01  0.13962993423E+00  0.45468668698E-01 0.  0.
         14    1    1    2    0    0  0.51142732026E-02 -0.11660146432E-01  0.84667360839E-02  0.15290533841E-01  0.00000000000E+00 0.  1.
     999901    1    3    3    0    0 -0.87338622955E-01 -0.29625493855E-01  0.86210457123E-01  0.88900953193E+00  0.88000000000E+00 0. -1.
        -11    1    4    4    0    0  0.28635141443E-01  0.20661724108E-01 -0.89219486176E-02  0.36424448613E-01  0.51100000000E-03 0. -1.
         11    1    4    4    0    0  0.53589208309E-01  0.20623916179E-01 -0.85755244589E-01  0.10320548562E+00  0.51100000000E-03 0.  1.
</event>
<event>
 7    1  0.2943605E+004  0.1043930E+01  0.7957747E-01            NaN
         13   -1    0    0    0    0  0.00000000000E+00  0.00000000000E+00  0.74505805969E-08  0.10566000000E+00  0.10566000000E+00 0. -1.
     999900   -1    0    0    0    0 -0.00000000000E+00 -0.00000000000E+00 -0.74505805969E-08  0.93827000000E+00  0.93827000000E+00 0.  1.
     999903    2    1    2    0    0 -0.39219826976E-01 -0.73379487167E-01 -0.13061182145E-01  0.95577834660E-01  0.45186104439E-01 0.  0.
         14    1    1    2    0    0  0.56125902770E-01  0.37242529532E-01  0.79481874291E-03  0.67362858494E-01  0.00000000000E+00 0. -1.
     999901    1    1    2    0    0 -0.16906075794E-01  0.36136957635E-01  0.12266363402E-01  0.88098930685E+00  0.88000000000E+00 0.  1.
        -11    1    3    3    0    0 -0.46545034269E-01 -0.49886897703E-01 -0.17795971639E-01  0.70513122928E-01  0.51100000000E-03 0. -1.
         11    1    3    3    0    0  0.73252072936E-02 -0.23492589465E-01  0.47347894938E-02  0.25064711732E-01  0.51100000000E-03 0.  1.
</event>
<event>
 8    1  0.2943605E+004  0.1043930E+01  0.7957747E-01            NaN
         13   -1    0    0    0    0  0.00000000000E+00  0.00000000000E+00  0.74505805969E-08  0.10566000000E+00  0.10566000000E+00 0. -1.
     999900   -1    0    0    0    0 -0.00000000000E+00 -0.00000000000E+00 -0.74505805969E-08  0.93827000000E+00  0.93827000000E+00 0.  1.
     999902    2    1    2    0    0  0.72630237848E-03 -0.26111658746E-02 -0.14044498818E-01  0.10296263764E+01  0.10295270182E+01 0.  0.
     999903    2    3    3    0    0  0.78515397955E-01 -0.10659140264E+00  0.52555716037E-02  0.13988735521E+00  0.44882694691E-01 0.  0.
         14    1    1    2    0    0 -0.72630237848E-03  0.26111658746E-02  0.14044498818E-01  0.14303623646E-01  0.00000000000E+00 0. -1.
     999901    1    3    3    0    0 -0.77789095577E-01  0.10398023676E+00 -0.19300070421E-01  0.88973902114E+00  0.88000000000E+00 0. -1.
        -11    1    4    4    0    0  0.39714911372E-01 -0.26916369161E-01 -0.12327851049E-01  0.49537885973E-01  0.51100000000E-03 0.  1.
         11    1    4    4    0    0  0.38800486583E-01 -0.79675033475E-01  0.17583422653E-01  0.90349469237E-01  0.51100000000E-03 0. -1.
</event>
<event>
 8    1  0.2943605E+004  0.1043930E+01  0.7957747E-01            NaN
         13   -1    0    0    0    0  0.00000000000E+00  0.00000000000E+00  0.74505805969E-08  0.10566000000E+00  0.10566000000E+00 0. -1.
     999900   -1    0    0    0    0 -0.00000000000E+00 -0.00000000000E+00 -0.74505805969E-08  0.93827000000E+00  0.93827000000E+00 0.  1.
     999902    2    1    2    0    0 -0.70974055407E-02 -0.12022953571E-01 -0.25227110207E-03  0.10299661818E+01  0.10298715199E+01 0.  0.
     999903    2    3    3    0    0  0.61366621225E-01 -0.35096819846E-01 -0.11244300162E+00  0.13990636006E+00  0.43962620565E-01 0.  0.
         14    1    1    2    0    0  0.70974055407E-02  0.12022953571E-01  0.25227110207E-03  0.13963818199E-01  0.00000000000E+00 0.  1.
     999901    1    3    3    0    0 -0.68464026766E-01  0.23073866274E-01  0.11219073052E+00  0.89005982174E+00  0.88000000000E+00 0. -1.
        -11    1    4    4    0    0  0.21058108393E-03 -0.20024130538E-01 -0.22850728133E-01  0.30387942434E-01  0.51100000000E-03 0.  1.
         11    1    4    4    0    0  0.61156040141E-01 -0.15072689308E-01 -0.89592273490E-01  0.10951841762E+00  0.51100000000E-03 0. -1.
</event>
<event>
 8    1  0.2943605E+004  0.1043930E+01  0.7957747E-01            NaN
         13   -1    0    0    0    0  0.00000000000E+00  0.00000000000E+00  0.74505805969E-08  0.10566000000E+00  0.10566000000E+00 0.  1.
     999900   -1    0    0    0    0 -0.00000000000E+00 -0.00000000000E+00 -0.74505805969E-08  0.93827000000E+00  0.93827000000E+00 0.  1.
     999902    2    1    2    0    0 -0.11541868195E-01 -0.75627789331E-02 -0.26841910365E-02  0.10298724316E+01  0.10297764856E+01 0.  0.
     999903    2    3    3    0    0  0.50735519774E-03  0.11926710665E+00 -0.57309398381E-01  0.13902176125E+00  0.42635464353E-01 0.  0.
         14    1    1    2    0    0  0.11541868195E-01  0.75627789331E-02  0.26841910365E-02  0.14057568358E-01  0.00000000000E+00 0.  1.
     999901    1    3    3    0    0 -0.12049223393E-01 -0.12682988558E+00  0.54625207344E-01  0.89085067039E+00  0.88000000000E+00 0.  1.
        -11    1    4    4    0    0 -0.99066908540E-02  0.72162539478E-01 -0.13969006231E-01  0.74168516796E-01  0.51100000000E-03 0. -1.
         11    1    4    4    0    0  0.10414046052E-01  0.47104567170E-01 -0.43340392150E-01  0.64853244454E-01  0.51100000000E-03 0.  1.
</event>
<event>
 8    1  0.2943605E+004  0.1043930E+01  0.7957747E-01            NaN
         13   -1    0    0    0    0  0.00000000000E+00  0.00000000000E+00  0.74505805969E-08  0.10566000000E+00  0.10566000000E+00 0.  1.
     999900   -1    0    0    0    0 -0.00000000000E+00 -0.00000000000E+00 -0.74505805969E-08  0.93827000000E+00  0.93827000000E+00 0.  1.
     999902    2    1    2    0    0  0.13537257057E-01  0.97721566105E-04 -0.20754465133E-02  0.10302342212E+01  0.10301431824E+01 0.  0.
     999903    2    3    3    0    0  0.86058186056E-01 -0.50777588883E-01  0.88818374044E-01  0.14112833947E+00  0.45212052734E-01 0.  0.
         14    1    1    2    0    0 -0.13537257057E-01 -0.97721566105E-04  0.20754465133E-02  0.13695778779E-01  0.00000000000E+00 0. -1.
     999901    1    3    3    0    0 -0.72520928999E-01  0.50875310450E-01 -0.90893820557E-01  0.88910588176E+00  0.88000000000E+00 0.  1.
        -11    1    4    4    0    0  0.85611219634E-01 -0.42489331097E-01  0.64183713324E-01  0.11512790436E+00  0.51100000000E-03 0.  1.
         11    1    4    4    0    0  0.44696642169E-03 -0.82882577867E-02  0.24634660719E-01  0.26000435109E-01  0.51100000000E-03 0. -1.
</event>
<event>
 8    1  0.2943605E+004  0.1043930E+01  0.7957747E-01            NaN
         13   -1    0    0    0    0  0.00000000000E+00  0.00000000000E+00  0.74505805969E-08  0.10566000000E+00  0.10566000000E+00 0.  1.
     999900   -1    0    0    0    0 -0.00000000000E+00 -0.00000000000E+00 -0.74505805969E-08  0.93827000000E+00  0.93827000000E+00 0. -1.
     999902    2    1    2    0    0  0.11639185937E-01  0.79846116798E-02 -0.51392209308E-03  0.10298059500E+01  0.10297090880E+01 0.  0.
     999903    2    3    3    0    0 -0.11376452227E+00 -0.56201829431E-01  0.30859062604E-01  0.13804911462E+00  0.44769008735E-01 0.  0.
         14    1    1    2    0    0 -0.11639185937E-01 -0.79846116798E-02  0.51392209308E-03  0.14124050016E-01  0.00000000000E+00 0.  1.
     999901    1    3    3    0    0  0.12540370821E+00  0.64186441110E-01 -0.31372984697E-01  0.89175683537E+00  0.88000000000E+00 0. -1.
        -11    1    4    4    0    0 -0.62031045091E-01 -0.33702575942E-01 -0.56930430641E-02  0.70826450148E-01  0.51100000000E-03 0.  1.
         11    1    4    4    0    0 -0.51733477179E-01 -0.22499253488E-01  0.36552105668E-01  0.67222664469E-01  0.51100000000E-03 0. -1.
</event>
<event>
 8    1  0.2943605E+004  0.1043930E+01  0.7957747E-01            NaN
         13   -1    0    0    0    0  0.00000000000E+00  0.00000000000E+00  0.74505805969E-08  0.10566000000E+00  0.10566000000E+00 0. -1.
     999900   -1    0    0    0    0 -0.00000000000E+00 -0.00000000000E+00 -0.74505805969E-08  0.93827000000E+00  0.93827000000E+00 0. -1.
     999902    2    1    2    0    0 -0.38909898207E-02  0.86980152651E-02  0.87342922517E-02  0.10310039359E+01  0.10309229034E+01 0.  0.
     999903    2    3    3    0    0  0.42619154146E-01 -0.12450841687E+00 -0.12193736093E-01  0.13951914670E+00  0.44700860444E-01 0.  0.
         14    1    1    2    0    0  0.38909898207E-02 -0.86980152651E-02 -0.87342922517E-02  0.12926064075E-01  0.00000000000E+00 0. -1.
     999901    1    3    3    0    0 -0.46510143966E-01  0.13320643213E+00  0.20928028344E-01  0.89148478923E+00  0.88000000000E+00 0.  1.
        -11    1    4    4    0    0  0.27238902565E-01 -0.11899966486E+00 -0.14783317792E-01  0.12297026330E+00  0.51100000000E-03 0.  1.
         11    1    4    4    0    0  0.15380251581E-01 -0.55087520062E-02  0.25895816992E-02  0.16548883398E-01  0.51100000000E-03 0. -1.
</event>
<event>
 8    1  0.2943605E+004  0.1043930E+01  0.7957747E-01            NaN
         13   -1    0    0    0    0  0.00000000000E+00  0.00000000000E+00  0.74505805969E-08  0.10566000000E+00  0.10566000000E+00 0. -1.
     999900   -1    0    0    0    0 -0.00000000000E+00 -0.00000000000E+00 -0.74505805969E-08  0.93827000000E+00  0.93827000000E+00 0.  1.
     999902    2    1    2    0    0 -0.52000340336E-02  0.43677367845E-02 -0.12892427658E-01  0.10293583779E+01  0.10292552347E+01 0.  0.
     999903    2    3    3    0    0 -0.13276769211E-01 -0.12695309784E+00 -0.32149448398E-01  0.13936892401E+00  0.45790264198E-01 0.  0.
         14    1    1    2    0    0  0.52000340336E-02 -0.43677367845E-02  0.12892427658E-01  0.14571622061E-01  0.00000000000E+00 0. -1.
     999901    1    3    3    0    0  0.80767351776E-02  0.13132083463E+00  0.19257020740E-01  0.88998945393E+00  0.88000000000E+00 0. -1.
        -11    1    4    4    0    0 -0.37565087307E-02 -0.84007976598E-01 -0.42432287243E-01  0.94192418015E-01  0.51100000000E-03 0. -1.
         11    1    4    4    0    0 -0.95202604805E-02 -0.42945121243E-01  0.10282838845E-01  0.45176505995E-01  0.51100000000E-03 0.  1.
</event>
<event>
 8    1  0.2943605E+004  0.1043930E+01  0.7957747E-01            NaN
         13   -1    0    0    0    0  0.00000000000E+00  0.00000000000E+00  0.74505805969E-08  0.10566000000E+00  0.10566000000E+00 0. -1.
     999900   -1    0    0    0    0 -0.00000000000E+00 -0.00000000000E+00 -0.74505805969E-08  0.93827000000E+00  0.93827000000E+00 0. -1.
     999902    2    1    2    0    0  0.10663961769E-01 -0.75450074522E-02 -0.40006432056E-02  0.10302679224E+01  0.10301773340E+01 0.  0.
     999903    2    3    3    0    0  0.46921170176E-01 -0.12607902106E+00  0.21018757030E-02  0.14155979356E+00  0.44014105794E-01 0.  0.
         14    1    1    2    0    0 -0.10663961769E-01  0.75450074522E-02  0.40006432056E-02  0.13662077592E-01  0.00000000000E+00 0. -1.
     999901    1    3    3    0    0 -0.36257208406E-01  0.11853401361E+00 -0.61025189086E-02  0.88870812885E+00  0.88000000000E+00 0. -1.
        -11    1    4    4    0    0  0.10638147611E-01 -0.88971590482E-01 -0.22327973776E-03  0.89607059278E-01  0.51100000000E-03 0.  1.
         11    1    4    4    0    0  0.36283022565E-01 -0.37107430579E-01  0.23251554407E-02  0.51952734282E-01  0.51100000000E-03 0. -1.
</event>
<event>
 8    1  0.2943605E+004  0.1043930E+01  0.7957747E-01            NaN
         13   -1    0    0    0    0  0.00000000000E+00  0.00000000000E+00  0.74505805969E-08  0.10566000000E+00  0.10566000000E+00 0.  1.
     999900   -1    0    0    0    0 -0.00000000000E+00 -0.00000000000E+00 -0.74505805969E-08  0.93827000000E+00  0.93827000000E+00 0.  1.
     999902    2    1    2    0    0  0.40130239089E-02 -0.19889936013E-01  0.10433781842E-02  0.10236124570E+01  0.10234107971E+01 0.  0.
     999903    2    3    3    0    0 -0.27379070546E-01 -0.78164396470E-01  0.97433335935E-01  0.13587803709E+00  0.45937997705E-01 0.  0.
         14    1    1    2    0    0 -0.40130239089E-02  0.19889936013E-01 -0.10433781842E-02  0.20317542999E-01  0.00000000000E+00 0.  1.
     999901    1    3    3    0    0  0.31392094455E-01  0.58274460457E-01 -0.96389957750E-01  0.88773441991E+00  0.88000000000E+00 0.  1.
        -11    1    4    4    0    0 -0.12885157524E-01 -0.35225260509E-01  0.78027571322E-01  0.86576031728E-01  0.51100000000E-03 0. -1.
         11    1    4    4    0    0 -0.14493913022E-01 -0.42939135961E-01  0.19405764613E-01  0.49302005364E-01  0.51100000000E-03 0.  1.
</event>
<event>
 8    1  0.2943605E+004  0.1043930E+01  0.7957747E-01            NaN
         13   -1    0    0    0    0  0.00000000000E+00  0.00000000000E+00  0.74505805969E-08  0.10566000000E+00  0.10566000000E+00 0.  1.
     999900   -1    0    0    0    0 -0.00000000000E+00 -0.00000000000E+00 -0.74505805969E-08  0.93827000000E+00  0.93827000000E+00 0.  1.
     999902    2    1    2    0    0  0.38625593747E-02  0.10843432347E-01 -0.88918625374E-02  0.10293847393E+01  0.10292819715E+01 0.  0.
     999903    2    3    3    0    0  0.11703802724E+00  0.93624519724E-02 -0.62468288584E-01  0.14051955645E+00  0.45364119488E-01 0.  0.
         14    1    1    2    0    0 -0.38625593747E-02 -0.10843432347E-01  0.88918625374E-02  0.14545260719E-01  0.00000000000E+00 0.  1.
     999901    1    3    3    0    0 -0.11317546787E+00  0.14809803746E-02  0.53576426047E-01  0.88886518284E+00  0.88000000000E+00 0. -1.
        -11    1    4    4    0    0  0.10525776114E+00  0.51879198853E-03 -0.37912359337E-01  0.11187972800E+00  0.51100000000E-03 0. -1.
         11    1    4    4    0    0  0.11780266106E-01  0.88436599839E-02 -0.24555929247E-01  0.28639828450E-01  0.51100000000E-03 0.  1.
</event>
<event>
 8    1  0.2943605E+004  0.1043930E+01  0.7957747E-01            NaN
         13   -1    0    0    0    0  0.00000000000E+00  0.00000000000E+00  0.74505805969E-08  0.10566000000E+00  0.10566000000E+00 0. -1.
     999900   -1    0    0    0    0 -0.00000000000E+00 -0.00000000000E+00 -0.74505805969E-08  0.93827000000E+00  0.93827000000E+00 0.  1.
     999902    2    1    2    0    0  0.11695361379E-01 -0.16086555331E-02  0.75664247562E-02  0.10299078734E+01  0.10298124138E+01 0.  0.
     999903    2    3    3    0    0  0.11803067554E+00 -0.70521875116E-02  0.63589910459E-01  0.14172125900E+00  0.45390140150E-01 0.  0.
         14    1    1    2    0    0 -0.11695361379E-01  0.16086555331E-02 -0.75664247562E-02  0.14022126586E-01  0.00000000000E+00 0.  1.
     999901    1    3    3    0    0 -0.10633531416E+00  0.54435319786E-02 -0.56023485703E-01  0.88818661442E+00  0.88000000000E+00 0.  1.
        -11    1    4    4    0    0  0.72922243605E-01  0.46739737373E-02  0.15401580356E-01  0.74679109805E-01  0.51100000000E-03 0. -1.
         11    1    4    4    0    0  0.45108431934E-01 -0.11726161249E-01  0.48188330104E-01  0.67042149193E-01  0.51100000000E-03 0.  1.
</event>
<event>
 8    1  0.2943605E+004  0.1043930E+01  0.7957747E-01            NaN
         13   -1    0    0    0    0  0.00000000000E+00  0.00000000000E+00  0.74505805969E-08  0.10566000000E+00  0.10566000000E+00 0.  1.
     999900   -1    0    0    0    0 -0.00000000000E+00 -0.00000000000E+00 -0.74505805969E-08  0.93827000000E+00  0.93827000000E+00 0.  1.
     999902    2    1    2    0    0 -0.35897920450E-02 -0.36049611812E-03 -0.15207987591E-01  0.10282999184E+01  0.10281811235E+01 0.  0.
     999903    2    3    3    0    0  0.11207816267E+00 -0.65091239260E-01  0.12678793115E-01  0.13793661199E+00  0.45468375340E-01 0.  0.
         14    1    1    2    0    0  0.35897920450E-02  0.36049611812E-03  0.15207987591E-01  0.15630081604E-01  0.00000000000E+00 0.  1.
     999901    1    3    3    0    0 -0.11566795472E+00  0.64730743142E-01 -0.27886780706E-01  0.89036330641E+00  0.88000000000E+00 0. -1.
        -11    1    4    4    0    0  0.28107319502E-01  0.42672466796E-02  0.21009329834E-02  0.28511503717E-01  0.51100000000E-03 0. -1.
         11    1    4    4    0    0  0.83970843171E-01 -0.69358485940E-01  0.10577860132E-01  0.10942510827E+00  0.51100000000E-03 0.  1.
</event>
<event>
 8    1  0.2943605E+004  0.1043930E+01  0.7957747E-01            NaN
         13   -1    0    0    0    0  0.00000000000E+00  0.00000000000E+00  0.74505805969E-08  0.10566000000E+00  0.10566000000E+00 0.  1.
     999900   -1    0    0    0    0 -0.00000000000E+00 -0.00000000000E+00 -0.74505805969E-08  0.93827000000E+00  0.93827000000E+00 0. -1.
     999902    2    1    2    0    0 -0.15688508331E-02 -0.88782560987E-02  0.10282126310E-01  0.10302549554E+01  0.10301641938E+01 0.  0.
     999903    2    3    3    0    0  0.47631815095E-01 -0.11573546793E+00  0.48188784428E-01  0.14161774932E+00  0.45496589227E-01 0.  0.
         14    1    1    2    0    0  0.15688508331E-02  0.88782560987E-02 -0.10282126310E-01  0.13675044634E-01  0.00000000000E+00 0. -1.
     999901    1    3    3    0    0 -0.49200665928E-01  0.10685721183E+00 -0.37906658118E-01  0.88863720605E+00  0.88000000000E+00 0. -1.
        -11    1    4    4    0    0  0.53233150283E-01 -0.74640974115E-01  0.33933017508E-01  0.97758652323E-01  0.51100000000E-03 0.  1.
         11    1    4    4    0    0 -0.56013351883E-02 -0.41094493812E-01  0.14255766920E-01  0.43859096993E-01  0.51100000000E-03 0. -1.
</event>
<event>
 8    1  0.2943605E+004  0.1043930E+01  0.7957747E-01            NaN
         13   -1    0    0    0    0  0.00000000000E+00  0.00000000000E+00  0.74505805969E-08  0.10566000000E+00  0.10566000000E+00 0. -1.
     999900   -1    0    0    0    0 -0.00000000000E+00 -0.00000000000E+00 -0.74505805969E-08  0.93827000000E+00  0.93827000000E+00 0.  1.
     999902    2    1    2    0    0  0.14526700293E-03 -0.96992187808E-02  0.10222030107E-01  0.10298379509E+01  0.10297415304E+01 0.  0.
     999903    2    3    3    0    0  0.67052783378E-01  0.11367659148E+00  0.44304236921E-02  0.13869724991E+00  0.42412913944E-01 0.  0.
         14    1    1    2    0    0 -0.14526700293E-03  0.96992187808E-02 -0.10222030107E-01  0.14092049069E-01  0.00000000000E+00 0.  1.
     999901    1    3    3    0    0 -0.66907516375E-01 -0.12337581026E+00  0.57916064148E-02  0.89114070102E+00  0.88000000000E+00 0. -1.
        -11    1    4    4    0    0  0.56585960506E-01  0.73916693081E-01  0.19120431085E-01  0.95034206727E-01  0.51100000000E-03 0.  1.
         11    1    4    4    0    0  0.10466822872E-01  0.39759898403E-01 -0.14690007393E-01  0.43663043186E-01  0.51100000000E-03 0. -1.
</event>
<event>
 8    1  0.2943605E+004  0.1043930E+01  0.7957747E-01            NaN
         13   -1    0    0    0    0  0.00000000000E+00  0.00000000000E+00  0.74505805969E-08  0.10566000000E+00  0.10566000000E+00 0. -1.
     999900   -1    0    0    0    0 -0.00000000000E+00 -0.00000000000E+00 -0.74505805969E-08  0.93827000000E+00  0.93827000000E+00 0. -1.
     999902    2    1    2    0    0  0.89960734364E-02 -0.56096047704E-02 -0.83532537761E-02  0.10304328206E+01  0.10303444201E+01 0.  0.
     999903    2    3    3    0    0 -0.38332943380E-01 -0.12367653181E+00 -0.33552344139E-01  0.14093024655E+00  0.44387785779E-01 0.  0.
         14    1    1    2    0    0 -0.89960734364E-02  0.56096047704E-02  0.83532537761E-02  0.13497179394E-01  0.00000000000E+00 0.  1.
     999901    1    3    3    0    0  0.47329016817E-01  0.11806692704E+00  0.25199090363E-01  0.88950257405E+00  0.88000000000E+00 0.  1.
        -11    1    4    4    0    0 -0.29162363807E-01 -0.52285486083E-01  0.35024356266E-02  0.59972857978E-01  0.51100000000E-03 0.  1.
         11    1    4    4    0    0 -0.91705795730E-02 -0.71391045730E-01 -0.37054779766E-01  0.80957388573E-01  0.51100000000E-03 0. -1.
</event>
<event>
 7    1  0.2943605E+004  0.1043930E+01  0.7957747E-01            NaN
         13   -1    0    0    0    0  0.00000000000E+00  0.00000000000E+00  0.74505805969E-08  0.10566000000E+00  0.10566000000E+00 0.  1.
     999900   -1    0    0    0    0 -0.00000000000E+00 -0.00000000000E+00 -0.74505805969E-08  0.93827000000E+00  0.93827000000E+00 0. -1.
     999903    2    1    2    0    0 -0.50829517037E-02  0.69613730362E-01 -0.65656482295E-01  0.10605057303E+00  0.45431734720E-01 0.  0.
         14    1    1    2    0    0 -0.45546050373E-01  0.42985527293E-02  0.25600502368E-01  0.52424288089E-01  0.00000000000E+00 0.  1.
     999901    1    1    2    0    0  0.50629002077E-01 -0.73912283092E-01  0.40055979927E-01  0.88545513888E+00  0.88000000000E+00 0.  1.
        -11    1    3    3    0    0  0.12710473963E-01  0.59346982135E-01 -0.38050679864E-01  0.71636134709E-01  0.51100000000E-03 0. -1.
         11    1    3    3    0    0 -0.17793425667E-01  0.10266748228E-01 -0.27605802431E-01  0.34414438321E-01  0.51100000000E-03 0.  1.
</event>
<event>
 8    1  0.2943605E+004  0.1043930E+01  0.7957747E-01            NaN
         13   -1    0    0    0    0  0.00000000000E+00  0.00000000000E+00  0.74505805969E-08  0.10566000000E+00  0.10566000000E+00 0.  1.
     999900   -1    0    0    0    0 -0.00000000000E+00 -0.00000000000E+00 -0.74505805969E-08  0.93827000000E+00  0.93827000000E+00 0. -1.
     999902    2    1    2    0    0  0.11029272728E-01 -0.68595915524E-02 -0.33308010852E-02  0.10305213055E+01  0.10304340677E+01 0.  0.
     999903    2    3    3    0    0 -0.12532451384E+00 -0.40569989948E-01  0.29927405283E-02  0.13935985363E+00  0.45387822736E-01 0.  0.
         14    1    1    2    0    0 -0.11029272728E-01  0.68595915524E-02  0.33308010852E-02  0.13408694532E-01  0.00000000000E+00 0.  1.
     999901    1    3    3    0    0  0.13635378657E+00  0.33710398396E-01 -0.63235416134E-02  0.89116145184E+00  0.88000000000E+00 0. -1.
        -11    1    4    4    0    0 -0.48456092597E-01  0.23691885900E-02  0.14316246298E-01  0.50584800024E-01  0.51100000000E-03 0. -1.
         11    1    4    4    0    0 -0.76868421243E-01 -0.42939178539E-01 -0.11323505770E-01  0.88775053601E-01  0.51100000000E-03 0.  1.
</event>
<event>
 8    1  0.2943605E+004  0.1043930E+01  0.7957747E-01            NaN
         13   -1    0    0    0    0  0.00000000000E+00  0.00000000000E+00  0.74505805969E-08  0.10566000000E+00  0.10566000000E+00 0. -1.
     999900   -1    0    0    0    0 -0.00000000000E+00 -0.00000000000E+00 -0.74505805969E-08  0.93827000000E+00  0.93827000000E+00 0. -1.
     999902    2    1    2    0    0  0.12187360267E-01  0.89460494284E-02  0.57805833387E-03  0.10288006344E+01  0.10286893835E+01 0.  0.
     999903    2    3    3    0    0 -0.11856373192E+00 -0.27369294598E-01 -0.45343427438E-01  0.13721584589E+00  0.44336498940E-01 0.  0.
         14    1    1    2    0    0 -0.12187360267E-01 -0.89460494284E-02 -0.57805833387E-03  0.15129365554E-01  0.00000000000E+00 0.  1.
     999901    1    3    3    0    0  0.13075109219E+00  0.36315344026E-01  0.45921485772E-01  0.89158478855E+00  0.88000000000E+00 0. -1.
        -11    1    4    4    0    0 -0.76692424816E-01 -0.19966625759E-01 -0.63233168620E-02  0.79502450437E-01  0.51100000000E-03 0.  1.
         11    1    4    4    0    0 -0.41871307107E-01 -0.74026688389E-02 -0.39020110576E-01  0.57713395457E-01  0.51100000000E-03 0. -1.
</event>
<event>
 8    1  0.2943605E+004  0.1043930E+01  0.7957747E-01            NaN
         13   -1    0    0    0    0  0.00000000000E+00  0.00000000000E+00  0.74505805969E-08  0.10566000000E+00  0.10566000000E+00 0. -1.
     999900   -1    0    0    0    0 -0.00000000000E+00 -0.00000000000E+00 -0.74505805969E-08  0.93827000000E+00  0.93827000000E+00 0.  1.
     999902    2    1    2    0    0 -0.11084501364E-01 -0.65567651011E-02 -0.29202401329E-02  0.10307245034E+01  0.10306399064E+01 0.  0.
     999903    2    3    3    0    0 -0.50655428082E-01  0.92593179755E-01 -0.81512369818E-01  0.14079569011E+00  0.45162933788E-01 0.  0.
         14    1    1    2    0    0  0.11084501364E-01  0.65567651011E-02  0.29202401329E-02  0.13205496641E-01  0.00000000000E+00 0. -1.
     999901    1    3    3    0    0  0.39570926717E-01 -0.99149944856E-01  0.78592129685E-01  0.88992881325E+00  0.88000000000E+00 0. -1.
        -11    1    4    4    0    0 -0.30926373772E-01  0.86389232202E-01 -0.54334240122E-01  0.10663963056E+00  0.51100000000E-03 0. -1.
         11    1    4    4    0    0 -0.19729054309E-01  0.62039475538E-02 -0.27178129695E-01  0.34156059549E-01  0.51100000000E-03 0.  1.
</event>
<event>
 8    1  0.2943605E+004  0.1043930E+01  0.7957747E-01            NaN
         13   -1    0    0    0    0  0.00000000000E+00  0.00000000000E+00  0.74505805969E-08  0.10566000000E+00  0.10566000000E+00 0.  1.
     999900   -1    0    0    0    0 -0.00000000000E+00 -0.00000000000E+00 -0.74505805969E-08  0.93827000000E+00  0.93827000000E+00 0.  1.
     999902    2    1    2    0    0 -0.10817629161E-01 -0.51452074840E-02 -0.56213261015E-02  0.10306977074E+01  0.10306127645E+01 0.  0.
     999903    2    3    3    0    0  0.94920930451E-01 -0.28699111866E-01 -0.88532282070E-01  0.14018681131E+00  0.44505674227E-01 0.  0.
         14    1    1    2    0    0  0.10817629161E-01  0.51452074840E-02  0.56213261015E-02  0.13232292615E-01  0.00000000000E+00 0.  1.
     999901    1    3    3    0    0 -0.10573855961E+00  0.23553904382E-01  0.82910955968E-01  0.89051089607E+00  0.88000000000E+00 0. -1.
        -11    1    4    4    0    0  0.87633629768E-01 -0.33274767094E-01 -0.62248248590E-01  0.11252541386E+00  0.51100000000E-03 0.  1.
         11    1    4    4    0    0  0.72873006832E-02  0.45756552277E-02 -0.26284033480E-01  0.27661397452E-01  0.51100000000E-03 0. -1.
</event>
<event>
 8    1  0.2943605E+004  0.1043930E+01  0.7957747E-01            NaN
         13   -1    0    0    0    0  0.00000000000E+00  0.00000000000E+00  0.74505805969E-08  0.10566000000E+00  0.10566000000E+00 0. -1.
     999900   -1    0    0    0    0 -0.00000000000E+00 -0.00000000000E+00 -0.74505805969E-08  0.93827000000E+00  0.93827000000E+00 0. -1.
     999902    2    1    2    0    0  0.49740411531E-02  0.17364968516E-01 -0.26101754037E-03  0.10258648029E+01  0.10257057290E+01 0.  0.
     999903    2    3    3    0    0 -0.11940151306E+00 -0.20527987480E-01  0.40258921347E-01  0.13538907606E+00  0.45069963139E-01 0.  0.
         14    1    1    2    0    0 -0.49740411531E-02 -0.17364968516E-01  0.26101754037E-03  0.18065197124E-01  0.00000000000E+00 0. -1.
     999901    1    3    3    0    0  0.12437555421E+00  0.37892955996E-01 -0.40519938887E-01  0.89047572682E+00  0.88000000000E+00 0. -1.
        -11    1    4    4    0    0 -0.35201503405E-01 -0.10517686958E-01  0.34496840985E-01  0.50399015267E-01  0.51100000000E-03 0.  1.
         11    1    4    4    0    0 -0.84200009656E-01 -0.10010300522E-01  0.57620803611E-02  0.84990060794E-01  0.51100000000E-03 0. -1.
</event>
<event>
 8    1  0.2943605E+004  0.1043930E+01  0.7957747E-01            NaN
         13   -1    0    0    0    0  0.00000000000E+00  0.00000000000E+00  0.74505805969E-08  0.10566000000E+00  0.10566000000E+00 0.  1.
     999900   -1    0    0    0    0 -0.00000000000E+00 -0.00000000000E+00 -0.74505805969E-08  0.93827000000E+00  0.93827000000E+00 0.  1.
     999902    2    1    2    0    0  0.38672587490E-02  0.13524316537E-01  0.31315234243E-02  0.10295192656E+01  0.10294184032E+01 0.  0.
     999903    2    3    3    0    0  0.73925370399E-01 -0.10717236569E+00  0.13940646899E-01  0.13845660488E+00  0.45000149365E-01 0.  0.
         14    1    1    2    0    0 -0.38672587490E-02 -0.13524316537E-01 -0.31315234243E-02  0.14410734436E-01  0.00000000000E+00 0. -1.
     999901    1    3    3    0    0 -0.70058111650E-01  0.12069668223E+00 -0.10809123475E-01  0.89106266068E+00  0.88000000000E+00 0. -1.
        -11    1    4    4    0    0  0.25438157108E-01 -0.69624496430E-01 -0.49286553001E-02  0.74291473967E-01  0.51100000000E-03 0.  1.
         11    1    4    4    0    0  0.48487213291E-01 -0.37547869263E-01  0.18869302199E-01  0.64165130916E-01  0.51100000000E-03 0. -1.
</event>
<event>
 8    1  0.2943605E+004  0.1043930E+01  0.7957747E-01            NaN
         13   -1    0    0    0    0  0.00000000000E+00  0.00000000000E+00  0.74505805969E-08  0.10566000000E+00  0.10566000000E+00 0. -1.
     999900   -1    0    0    0    0 -0.00000000000E+00 -0.00000000000E+00 -0.74505805969E-08  0.93827000000E+00  0.93827000000E+00 0. -1.
     999902    2    1    2    0    0  0.85686503702E-02 -0.11339668468E-01  0.18343114873E-02  0.10295991051E+01  0.10294993651E+01 0.  0.
     999903    2    3    3    0    0  0.32189961578E-01  0.22319157810E-01  0.12763666639E+00  0.13970185517E+00  0.41123609989E-01 0.  0.
         14    1    1    2    0    0 -0.85686503702E-02  0.11339668468E-01 -0.18343114873E-02  0.14330894905E-01  0.00000000000E+00 0. -1.
     999901    1    3    3    0    0 -0.23621311207E-01 -0.33658826279E-01 -0.12580235490E+00  0.88989724993E+00  0.88000000000E+00 0. -1.
        -11    1    4    4    0    0  0.67237374703E-02  0.22642367413E-01  0.26933409985E-01  0.35826737809E-01  0.51100000000E-03 0.  1.
         11    1    4    4    0    0  0.25466224107E-01 -0.32320960262E-03  0.10070325640E+00  0.10387511736E+00  0.51100000000E-03 0. -1.
</event>
<event>
 8    1  0.2943605E+004  0.1043930E+01  0.7957747E-01            NaN
         13   -1    0    0    0    0  0.00000000000E+00  0.00000000000E+00  0.74505805969E-08  0.10566000000E+00  0.10566000000E+00 0.  1.
     999900   -1    0    0    0    0 -0.00000000000E+00 -0.00000000000E+00 -0.74505805969E-08  0.93827000000E+00  0.93827000000E+00 0. -1.
     999902    2    1    2    0    0 -0.52598888210E-02  0.11526884038E-01  0.22737793441E-02  0.10310573329E+01  0.10309769727E+01 0.  0.
     999903    2    3    3    0    0  0.53087768719E-01 -0.64752754446E-01  0.10312704671E+00  0.14010592348E+00  0.44533713483E-01 0.  0.
         14    1    1    2    0    0  0.52598888210E-02 -0.11526884038E-01 -0.22737793441E-02  0.12872667111E-01  0.00000000000E+00 0. -1.
     999901    1    3    3    0    0 -0.58347657540E-01  0.76279638484E-01 -0.10085326736E+00  0.89095140941E+00  0.88000000000E+00 0. -1.
        -11    1    4    4    0    0  0.56789194868E-01 -0.56700120590E-01  0.72265467339E-01  0.10799294060E+00  0.51100000000E-03 0.  1.
         11    1    4    4    0    0 -0.37014261495E-02 -0.80526338560E-02  0.30861579367E-01  0.32112982882E-01  0.51100000000E-03 0. -1.
</event>
<event>
 8    1  0.2943605E+004  0.1043930E+01  0.7957747E-01            NaN
         13   -1    0    0    0    0  0.00000000000E+00  0.00000000000E+00  0.74505805969E-08  0.10566000000E+00  0.10566000000E+00 0. -1.
     999900   -1    0    0    0    0 -0.00000000000E+00 -0.00000000000E+00 -0.74505805969E-08  0.93827000000E+00  0.93827000000E+00 0. -1.
     999902    2    1    2    0    0 -0.11167638980E-01  0.87879685200E-02  0.12244615793E-02  0.10296666253E+01  0.10295678295E+01 0.  0.
     999903    2    3    3    0    0 -0.88112679118E-01 -0.77634355062E-01 -0.61036068255E-01  0.13991063023E+00  0.45372299010E-01 0.  0.
         14    1    1    2    0    0  0.11167638980E-01 -0.87879685200E-02 -0.12244615793E-02  0.14263374680E-01  0.00000000000E+00 0.  1.
     999901    1    3    3    0    0  0.76945040138E-01  0.86422323582E-01  0.62260529834E-01  0.88975599509E+00  0.88000000000E+00 0.  1.
        -11    1    4    4    0    0 -0.46718787093E-01 -0.53046868388E-01 -0.12954505247E-01  0.71865816912E-01  0.51100000000E-03 0.  1.
         11    1    4    4    0    0 -0.41393892025E-01 -0.24587486674E-01 -0.48081563007E-01  0.68044813323E-01  0.51100000000E-03 0. -1.
</event>
<event>
 8    1  0.2943605E+004  0.1043930E+01  0.7957747E-01            NaN
         13   -1    0    0    0    0  0.00000000000E+00  0.00000000000E+00  0.74505805969E-08  0.10566000000E+00  0.10566000000E+00 0.  1.
     999900   -1    0    0    0    0 -0.00000000000E+00 -0.00000000000E+00 -0.74505805969E-08  0.93827000000E+00  0.93827000000E+00 0.  1.
     999902    2    1    2    0    0  0.58549892644E-02  0.72327375243E-02 -0.96389406799E-02  0.10305321431E+01  0.10304450473E+01 0.  0.
     999903    2    3    3    0    0 -0.10659048086E+00  0.49211373141E-01  0.58531249955E-01  0.13977215048E+00  0.48239578904E-01 0.  0.
         14    1    1    2    0    0 -0.58549892644E-02 -0.72327375243E-02  0.96389406799E-02  0.13397856874E-01  0.00000000000E+00 0.  1.
     999901    1    3    3    0    0  0.11244547013E+00 -0.41978635617E-01 -0.68170190634E-01  0.89075999264E+00  0.88000000000E+00 0.  1.
        -11    1    4    4    0    0 -0.19921075522E-01 -0.95401108639E-02  0.78738497377E-02  0.23454671090E-01  0.51100000000E-03 0.  1.
         11    1    4    4    0    0 -0.86669405340E-01  0.58751484005E-01  0.50657400217E-01  0.11631747939E+00  0.51100000000E-03 0. -1.
</event>
<event>
 8    1  0.2943605E+004  0.1043930E+01  0.7957747E-01            NaN
         13   -1    0    0    0    0  0.00000000000E+00  0.00000000000E+00  0.74505805969E-08  0.10566000000E+00  0.10566000000E+00 0. -1.
     999900   -1    0    0    0    0 -0.00000000000E+00 -0.00000000000E+00 -0.74505805969E-08  0.93827000000E+00  0.93827000000E+00 0. -1.
     999902    2    1    2    0    0  0.13678704690E-02  0.12289904862E-02  0.13406680558E-01  0.10303977950E+01  0.10303089321E+01 0.  0.
     999903    2    3    3    0    0 -0.49779816902E-01 -0.96278176161E-01  0.78355190880E-01  0.14116101980E+00  0.45159497297E-01 0.  0.
         14    1    1    2    0    0 -0.13678704690E-02 -0.12289904862E-02 -0.13406680558E-01  0.13532204951E-01  0.00000000000E+00 0.  1.
     999901    1    3    3    0    0  0.51147687371E-01  0.97507166647E-01 -0.64948510322E-01  0.88923677525E+00  0.88000000000E+00 0. -1.
        -11    1    4    4    0    0 -0.49509981348E-01 -0.81554759001E-01  0.82198150192E-01  0.12593337121E+00  0.51100000000E-03 0.  1.
         11    1    4    4    0    0 -0.26983555392E-03 -0.14723417160E-01 -0.38429593123E-02  0.15227648583E-01  0.51100000000E-03 0. -1.
</event>
<event>
 8    1  0.2943605E+004  0.1043930E+01  0.7957747E-01            NaN
         13   -1    0    0    0    0  0.00000000000E+00  0.00000000000E+00  0.74505805969E-08  0.10566000000E+00  0.10566000000E+00 0.  1.
     999900   -1    0    0    0    0 -0.00000000000E+00 -0.00000000000E+00 -0.74505805969E-08  0.93827000000E+00  0.93827000000E+00 0. -1.
     999902    2    1    2    0    0 -0.73816815334E-02 -0.11986963202E-01  0.92785471406E-03  0.10298219376E+01  0.10297252963E+01 0.  0.
     999903    2    3    3    0    0 -0.63565934047E-01  0.58484989607E-01 -0.99905106202E-01  0.13949039694E+00  0.44893413916E-01 0.  0.
         14    1    1    2    0    0  0.73816815334E-02  0.11986963202E-01 -0.92785471406E-03  0.14108062356E-01  0.00000000000E+00 0. -1.
     999901    1    3    3    0    0  0.56184252514E-01 -0.70471952809E-01  0.10083296092E+00  0.89033154070E+00  0.88000000000E+00 0.  1.
        -11    1    4    4    0    0 -0.96480103006E-02  0.37844219362E-01 -0.47711585019E-01  0.61659755983E-01  0.51100000000E-03 0. -1.
         11    1    4    4    0    0 -0.53917923747E-01  0.20640770245E-01 -0.52193521183E-01  0.77830640958E-01  0.51100000000E-03 0.  1.
</event>
<event>
 8    1  0.2943605E+004  0.1043930E+01  0.7957747E-01            NaN
         13   -1    0    0    0    0  0.00000000000E+00  0.00000000000E+00  0.74505805969E-08  0.10566000000E+00  0.10566000000E+00 0. -1.
     999900   -1    0    0    0    0 -0.00000000000E+00 -0.00000000000E+00 -0.74505805969E-08  0.93827000000E+00  0.93827000000E+00 0. -1.
     999902    2    1    2    0    0 -0.20142328833E-02 -0.12229510773E-01 -0.75086820076E-02  0.10294386794E+01  0.10293366778E+01 0.  0.
     999903    2    3    3    0    0 -0.91617207822E-01  0.86474166404E-01  0.35178040614E-01  0.13837568200E+00  0.45153522605E-01 0.  0.
         14    1    1    2    0    0  0.20142328833E-02  0.12229510773E-01  0.75086820076E-02  0.14491320621E-01  0.00000000000E+00 0. -1.
     999901    1    3    3    0    0  0.89602974939E-01 -0.98703677177E-01 -0.42686722621E-01  0.89106299738E+00  0.88000000000E+00 0. -1.
        -11    1    4    4    0    0 -0.89198572389E-01  0.60817937448E-01  0.26337142804E-01  0.11112656318E+00  0.51100000000E-03 0.  1.
         11    1    4    4    0    0 -0.24186354334E-02  0.25656228956E-01  0.88408978101E-02  0.27249118824E-01  0.51100000000E-03 0. -1.
</event>
<event>
 8    1  0.2943605E+004  0.1043930E+01  0.7957747E-01            NaN
         13   -1    0    0    0    0  0.00000000000E+00  0.00000000000E+00  0.74505805969E-08  0.10566000000E+00  0.10566000000E+00 0.  1.
     999900   -1    0    0    0    0 -0.00000000000E+00 -0.00000000000E+00 -0.74505805969E-08  0.93827000000E+00  0.93827000000E+00 0.  1.
     999902    2    1    2    0    0 -0.62684132270E-02  0.10665988391E-02 -0.13704126120E-01  0.10288225942E+01  0.10287116684E+01 0.  0.
     999903    2    3    3    0    0 -0.74233176714E-01  0.10618429500E+00 -0.27629694003E-01  0.13985529414E+00  0.44837866577E-01 0.  0.
         14    1    1    2    0    0  0.62684132270E-02 -0.10665988391E-02  0.13704126120E-01  0.15107405806E-01  0.00000000000E+00 0.  1.
     999901    1    3    3    0    0  0.67964763487E-01 -0.10511769616E+00  0.13925567883E-01  0.88896730005E+00  0.88000000000E+00 0. -1.
        -11    1    4    4    0    0 -0.54471291548E-01  0.65712260454E-01  0.29627521284E-02  0.85406450565E-01  0.51100000000E-03 0. -1.
         11    1    4    4    0    0 -0.19761885166E-01  0.40472034545E-01 -0.30592446131E-01  0.54448843577E-01  0.51100000000E-03 0.  1.
</event>
<event>
 8    1  0.2943605E+004  0.1043930E+01  0.7957747E-01            NaN
         13   -1    0    0    0    0  0.00000000000E+00  0.00000000000E+00  0.74505805969E-08  0.10566000000E+00  0.10566000000E+00 0.  1.
     999900   -1    0    0    0    0 -0.00000000000E+00 -0.00000000000E+00 -0.74505805969E-08  0.93827000000E+00  0.93827000000E+00 0.  1.
     999902    2    1    2    0    0  0.31409904840E-02  0.16026463024E-02 -0.13411193746E-01  0.10300629739E+01  0.10299696285E+01 0.  0.
     999903    2    3    3    0    0  0.73409158638E-01  0.10353209753E+00 -0.41673543710E-01  0.14094768948E+00  0.44964064913E-01 0.  0.
         14    1    1    2    0    0 -0.31409904840E-02 -0.16026463024E-02  0.13411193746E-01  0.13867026144E-01  0.00000000000E+00 0.  1.
     999901    1    3    3    0    0 -0.70268168154E-01 -0.10192945123E+00  0.28262349964E-01  0.88911528437E+00  0.88000000000E+00 0. -1.
        -11    1    4    4    0    0  0.40710286036E-01  0.25420617318E-01 -0.36944080311E-02  0.48139847794E-01  0.51100000000E-03 0.  1.
         11    1    4    4    0    0  0.32698872602E-01  0.78111480213E-01 -0.37979135679E-01  0.92807841686E-01  0.51100000000E-03 0. -1.
</event>
<event>
 8    1  0.2943605E+004  0.1043930E+01  0.7957747E-01            NaN
         13   -1    0    0    0    0  0.00000000000E+00  0.00000000000E+00  0.74505805969E-08  0.10566000000E+00  0.10566000000E+00 0. -1.
     999900   -1    0    0    0    0 -0.00000000000E+00 -0.00000000000E+00 -0.74505805969E-08  0.93827000000E+00  0.93827000000E+00 0. -1.
     999902    2    1    2    0    0 -0.83089550786E-02 -0.10685370258E-01 -0.66627159259E-02  0.10288433285E+01  0.10287327092E+01 0.  0.
     999903    2    3    3    0    0 -0.78671688073E-01  0.51546336951E-01  0.91282077315E-01  0.13844067688E+00  0.44577393574E-01 0.  0.
         14    1    1    2    0    0  0.83089550786E-02  0.10685370258E-01  0.66627159259E-02  0.15086671454E-01  0.00000000000E+00 0. -1.
     999901    1    3    3    0    0  0.70362732994E-01 -0.62231707209E-01 -0.97944793241E-01  0.89040265167E+00  0.88000000000E+00 0.  1.
        -11    1    4    4    0    0 -0.88280773842E-02  0.22702154236E-01  0.72303367804E-02  0.25413808220E-01  0.51100000000E-03 0.  1.
         11    1    4    4    0    0 -0.69843610688E-01  0.28844182715E-01  0.84051740535E-01  0.11302686866E+00  0.51100000000E-03 0. -1.
</event>
<event>
 8    1  0.2943605E+004  0.1043930E+01  0.7957747E-01            NaN
         13   -1    0    0    0    0  0.00000000000E+00  0.00000000000E+00  0.74505805969E-08  0.10566000000E+00  0.10566000000E+00 0.  1.
     999900   -1    0    0    0    0 -0.00000000000E+00 -0.00000000000E+00 -0.74505805969E-08  0.93827000000E+00  0.93827000000E+00 0.  1.
     999902    2    1    2    0    0  0.24403711688E-03 -0.75301923129E-02  0.13268645457E-01  0.10286715498E+01  0.10285583780E+01 0.  0.
     999903    2    3    3    0    0  0.80643064884E-01  0.79290697845E-02  0.10418450070E+00  0.14020732137E+00  0.47302311985E-01 0.  0.
         14    1    1    2    0    0 -0.24403711688E-03  0.75301923129E-02 -0.13268645457E-01  0.15258450205E-01  0.00000000000E+00 0. -1.
     999901    1    3    3    0    0 -0.80399027767E-01 -0.15459262097E-01 -0.90915855242E-01  0.88846422842E+00  0.88000000000E+00 0.  1.
        -11    1    4    4    0    0  0.30682794736E-01 -0.92536382206E-02  0.70777780215E-01  0.77696969094E-01  0.51100000000E-03 0.  1.
         11    1    4    4    0    0  0.49960270148E-01  0.17182708005E-01  0.33406720484E-01  0.62510352280E-01  0.51100000000E-03 0. -1.
</event>
<event>
 8    1  0.2943605E+004  0.1043930E+01  0.7957747E-01            NaN
         13   -1    0    0    0    0  0.00000000000E+00  0.00000000000E+00  0.74505805969E-08  0.10566000000E+00  0.10566000000E+00 0.  1.
     999900   -1    0    0    0    0 -0.00000000000E+00 -0.00000000000E+00 -0.74505805969E-08  0.93827000000E+00  0.93827000000E+00 0.  1.
     999902    2    1    2    0    0 -0.98454925859E-02 -0.18781718654E-02  0.95984261753E-02  0.10300522826E+01  0.10299587924E+01 0.  0.
     999903    2    3    3    0    0 -0.79311735017E-01  0.70769190028E-01 -0.80732010736E-01  0.13973616696E+00  0.41351048717E-01 0.  0.
         14    1    1    2    0    0  0.98454925859E-02  0.18781718654E-02 -0.95984261753E-02  0.13877717350E-01  0.00000000000E+00 0. -1.
     999901    1    3    3    0    0  0.69466242431E-01 -0.72647361894E-01  0.90330436911E-01  0.89031611569E+00  0.88000000000E+00 0. -1.
        -11    1    4    4    0    0 -0.22930184762E-01  0.36985998493E-01 -0.52517714482E-01  0.68206516648E-01  0.51100000000E-03 0. -1.
         11    1    4    4    0    0 -0.56381550255E-01  0.33783191535E-01 -0.28214296254E-01  0.71529650310E-01  0.51100000000E-03 0.  1.
</event>
<event>
 8    1  0.2943605E+004  0.1043930E+01  0.7957747E-01            NaN
         13   -1    0    0    0    0  0.00000000000E+00  0.00000000000E+00  0.74505805969E-08  0.10566000000E+00  0.10566000000E+00 0. -1.
     999900   -1    0    0    0    0 -0.00000000000E+00 -0.00000000000E+00 -0.74505805969E-08  0.93827000000E+00  0.93827000000E+00 0. -1.
     999902    2    1    2    0    0 -0.20946687816E-02 -0.97293799813E-02 -0.11166754630E-01  0.10289718958E+01  0.10288631675E+01 0.  0.
     999903    2    3    3    0    0 -0.66134255840E-01  0.90154938816E-01  0.66586600812E-01  0.13761140188E+00  0.44737788621E-01 0.  0.
         14    1    1    2    0    0  0.20946687816E-02  0.97293799813E-02  0.11166754630E-01  0.14958104194E-01  0.00000000000E+00 0. -1.
     999901    1    3    3    0    0  0.64039587058E-01 -0.99884318798E-01 -0.77753355442E-01  0.89136049393E+00  0.88000000000E+00 0. -1.
        -11    1    4    4    0    0 -0.10515670355E-01  0.43356846637E-01  0.40871936225E-01  0.60507617413E-01  0.51100000000E-03 0. -1.
         11    1    4    4    0    0 -0.55618585485E-01  0.46798092180E-01  0.25714664588E-01  0.77103784465E-01  0.51100000000E-03 0.  1.
</event>
<event>
 8    1  0.2943605E+004  0.1043930E+01  0.7957747E-01            NaN
         13   -1    0    0    0    0  0.00000000000E+00  0.00000000000E+00  0.74505805969E-08  0.10566000000E+00  0.10566000000E+00 0.  1.
     999900   -1    0    0    0    0 -0.00000000000E+00 -0.00000000000E+00 -0.74505805969E-08  0.93827000000E+00  0.93827000000E+00 0. -1.
     999902    2    1    2    0    0  0.84245126211E-02 -0.87481669954E-02 -0.62189042748E-02  0.10302853084E+01  0.10301949520E+01 0.  0.
     999903    2    3    3    0    0  0.21436145347E-02  0.39734088314E-01  0.12529094400E+00  0.13917093922E+00  0.45687381367E-01 0.  0.
         14    1    1    2    0    0 -0.84245126211E-02  0.87481669954E-02  0.62189042748E-02  0.13644691607E-01  0.00000000000E+00 0. -1.
     999901    1    3    3    0    0  0.62808980864E-02 -0.48482255309E-01 -0.13150984828E+00  0.89111436918E+00  0.88000000000E+00 0. -1.
        -11    1    4    4    0    0  0.15051408634E-01 -0.12343537275E-02  0.52685535631E-01  0.54809627957E-01  0.51100000000E-03 0.  1.
         11    1    4    4    0    0 -0.12907794100E-01  0.40968442041E-01  0.72605408369E-01  0.84361311259E-01  0.51100000000E-03 0. -1.
</event>
<event>
 8    1  0.2943605E+004  0.1043930E+01  0.7957747E-01            NaN
         13   -1    0    0    0    0  0.00000000000E+00  0.00000000000E+00  0.74505805969E-08  0.10566000000E+00  0.10566000000E+00 0.  1.
     999900   -1    0    0    0    0 -0.00000000000E+00 -0.00000000000E+00 -0.74505805969E-08  0.93827000000E+00  0.93827000000E+00 0.  1.
     999902    2    1    2    0    0 -0.33168206130E-02 -0.85419755079E-03  0.11680540473E-01  0.10317576552E+01  0.10316858500E+01 0.  0.
     999903    2    3    3    0    0  0.79729645174E-01  0.10434784829E+00 -0.22474828477E-01  0.14095421158E+00  0.46018279889E-01 0.  0.
         14    1    1    2    0    0  0.33168206130E-02  0.85419755079E-03 -0.11680540473E-01  0.12172344810E-01  0.00000000000E+00 0. -1.
     999901    1    3    3    0    0 -0.83046465787E-01 -0.10520204584E+00  0.34155368950E-01  0.89080344362E+00  0.88000000000E+00 0. -1.
        -11    1    4    4    0    0  0.26520600750E-01  0.68462412955E-01 -0.15143755783E-02  0.73437039061E-01  0.51100000000E-03 0.  1.
         11    1    4    4    0    0  0.53209044424E-01  0.35885435333E-01 -0.20960452899E-01  0.67517172514E-01  0.51100000000E-03 0. -1.
</event>
<event>
 8    1  0.2943605E+004  0.1043930E+01  0.7957747E-01            NaN
         13   -1    0    0    0    0  0.00000000000E+00  0.00000000000E+00  0.74505805969E-08  0.10566000000E+00  0.10566000000E+00 0. -1.
     999900   -1    0    0    0    0 -0.00000000000E+00 -0.00000000000E+00 -0.74505805969E-08  0.93827000000E+00  0.93827000000E+00 0.  1.
     999902    2    1    2    0    0  0.59730369797E-03  0.12571682819E-01  0.57328174450E-02  0.10300999900E+01  0.10300071457E+01 0.  0.
     999903    2    3    3    0    0  0.11250643753E+00 -0.33582664710E-01 -0.60189666312E-01  0.13937014774E+00  0.44897085606E-01 0.  0.
         14    1    1    2    0    0 -0.59730369797E-03 -0.12571682819E-01 -0.57328174450E-02  0.13830009995E-01  0.00000000000E+00 0.  1.
     999901    1    3    3    0    0 -0.11190913383E+00  0.46154347529E-01  0.65922483757E-01  0.89072984226E+00  0.88000000000E+00 0. -1.
        -11    1    4    4    0    0  0.71060645776E-01  0.10270880781E-02 -0.41089141443E-01  0.82092928767E-01  0.51100000000E-03 0. -1.
         11    1    4    4    0    0  0.41445791756E-01 -0.34609752788E-01 -0.19100524869E-01  0.57277218976E-01  0.51100000000E-03 0.  1.
</event>
<event>
 8    1  0.2943605E+004  0.1043930E+01  0.7957747E-01            NaN
         13   -1    0    0    0    0  0.00000000000E+00  0.00000000000E+00  0.74505805969E-08  0.10566000000E+00  0.10566000000E+00 0. -1.
     999900   -1    0    0    0    0 -0.00000000000E+00 -0.00000000000E+00 -0.74505805969E-08  0.93827000000E+00  0.93827000000E+00 0.  1.
     999902    2    1    2    0    0  0.14700743218E-02  0.62600826922E-02  0.12275157695E-01  0.10300725381E+01  0.10299793224E+01 0.  0.
     999903    2    3    3    0    0  0.63608524945E-01  0.18112346808E-01  0.11682393973E+00  0.14162889271E+00  0.45131018193E-01 0.  0.
         14    1    1    2    0    0 -0.14700743218E-02 -0.62600826922E-02 -0.12275157695E-01  0.13857461899E-01  0.00000000000E+00 0.  1.
     999901    1    3    3    0    0 -0.62138450624E-01 -0.11852264116E-01 -0.10454878204E+00  0.88844364539E+00  0.88000000000E+00 0.  1.
        -11    1    4    4    0    0  0.34379007040E-01  0.16593104048E-01  0.25963969921E-01  0.46169644596E-01  0.51100000000E-03 0.  1.
         11    1    4    4    0    0  0.29229517905E-01  0.15192427594E-02  0.90859969811E-01  0.95459248114E-01  0.51100000000E-03 0. -1.
</event>
<event>
 8    1  0.2943605E+004  0.1043930E+01  0.7957747E-01            NaN
         13   -1    0    0    0    0  0.00000000000E+00  0.00000000000E+00  0.74505805969E-08  0.10566000000E+00  0.10566000000E+00 0. -1.
     999900   -1    0    0    0    0 -0.00000000000E+00 -0.00000000000E+00 -0.74505805969E-08  0.93827000000E+00  0.93827000000E+00 0. -1.
     999902    2    1    2    0    0  0.10465967245E-01  0.62938962911E-02  0.73571219554E-02  0.10296724811E+01  0.10295737669E+01 0.  0.
     999903    2    3    3    0    0 -0.74917680143E-03 -0.12795292584E+00 -0.28891621991E-01  0.13868316573E+00  0.45008689604E-01 0.  0.
         14    1    1    2    0    0 -0.10465967245E-01 -0.62938962911E-02 -0.73571219554E-02  0.14257518871E-01  0.00000000000E+00 0.  1.
     999901    1    3    3    0    0  0.11215144046E-01  0.13424682213E+00  0.36248743946E-01  0.89098931539E+00  0.88000000000E+00 0. -1.
        -11    1    4    4    0    0 -0.36044025854E-02 -0.95335764764E-01 -0.59809841164E-03  0.95407120300E-01  0.51100000000E-03 0. -1.
         11    1    4    4    0    0  0.28552257839E-02 -0.32617161077E-01 -0.28293523579E-01  0.43276045435E-01  0.51100000000E-03 0.  1.
</event>
<event>
 8    1  0.2943605E+004  0.1043930E+01  0.7957747E-01            NaN
         13   -1    0    0    0    0  0.00000000000E+00  0.00000000000E+00  0.74505805969E-08  0.10566000000E+00  0.10566000000E+00 0.  1.
     999900   -1    0    0    0    0 -0.00000000000E+00 -0.00000000000E+00 -0.74505805969E-08  0.93827000000E+00  0.93827000000E+00 0. -1.
     999902    2    1    2    0    0 -0.46636398198E-02 -0.77148715273E-02 -0.10868245065E-01  0.10298095351E+01  0.10297127226E+01 0.  0.
     999903    2    3    3    0    0  0.81703276230E-01 -0.90601753162E-01 -0.59069321423E-01  0.14039803127E+00  0.36583048362E-01 0.  0.
         14    1    1    2    0    0  0.46636398198E-02  0.77148715273E-02  0.10868245065E-01  0.14120464931E-01  0.00000000000E+00 0.  1.
     999901    1    3    3    0    0 -0.86366916050E-01  0.82886881634E-01  0.48201076357E-01  0.88941150380E+00  0.88000000000E+00 0.  1.
        -11    1    4    4    0    0  0.40305781879E-01 -0.69539000976E-01 -0.43589919626E-01  0.91436157638E-01  0.51100000000E-03 0. -1.
         11    1    4    4    0    0  0.41397494351E-01 -0.21062752185E-01 -0.15479401797E-01  0.48961873628E-01  0.51100000000E-03 0.  1.
</event>
<event>
 8    1  0.2943605E+004  0.1043930E+01  0.7957747E-01            NaN
         13   -1    0    0    0    0  0.00000000000E+00  0.00000000000E+00  0.74505805969E-08  0.10566000000E+00  0.10566000000E+00 0. -1.
     999900   -1    0    0    0    0 -0.00000000000E+00 -0.00000000000E+00 -0.74505805969E-08  0.93827000000E+00  0.93827000000E+00 0.  1.
     999902    2    1    2    0    0 -0.36946935499E-02 -0.13890134840E-01  0.24381767063E-02  0.10293515463E+01  0.10292483056E+01 0.  0.
     999903    2    3    3    0    0  0.32471578848E-02 -0.12397703644E+00 -0.44713979441E-01  0.14121268271E+00  0.50604665813E-01 0.  0.
         14    1    1    2    0    0  0.36946935499E-02  0.13890134840E-01 -0.24381767063E-02  0.14578453688E-01  0.00000000000E+00 0. -1.
     999901    1    3    3    0    0 -0.69418514347E-02  0.11008690160E+00  0.47152156148E-01  0.88813886360E+00  0.88000000000E+00 0. -1.
        -11    1    4    4    0    0 -0.16678861472E-01 -0.21195725701E-01 -0.20156900161E-01  0.33674990023E-01  0.51100000000E-03 0. -1.
         11    1    4    4    0    0  0.19926019356E-01 -0.10278131074E+00 -0.24557079280E-01  0.10753769269E+00  0.51100000000E-03 0.  1.
</event>
<event>
 8    1  0.2943605E+004  0.1043930E+01  0.7957747E-01            NaN
         13   -1    0    0    0    0  0.00000000000E+00  0.00000000000E+00  0.74505805969E-08  0.10566000000E+00  0.10566000000E+00 0.  1.
     999900   -1    0    0    0    0 -0.00000000000E+00 -0.00000000000E+00 -0.74505805969E-08  0.93827000000E+00  0.93827000000E+00 0. -1.
     999902    2    1    2    0    0  0.89136270753E-02  0.99534653955E-02 -0.12657042824E-01  0.10255255181E+01  0.10253603578E+01 0.  0.
     999903    2    3    3    0    0  0.19891223919E-01 -0.39011304060E-01 -0.12198512256E+00  0.13734159272E+00  0.45440074080E-01 0.  0.
         14    1    1    2    0    0 -0.89136270753E-02 -0.99534653955E-02  0.12657042824E-01  0.18404481902E-01  0.00000000000E+00 0. -1.
     999901    1    3    3    0    0 -0.10977596843E-01  0.48964769455E-01  0.10932807973E+00  0.88818392538E+00  0.88000000000E+00 0.  1.
        -11    1    4    4    0    0  0.31527937078E-01 -0.40074636537E-01 -0.92556575147E-01  0.10567387583E+00  0.51100000000E-03 0.  1.
         11    1    4    4    0    0 -0.11636713159E-01  0.10633324773E-02 -0.29428547410E-01  0.31667716886E-01  0.51100000000E-03 0. -1.
</event>
<event>
 8    1  0.2943605E+004  0.1043930E+01  0.7957747E-01            NaN
         13   -1    0    0    0    0  0.00000000000E+00  0.00000000000E+00  0.74505805969E-08  0.10566000000E+00  0.10566000000E+00 0.  1.
     999900   -1    0    0    0    0 -0.00000000000E+00 -0.00000000000E+00 -0.74505805969E-08  0.93827000000E+00  0.93827000000E+00 0. -1.
     999902    2    1    2    0    0  0.10813396157E-01  0.36013512763E-02 -0.68906086484E-02  0.10306116009E+01  0.10305255417E+01 0.  0.
     999903    2    3    3    0    0  0.90939334310E-01  0.88553886002E-01  0.43392699113E-01  0.14147409174E+00  0.44947069401E-01 0.  0.
         14    1    1    2    0    0 -0.10813396157E-01 -0.36013512763E-02  0.68906086484E-02  0.13318399115E-01  0.00000000000E+00 0.  1.
     999901    1    3    3    0    0 -0.80125938153E-01 -0.84952534725E-01 -0.50283307762E-01  0.88913750914E+00  0.88000000000E+00 0. -1.
        -11    1    4    4    0    0  0.20185584731E-01  0.45535460218E-01  0.28343649227E-01  0.57311076946E-01  0.51100000000E-03 0. -1.
         11    1    4    4    0    0  0.70753749579E-01  0.43018425784E-01  0.15049049886E-01  0.84163014798E-01  0.51100000000E-03 0.  1.
</event>
<event>
 8    1  0.2943605E+004  0.1043930E+01  0.7957747E-01            NaN
         13   -1    0    0    0    0  0.00000000000E+00  0.00000000000E+00  0.74505805969E-08  0.10566000000E+00  0.10566000000E+00 0. -1.
     999900   -1    0    0    0    0 -0.00000000000E+00 -0.00000000000E+00 -0.74505805969E-08  0.93827000000E+00  0.93827000000E+00 0.  1.
     999902    2    1    2    0    0  0.53510188743E-02 -0.44014022055E-04 -0.13634345652E-01  0.10292831327E+01  0.10291789138E+01 0.  0.
     999903    2    3    3    0    0  0.67187541551E-01  0.10428835283E+00  0.43964032957E-01  0.13909968446E+00  0.45007329936E-01 0.  0.
         14    1    1    2    0    0 -0.53510188743E-02  0.44014022055E-04  0.13634345652E-01  0.14646867296E-01  0.00000000000E+00 0. -1.
     999901    1    3    3    0    0 -0.61836522677E-01 -0.10433236685E+00 -0.57598378608E-01  0.89018344824E+00  0.88000000000E+00 0.  1.
        -11    1    4    4    0    0  0.70044361261E-01  0.78499484548E-01  0.41254472520E-01  0.11300696546E+00  0.51100000000E-03 0. -1.
         11    1    4    4    0    0 -0.28568197105E-02  0.25788868280E-01  0.27095604373E-02  0.26092719000E-01  0.51100000000E-03 0.  1.
</event>
<event>
 8    1  0.2943605E+004  0.1043930E+01  0.7957747E-01            NaN
         13   -1    0    0    0    0  0.00000000000E+00  0.00000000000E+00  0.74505805969E-08  0.10566000000E+00  0.10566000000E+00 0.  1.
     999900   -1    0    0    0    0 -0.00000000000E+00 -0.00000000000E+00 -0.74505805969E-08  0.93827000000E+00  0.93827000000E+00 0. -1.
     999902    2    1    2    0    0 -0.10283955275E-01  0.50332785381E-02  0.75175970297E-02  0.10302329969E+01  0.10301419417E+01 0.  0.
     999903    2    3    3    0    0 -0.76322360986E-01  0.26458352603E-01 -0.10556189295E+00  0.14028520299E+00  0.44849500843E-01 0.  0.
         14    1    1    2    0    0  0.10283955275E-01 -0.50332785381E-02 -0.75175970297E-02  0.13697003105E-01  0.00000000000E+00 0.  1.
     999901    1    3    3    0    0  0.66038405711E-01 -0.21425074065E-01  0.11307948998E+00  0.88994779391E+00  0.88000000000E+00 0.  1.
        -11    1    4    4    0    0 -0.17899934168E-01  0.18587758795E-01 -0.93562070701E-02  0.27453818532E-01  0.51100000000E-03 0.  1.
         11    1    4    4    0    0 -0.58422426818E-01  0.78705938074E-02 -0.96205685877E-01  0.11283138446E+00  0.51100000000E-03 0. -1.
</event>
<event>
 8    1  0.2943605E+004  0.1043930E+01  0.7957747E-01            NaN
         13   -1    0    0    0    0  0.00000000000E+00  0.00000000000E+00  0.74505805969E-08  0.10566000000E+00  0.10566000000E+00 0.  1.
     999900   -1    0    0    0    0 -0.00000000000E+00 -0.00000000000E+00 -0.74505805969E-08  0.93827000000E+00  0.93827000000E+00 0.  1.
     999902    2    1    2    0    0 -0.10179177197E-01  0.45387938726E-02 -0.85283876313E-02  0.10298961234E+01  0.10298005026E+01 0.  0.
     999903    2    3    3    0    0  0.11183741414E-01  0.10547442756E+00  0.77840909587E-01  0.13966916805E+00  0.46886441095E-01 0.  0.
         14    1    1    2    0    0  0.10179177197E-01 -0.45387938726E-02  0.85283876313E-02  0.14033876650E-01  0.00000000000E+00 0. -1.
     999901    1    3    3    0    0 -0.21362918611E-01 -0.10093563368E+00 -0.86369297218E-01  0.89022695530E+00  0.88000000000E+00 0. -1.
        -11    1    4    4    0    0  0.19989958249E-01  0.70749332252E-01  0.28858030224E-01  0.78981728737E-01  0.51100000000E-03 0. -1.
         11    1    4    4    0    0 -0.88062168350E-02  0.34725095304E-01  0.48982879363E-01  0.60687439315E-01  0.51100000000E-03 0.  1.
</event>
<event>
 8    1  0.2943605E+004  0.1043930E+01  0.7957747E-01            NaN
         13   -1    0    0    0    0  0.00000000000E+00  0.00000000000E+00  0.74505805969E-08  0.10566000000E+00  0.10566000000E+00 0.  1.
     999900   -1    0    0    0    0 -0.00000000000E+00 -0.00000000000E+00 -0.74505805969E-08  0.93827000000E+00  0.93827000000E+00 0. -1.
     999902    2    1    2    0    0 -0.14155923543E-01 -0.63309313978E-03  0.88868346570E-03  0.10297320869E+01  0.10296342021E+01 0.  0.
     999903    2    3    3    0    0 -0.12364901037E+00  0.40775976030E-02  0.52323375250E-01  0.14144358973E+00  0.44304050735E-01 0.  0.
         14    1    1    2    0    0  0.14155923543E-01  0.63309313978E-03 -0.88868346570E-03  0.14197913107E-01  0.00000000000E+00 0.  1.
     999901    1    3    3    0    0  0.10949308682E+00 -0.47106907427E-02 -0.51434691784E-01  0.88828849716E+00  0.88000000000E+00 0. -1.
        -11    1    4    4    0    0 -0.46580856997E-01 -0.17432829186E-01  0.31100266362E-01  0.58661464871E-01  0.51100000000E-03 0. -1.
         11    1    4    4    0    0 -0.77068153371E-01  0.21510426789E-01  0.21223108888E-01  0.82782124861E-01  0.51100000000E-03 0.  1.
</event>
<event>
 8    1  0.2943605E+004  0.1043930E+01  0.7957747E-01            NaN
         13   -1    0    0    0    0  0.00000000000E+00  0.00000000000E+00  0.74505805969E-08  0.10566000000E+00  0.10566000000E+00 0. -1.
     999900   -1    0    0    0    0 -0.00000000000E+00 -0.00000000000E+00 -0.74505805969E-08  0.93827000000E+00  0.93827000000E+00 0. -1.
     999902    2    1    2    0    0 -0.78977912175E-02  0.11761359936E-01  0.81520681056E-02  0.10275849424E+01  0.10274549396E+01 0.  0.
     999903    2    3    3    0    0  0.98984208833E-02 -0.65960545837E-01 -0.10941903460E+00  0.13619256864E+00  0.46120692514E-01 0.  0.
         14    1    1    2    0    0  0.78977912175E-02 -0.11761359936E-01 -0.81520681056E-02  0.16345057603E-01  0.00000000000E+00 0.  1.
     999901    1    3    3    0    0 -0.17796212101E-01  0.77721905772E-01  0.11757110270E+00  0.89139237376E+00  0.88000000000E+00 0.  1.
        -11    1    4    4    0    0 -0.32068558166E-02 -0.10564075736E-01 -0.59377321709E-01  0.60397111477E-01  0.51100000000E-03 0. -1.
         11    1    4    4    0    0  0.13105276700E-01 -0.55396470101E-01 -0.50041712886E-01  0.75795457163E-01  0.51100000000E-03 0.  1.
</event>
<event>
 8    1  0.2943605E+004  0.1043930E+01  0.7957747E-01            NaN
         13   -1    0    0    0    0  0.00000000000E+00  0.00000000000E+00  0.74505805969E-08  0.10566000000E+00  0.10566000000E+00 0.  1.
     999900   -1    0    0    0    0 -0.00000000000E+00 -0.00000000000E+00 -0.74505805969E-08  0.93827000000E+00  0.93827000000E+00 0.  1.
     999902    2    1    2    0    0 -0.55278481673E-02  0.11775607994E-01  0.36091851458E-02  0.10304300642E+01  0.10303416273E+01 0.  0.
     999903    2    3    3    0    0 -0.25614415954E-01 -0.12207805859E+00  0.44500075784E-01  0.13914316360E+00  0.42678010004E-01 0.  0.
         14    1    1    2    0    0  0.55278481673E-02 -0.11775607994E-01 -0.36091851458E-02  0.13499935792E-01  0.00000000000E+00 0. -1.
     999901    1    3    3    0    0  0.20086567787E-01  0.13385366658E+00 -0.40890890638E-01  0.89128690061E+00  0.88000000000E+00 0.  1.
        -11    1    4    4    0    0  0.61010227980E-02 -0.67192141999E-01  0.14502542531E-01  0.69011530098E-01  0.51100000000E-03 0. -1.
         11    1    4    4    0    0 -0.31715438752E-01 -0.54885916589E-01  0.29997533253E-01  0.70131633499E-01  0.51100000000E-03 0.  1.
</event>
<event>
 8    1  0.2943605E+004  0.1043930E+01  0.7957747E-01            NaN
         13   -1    0    0    0    0  0.00000000000E+00  0.00000000000E+00  0.74505805969E-08  0.10566000000E+00  0.10566000000E+00 0.  1.
     999900   -1    0    0    0    0 -0.00000000000E+00 -0.00000000000E+00 -0.74505805969E-08  0.93827000000E+00  0.93827000000E+00 0. -1.
     999902    2    1    2    0    0  0.12178189157E-01  0.79226272012E-02 -0.16240597058E-02  0.10293110437E+01  0.10292072244E+01 0.  0.
     999903    2    3    3    0    0  0.11770567760E+00 -0.46056561886E-01  0.37507554405E-01  0.14050224150E+00  0.48561608257E-01 0.  0.
         14    1    1    2    0    0 -0.12178189157E-01 -0.79226272012E-02  0.16240597058E-02  0.14618956284E-01  0.00000000000E+00 0. -1.
     999901    1    3    3    0    0 -0.10552748845E+00  0.53979189087E-01 -0.39131614110E-01  0.88880880222E+00  0.88000000000E+00 0. -1.
        -11    1    4    4    0    0  0.38933675601E-01 -0.15321483336E-01  0.37133617636E-01  0.55944129515E-01  0.51100000000E-03 0.  1.
         11    1    4    4    0    0  0.78772002003E-01 -0.30735078550E-01  0.37393676838E-03  0.84558111986E-01  0.51100000000E-03 0. -1.
</event>
<event>
 8    1  0.2943605E+004  0.1043930E+01  0.7957747E-01            NaN
         13   -1    0    0    0    0  0.00000000000E+00  0.00000000000E+00  0.74505805969E-08  0.10566000000E+00  0.10566000000E+00 0. -1.
     999900   -1    0    0    0    0 -0.00000000000E+00 -0.00000000000E+00 -0.74505805969E-08  0.93827000000E+00  0.93827000000E+00 0.  1.
     999902    2    1    2    0    0  0.25349679980E-02 -0.82312630395E-02  0.10471895037E-01  0.10303712265E+01  0.10302820119E+01 0.  0.
     999903    2    3    3    0    0 -0.95312495831E-01  0.55570688176E-01 -0.71283859422E-01  0.13889558544E+00  0.45144454762E-01 0.  0.
         14    1    1    2    0    0 -0.25349679980E-02  0.82312630395E-02 -0.10471895037E-01  0.13558773530E-01  0.00000000000E+00 0.  1.
     999901    1    3    3    0    0  0.97847463829E-01 -0.63801951215E-01  0.81755754459E-01  0.89147564103E+00  0.88000000000E+00 0. -1.
        -11    1    4    4    0    0 -0.61519726295E-01  0.18768433680E-01 -0.20152574167E-01  0.67404140768E-01  0.51100000000E-03 0.  1.
         11    1    4    4    0    0 -0.33792769536E-01  0.36802254495E-01 -0.51131285255E-01  0.71491444675E-01  0.51100000000E-03 0. -1.
</event>
<event>
 8    1  0.2943605E+004  0.1043930E+01  0.7957747E-01            NaN
         13   -1    0    0    0    0  0.00000000000E+00  0.00000000000E+00  0.74505805969E-08  0.10566000000E+00  0.10566000000E+00 0.  1.
     999900   -1    0    0    0    0 -0.00000000000E+00 -0.00000000000E+00 -0.74505805969E-08  0.93827000000E+00  0.93827000000E+00 0. -1.
     999902    2    1    2    0    0 -0.11011969107E-01 -0.43975353206E-02 -0.11651214746E-01  0.10273061441E+01  0.10271716318E+01 0.  0.
     999903    2    3    3    0    0 -0.82403845448E-01  0.10143549535E+00 -0.84228634621E-02  0.13808859329E+00  0.43794537400E-01 0.  0.
         14    1    1    2    0    0  0.11011969107E-01  0.43975353206E-02  0.11651214746E-01  0.16623855918E-01  0.00000000000E+00 0. -1.
     999901    1    3    3    0    0  0.71391876341E-01 -0.10583303067E+00 -0.32283512841E-02  0.88921755079E+00  0.88000000000E+00 0.  1.
        -11    1    4    4    0    0 -0.19781123231E-01  0.51823973043E-01 -0.16268561257E-01  0.57809551326E-01  0.51100000000E-03 0.  1.
         11    1    4    4    0    0 -0.62622722217E-01  0.49611522307E-01  0.78456977946E-02  0.80279041962E-01  0.51100000000E-03 0. -1.
</event>
<event>
 8    1  0.2943605E+004  0.1043930E+01  0.7957747E-01            NaN
         13   -1    0    0    0    0  0.00000000000E+00  0.00000000000E+00  0.74505805969E-08  0.10566000000E+00  0.10566000000E+00 0. -1.
     999900   -1    0    0    0    0 -0.00000000000E+00 -0.00000000000E+00 -0.74505805969E-08  0.93827000000E+00  0.93827000000E+00 0. -1.
     999902    2    1    2    0    0  0.10603901304E-01  0.55786197136E-02  0.61245839812E-02  0.10304736168E+01  0.10303857533E+01 0.  0.
     999903    2    3    3    0    0  0.41327060261E-01 -0.41212922367E-01 -0.11965698039E+00  0.13976919731E+00  0.42558250438E-01 0.  0.
         14    1    1    2    0    0 -0.10603901304E-01 -0.55786197136E-02 -0.61245839812E-02  0.13456383233E-01  0.00000000000E+00 0.  1.
     999901    1    3    3    0    0 -0.30723158958E-01  0.46791542080E-01  0.12578156437E+00  0.89070441946E+00  0.88000000000E+00 0.  1.
        -11    1    4    4    0    0  0.16126166092E-01 -0.41503363895E-01 -0.57728891789E-01  0.72907259691E-01  0.51100000000E-03 0.  1.
         11    1    4    4    0    0  0.25200894170E-01  0.29044152833E-03 -0.61928088601E-01  0.66861937618E-01  0.51100000000E-03 0. -1.
</event>
<event>
 8    1  0.2943605E+004  0.1043930E+01  0.7957747E-01            NaN
         13   -1    0    0    0    0  0.00000000000E+00  0.00000000000E+00  0.74505805969E-08  0.10566000000E+00  0.10566000000E+00 0. -1.
     999900   -1    0    0    0    0 -0.00000000000E+00 -0.00000000000E+00 -0.74505805969E-08  0.93827000000E+00  0.93827000000E+00 0. -1.
     999902    2    1    2    0    0 -0.96900909908E-02 -0.44007389358E-02  0.77676644230E-02  0.10307542276E+01  0.10306700135E+01 0.  0.
     999903    2    3    3    0    0 -0.92390123089E-01 -0.60875701446E-01  0.77263357313E-01  0.14235208445E+00  0.45306773150E-01 0.  0.
         14    1    1    2    0    0  0.96900909908E-02  0.44007389358E-02 -0.77676644230E-02  0.13175772356E-01  0.00000000000E+00 0. -1.
     999901    1    3    3    0    0  0.82700032098E-01  0.56474962511E-01 -0.69495692891E-01  0.88840214319E+00  0.88000000000E+00 0. -1.
        -11    1    4    4    0    0 -0.62222098360E-01 -0.17128531589E-01  0.54764097655E-01  0.84642445804E-01  0.51100000000E-03 0. -1.
         11    1    4    4    0    0 -0.30168024729E-01 -0.43747169858E-01  0.22499259659E-01  0.57709638647E-01  0.51100000000E-03 0.  1.
</event>
<event>
 8    1  0.2943605E+004  0.1043930E+01  0.7957747E-01            NaN
         13   -1    0    0    0    0  0.00000000000E+00  0.00000000000E+00  0.74505805969E-08  0.10566000000E+00  0.10566000000E+00 0.  1.
     999900   -1    0    0    0    0 -0.00000000000E+00 -0.00000000000E+00 -0.74505805969E-08  0.93827000000E+00  0.93827000000E+00 0.  1.
     999902    2    1    2    0    0 -0.11048849406E-01  0.53588902606E-02  0.62020296673E-02  0.10301728219E+01  0.10300809594E+01 0.  0.
     999903    2    3    3    0    0 -0.29995280744E-01 -0.60374501781E-01 -0.11358714457E+00  0.13942634147E+00  0.44641549617E-01 0.  0.
         14    1    1    2    0    0  0.11048849406E-01 -0.53588902606E-02 -0.62020296673E-02  0.13757178127E-01  0.00000000000E+00 0.  1.
     999901    1    3    3    0    0  0.18946431338E-01  0.65733392042E-01  0.11978917423E+00  0.89074648040E+00  0.88000000000E+00 0. -1.
        -11    1    4    4    0    0 -0.16542817425E-01 -0.60579021132E-01 -0.71128714725E-01  0.94884339009E-01  0.51100000000E-03 0.  1.
         11    1    4    4    0    0 -0.13452463319E-01  0.20451935094E-03 -0.42458429841E-01  0.44542002459E-01  0.51100000000E-03 0. -1.
</event>
<event>
 8    1  0.2943605E+004  0.1043930E+01  0.7957747E-01            NaN
         13   -1    0    0    0    0  0.00000000000E+00  0.00000000000E+00  0.74505805969E-08  0.10566000000E+00  0.10566000000E+00 0.  1.
     999900   -1    0    0    0    0 -0.00000000000E+00 -0.00000000000E+00 -0.74505805969E-08  0.93827000000E+00  0.93827000000E+00 0.  1.
     999902    2    1    2    0    0 -0.28699019495E-02  0.13619294501E-01  0.17021199551E-02  0.10299079198E+01  0.10298124609E+01 0.  0.
     999903    2    3    3    0    0 -0.47007728481E-02  0.53589771391E-01 -0.12220021333E+00  0.14032780579E+00  0.43186109763E-01 0.  0.
         14    1    1    2    0    0  0.28699019495E-02 -0.13619294501E-01 -0.17021199551E-02  0.14022080168E-01  0.00000000000E+00 0. -1.
     999901    1    3    3    0    0  0.18308708986E-02 -0.39970476890E-01  0.12390233328E+00  0.88958011404E+00  0.88000000000E+00 0. -1.
        -11    1    4    4    0    0 -0.18682869631E-01  0.42907659238E-01 -0.62464933489E-01  0.78052840279E-01  0.51100000000E-03 0.  1.
         11    1    4    4    0    0  0.13982096783E-01  0.10682112153E-01 -0.59735279840E-01  0.62274965508E-01  0.51100000000E-03 0. -1.
</event>
<event>
 8    1  0.2943605E+004  0.1043930E+01  0.7957747E-01            NaN
         13   -1    0    0    0    0  0.00000000000E+00  0.00000000000E+00  0.74505805969E-08  0.10566000000E+00  0.10566000000E+00 0. -1.
     999900   -1    0    0    0    0 -0.00000000000E+00 -0.00000000000E+00 -0.74505805969E-08  0.93827000000E+00  0.93827000000E+00 0. -1.
     999902    2    1    2    0    0  0.86556840819E-03  0.13984270144E-01  0.13923057755E-02  0.10298499597E+01  0.10297537045E+01 0.  0.
     999903    2    3    3    0    0  0.11675788457E+00  0.51677252446E-01 -0.37869638083E-01  0.14058436937E+00  0.45021254901E-01 0.  0.
         14    1    1    2    0    0 -0.86556840819E-03 -0.13984270144E-01 -0.13923057755E-02  0.14080040323E-01  0.00000000000E+00 0.  1.
     999901    1    3    3    0    0 -0.11589231617E+00 -0.37692982302E-01  0.39261943859E-01  0.88926559030E+00  0.88000000000E+00 0.  1.
        -11    1    4    4    0    0  0.39995319242E-01  0.22268939234E-01  0.79614451623E-02  0.46466944659E-01  0.51100000000E-03 0. -1.
         11    1    4    4    0    0  0.76762565332E-01  0.29408313213E-01 -0.45831083246E-01  0.94117424715E-01  0.51100000000E-03 0.  1.
</event>
<event>
 8    1  0.2943605E+004  0.1043930E+01  0.7957747E-01            NaN
         13   -1    0    0    0    0  0.00000000000E+00  0.00000000000E+00  0.74505805969E-08  0.10566000000E+00  0.10566000000E+00 0.  1.
     999900   -1    0    0    0    0 -0.00000000000E+00 -0.00000000000E+00 -0.74505805969E-08  0.93827000000E+00  0.93827000000E+00 0.  1.
     999902    2    1    2    0    0  0.61932475495E-02  0.10637764221E-01  0.64012005441E-02  0.10300557897E+01  0.10299623470E+01 0.  0.
     999903    2    3    3    0    0 -0.90648157371E-01  0.10308595072E-02  0.96317353962E-01  0.14013699287E+00  0.46294632403E-01 0.  0.
         14    1    1    2    0    0 -0.61932475495E-02 -0.10637764221E-01 -0.64012005441E-02  0.13874210292E-01  0.00000000000E+00 0.  1.
     999901    1    3    3    0    0  0.96841404921E-01  0.96069047135E-02 -0.89916153418E-01  0.88991879684E+00  0.88000000000E+00 0.  1.
        -11    1    4    4    0    0 -0.85054617134E-01 -0.72277217222E-02  0.98047731885E-01  0.13000056425E+00  0.51100000000E-03 0. -1.
         11    1    4    4    0    0 -0.55935402374E-02  0.82585812294E-02 -0.17303779224E-02  0.10136428615E-01  0.51100000000E-03 0.  1.
</event>
<event>
 8    1  0.2943605E+004  0.1043930E+01  0.7957747E-01            NaN
         13   -1    0    0    0    0  0.00000000000E+00  0.00000000000E+00  0.74505805969E-08  0.10566000000E+00  0.10566000000E+00 0. -1.
     999900   -1    0    0    0    0 -0.00000000000E+00 -0.00000000000E+00 -0.74505805969E-08  0.93827000000E+00  0.93827000000E+00 0.  1.
     999902    2    1    2    0    0  0.29144691623E-02 -0.12222808530E-01 -0.52269974140E-02  0.10303207134E+01  0.10302308284E+01 0.  0.
     999903    2    3    3    0    0 -0.11406483126E-02  0.18352300156E-01  0.13048209106E+00  0.13938399405E+00  0.45433618723E-01 0.  0.
         14    1    1    2    0    0 -0.29144691623E-02  0.12222808530E-01  0.52269974140E-02  0.13609286566E-01  0.00000000000E+00 0. -1.
     999901    1    3    3    0    0  0.40551174749E-02 -0.30575108686E-01 -0.13570908848E+00  0.89093671938E+00  0.88000000000E+00 0.  1.
        -11    1    4    4    0    0 -0.16012902229E-01 -0.62420465598E-02  0.74435126406E-01  0.76395191911E-01  0.51100000000E-03 0. -1.
         11    1    4    4    0    0  0.14872253916E-01  0.24594346716E-01  0.56046964656E-01  0.62988802140E-01  0.51100000000E-03 0.  1.
</event>
<event>
 8    1  0.2943605E+004  0.1043930E+01  0.7957747E-01            NaN
         13   -1    0    0    0    0  0.00000000000E+00  0.00000000000E+00  0.74505805969E-08  0.10566000000E+00  0.10566000000E+00 0.  1.
     999900   -1    0    0    0    0 -0.00000000000E+00 -0.00000000000E+00 -0.74505805969E-08  0.93827000000E+00  0.93827000000E+00 0. -1.
     999902    2    1    2    0    0  0.69053065197E-02  0.38498432678E-02 -0.66846208578E-02  0.10335768021E+01  0.10335249475E+01 0.  0.
     999903    2    3    3    0    0  0.97737322419E-01  0.69931801395E-01 -0.59628661307E-01  0.14485842614E+00  0.54638313794E-01 0.  0.
         14    1    1    2    0    0 -0.69053065197E-02 -0.38498432678E-02  0.66846208578E-02  0.10353197928E-01  0.00000000000E+00 0.  1.
     999901    1    3    3    0    0 -0.90832015899E-01 -0.66081958128E-01  0.52944040449E-01  0.88871837593E+00  0.88000000000E+00 0.  1.
        -11    1    4    4    0    0  0.57090340440E-01  0.71297885694E-01 -0.40756668343E-01  0.10002031099E+00  0.51100000000E-03 0.  1.
         11    1    4    4    0    0  0.40646981979E-01 -0.13660842988E-02 -0.18871992964E-01  0.44838115145E-01  0.51100000000E-03 0. -1.
</event>
<event>
 8    1  0.2943605E+004  0.1043930E+01  0.7957747E-01            NaN
         13   -1    0    0    0    0  0.00000000000E+00  0.00000000000E+00  0.74505805969E-08  0.10566000000E+00  0.10566000000E+00 0.  1.
     999900   -1    0    0    0    0 -0.00000000000E+00 -0.00000000000E+00 -0.74505805969E-08  0.93827000000E+00  0.93827000000E+00 0.  1.
     999902    2    1    2    0    0  0.79421602397E-03 -0.17439425994E-02  0.13734821834E-01  0.10300621434E+01  0.10299687869E+01 0.  0.
     999903    2    3    3    0    0 -0.96233371001E-01 -0.49891290301E-01 -0.74472428906E-01  0.13904416448E+00  0.45134626034E-01 0.  0.
         14    1    1    2    0    0 -0.79421602397E-03  0.17439425994E-02 -0.13734821834E-01  0.13867856565E-01  0.00000000000E+00 0. -1.
     999901    1    3    3    0    0  0.97027587025E-01  0.48147347702E-01  0.88207250740E-01  0.89101797895E+00  0.88000000000E+00 0. -1.
        -11    1    4    4    0    0 -0.51217212271E-01 -0.48100131034E-01 -0.57870939550E-01  0.91028194554E-01  0.51100000000E-03 0.  1.
         11    1    4    4    0    0 -0.45016158730E-01 -0.17911592674E-02 -0.16601489356E-01  0.48015969929E-01  0.51100000000E-03 0. -1.
</event>
<event>
 8    1  0.2943605E+004  0.1043930E+01  0.7957747E-01            NaN
         13   -1    0    0    0    0  0.00000000000E+00  0.00000000000E+00  0.74505805969E-08  0.10566000000E+00  0.10566000000E+00 0. -1.
     999900   -1    0    0    0    0 -0.00000000000E+00 -0.00000000000E+00 -0.74505805969E-08  0.93827000000E+00  0.93827000000E+00 0. -1.
     999902    2    1    2    0    0 -0.29754091523E-02 -0.90810178272E-02 -0.96994971873E-02  0.10303138996E+01  0.10302239240E+01 0.  0.
     999903    2    3    3    0    0 -0.56495484994E-01  0.11266116555E+00  0.35648802517E-01  0.13916743239E+00  0.47036784214E-01 0.  0.
         14    1    1    2    0    0  0.29754091523E-02  0.90810178272E-02  0.96994971873E-02  0.13616100399E-01  0.00000000000E+00 0. -1.
     999901    1    3    3    0    0  0.53520075842E-01 -0.12174218338E+00 -0.45348299704E-01  0.89114646721E+00  0.88000000000E+00 0. -1.
        -11    1    4    4    0    0 -0.30347056753E-01  0.55918928157E-01 -0.62632254086E-02  0.63932460404E-01  0.51100000000E-03 0.  1.
         11    1    4    4    0    0 -0.26148428241E-01  0.56742237396E-01  0.41912027926E-01  0.75234971988E-01  0.51100000000E-03 0. -1.
</event>
<event>
 8    1  0.2943605E+004  0.1043930E+01  0.7957747E-01            NaN
         13   -1    0    0    0    0  0.00000000000E+00  0.00000000000E+00  0.74505805969E-08  0.10566000000E+00  0.10566000000E+00 0.  1.
     999900   -1    0    0    0    0 -0.00000000000E+00 -0.00000000000E+00 -0.74505805969E-08  0.93827000000E+00  0.93827000000E+00 0. -1.
     999902    2    1    2    0    0  0.12826339041E-01  0.31213165430E-02 -0.27884667733E-02  0.10304380343E+01  0.10303497025E+01 0.  0.
     999903    2    3    3    0    0  0.10567899492E+00  0.22642937889E-01 -0.80086335628E-01  0.14196874961E+00  0.45393304646E-01 0.  0.
         14    1    1    2    0    0 -0.12826339041E-01 -0.31213165430E-02  0.27884667733E-02  0.13491965650E-01  0.00000000000E+00 0. -1.
     999901    1    3    3    0    0 -0.92852655879E-01 -0.19521621347E-01  0.77297868855E-01  0.88846928474E+00  0.88000000000E+00 0.  1.
        -11    1    4    4    0    0  0.26634575725E-01 -0.10008384510E-01 -0.66076526863E-02  0.29214561088E-01  0.51100000000E-03 0. -1.
         11    1    4    4    0    0  0.79044419196E-01  0.32651322400E-01 -0.73478682942E-01  0.11275418852E+00  0.51100000000E-03 0.  1.
</event>
<event>
 8    1  0.2943605E+004  0.1043930E+01  0.7957747E-01            NaN
         13   -1    0    0    0    0  0.00000000000E+00  0.00000000000E+00  0.74505805969E-08  0.10566000000E+00  0.10566000000E+00 0.  1.
     999900   -1    0    0    0    0 -0.00000000000E+00 -0.00000000000E+00 -0.74505805969E-08  0.93827000000E+00  0.93827000000E+00 0.  1.
     999902    2    1    2    0    0  0.67509311493E-02 -0.35383509218E-03  0.11199346984E-01  0.10308485000E+01  0.10307654943E+01 0.  0.
     999903    2    3    3    0    0  0.80102484184E-01 -0.52752422407E-01  0.94734307402E-01  0.14230803835E+00  0.45582482803E-01 0.  0.
         14    1    1    2    0    0 -0.67509311493E-02  0.35383509218E-03 -0.11199346984E-01  0.13081500049E-01  0.00000000000E+00 0. -1.
     999901    1    3    3    0    0 -0.73351553035E-01  0.52398587315E-01 -0.83534960418E-01  0.88854046160E+00  0.88000000000E+00 0.  1.
        -11    1    4    4    0    0  0.44054926366E-01 -0.23866604278E-01  0.18983997094E-01  0.53582689402E-01  0.51100000000E-03 0.  1.
         11    1    4    4    0    0  0.36047557818E-01 -0.28885818129E-01  0.75750310308E-01  0.88725348951E-01  0.51100000000E-03 0. -1.
</event>
<event>
 8    1  0.2943605E+004  0.1043930E+01  0.7957747E-01            NaN
         13   -1    0    0    0    0  0.00000000000E+00  0.00000000000E+00  0.74505805969E-08  0.10566000000E+00  0.10566000000E+00 0. -1.
     999900   -1    0    0    0    0 -0.00000000000E+00 -0.00000000000E+00 -0.74505805969E-08  0.93827000000E+00  0.93827000000E+00 0.  1.
     999902    2    1    2    0    0  0.25864519524E-02  0.63275978638E-03  0.13922163232E-01  0.10297554895E+01  0.10296579293E+01 0.  0.
     999903    2    3    3    0    0  0.12964744458E+00 -0.27638432071E-01  0.90849976358E-02  0.14016729584E+00  0.44631724462E-01 0.  0.
         14    1    1    2    0    0 -0.25864519524E-02 -0.63275978638E-03 -0.13922163232E-01  0.14174510493E-01  0.00000000000E+00 0.  1.
     999901    1    3    3    0    0 -0.12706099263E+00  0.28271191858E-01  0.48371655962E-02  0.88958819366E+00  0.88000000000E+00 0. -1.
        -11    1    4    4    0    0  0.10638628756E+00 -0.37662921106E-02  0.48527065576E-02  0.10656470813E+00  0.51100000000E-03 0. -1.
         11    1    4    4    0    0  0.23261157020E-01 -0.23872139961E-01  0.42322910781E-02  0.33602587713E-01  0.51100000000E-03 0.  1.
</event>
<event>
 8    1  0.2943605E+004  0.1043930E+01  0.7957747E-01            NaN
         13   -1    0    0    0    0  0.00000000000E+00  0.00000000000E+00  0.74505805969E-08  0.10566000000E+00  0.10566000000E+00 0.  1.
     999900   -1    0    0    0    0 -0.00000000000E+00 -0.00000000000E+00 -0.74505805969E-08  0.93827000000E+00  0.93827000000E+00 0. -1.
     999902    2    1    2    0    0  0.14849505345E-01 -0.34019746372E-02  0.57169728179E-04  0.10286956799E+01  0.10285828685E+01 0.  0.
     999903    2    3    3    0    0  0.10374889418E+00 -0.26623127481E-01 -0.78785133729E-01  0.14040606942E+00  0.45101475284E-01 0.  0.
         14    1    1    2    0    0 -0.14849505345E-01  0.34019746372E-02 -0.57169728179E-04  0.15234320097E-01  0.00000000000E+00 0.  1.
     999901    1    3    3    0    0 -0.88899388837E-01  0.23221152843E-01  0.78842303457E-01  0.88828961048E+00  0.88000000000E+00 0.  1.
        -11    1    4    4    0    0  0.28847353497E-01 -0.10827947381E-02 -0.46924327616E-01  0.55095334571E-01  0.51100000000E-03 0.  1.
         11    1    4    4    0    0  0.74901540685E-01 -0.25540332742E-01 -0.31860806113E-01  0.85310734851E-01  0.51100000000E-03 0. -1.
</event>
<event>
 8    1  0.2943605E+004  0.1043930E+01  0.7957747E-01            NaN
         13   -1    0    0    0    0  0.00000000000E+00  0.00000000000E+00  0.74505805969E-08  0.10566000000E+00  0.10566000000E+00 0. -1.
     999900   -1    0    0    0    0 -0.00000000000E+00 -0.00000000000E+00 -0.74505805969E-08  0.93827000000E+00  0.93827000000E+00 0.  1.
     999902    2    1    2    0    0 -0.93894606452E-02 -0.10177609733E-01  0.44369703888E-02  0.10293892842E+01  0.10292865810E+01 0.  0.
     999903    2    3    3    0    0  0.80331484366E-01  0.97025454127E-01 -0.26388758536E-01  0.13782180469E+00  0.49309199362E-01 0.  0.
         14    1    1    2    0    0  0.93894606452E-02  0.10177609733E-01 -0.44369703888E-02  0.14540715846E-01  0.00000000000E+00 0.  1.
     999901    1    3    3    0    0 -0.89720945011E-01 -0.10720306386E+00  0.30825728925E-01  0.89156747946E+00  0.88000000000E+00 0. -1.
        -11    1    4    4    0    0  0.30059229365E-01  0.57812716696E-01 -0.34190238500E-01  0.73587369918E-01  0.51100000000E-03 0. -1.
         11    1    4    4    0    0  0.50272255001E-01  0.39212737432E-01  0.78014799643E-02  0.64234434771E-01  0.51100000000E-03 0.  1.
</event>
<event>
 8    1  0.2943605E+004  0.1043930E+01  0.7957747E-01            NaN
         13   -1    0    0    0    0  0.00000000000E+00  0.00000000000E+00  0.74505805969E-08  0.10566000000E+00  0.10566000000E+00 0. -1.
     999900   -1    0    0    0    0 -0.00000000000E+00 -0.00000000000E+00 -0.74505805969E-08  0.93827000000E+00  0.93827000000E+00 0. -1.
     999902    2    1    2    0    0  0.98120743577E-02  0.98085845709E-02  0.12621070354E-02  0.10299988102E+01  0.10299045932E+01 0.  0.
     999903    2    3    3    0    0 -0.10988446387E+00  0.61517544164E-01  0.39616385906E-01  0.13956513584E+00  0.45276544365E-01 0.  0.
         14    1    1    2    0    0 -0.98120743577E-02 -0.98085845709E-02 -0.12621070354E-02  0.13931189779E-01  0.00000000000E+00 0.  1.
     999901    1    3    3    0    0  0.11969653823E+00 -0.51708959593E-01 -0.38354278870E-01  0.89043367438E+00  0.88000000000E+00 0. -1.
        -11    1    4    4    0    0 -0.12834879723E-01 -0.57706240117E-02  0.11469331592E-01  0.18161523261E-01  0.51100000000E-03 0. -1.
         11    1    4    4    0    0 -0.97049584147E-01  0.67288168175E-01  0.28147054314E-01  0.12140361258E+00  0.51100000000E-03 0.  1.
</event>
<event>
 8    1  0.2943605E+004  0.1043930E+01  0.7957747E-01            NaN
         13   -1    0    0    0    0  0.00000000000E+00  0.00000000000E+00  0.74505805969E-08  0.10566000000E+00  0.10566000000E+00 0. -1.
     999900   -1    0    0    0    0 -0.00000000000E+00 -0.00000000000E+00 -0.74505805969E-08  0.93827000000E+00  0.93827000000E+00 0.  1.
     999902    2    1    2    0    0 -0.76786717684E-02  0.10846112503E-01 -0.15433309090E-02  0.10305515835E+01  0.10304647419E+01 0.  0.
     999903    2    3    3    0    0  0.46103157529E-02  0.13376664702E+00  0.16060219842E-01  0.14174881464E+00  0.43818088987E-01 0.  0.
         14    1    1    2    0    0  0.76786717684E-02 -0.10846112503E-01  0.15433309090E-02  0.13378416455E-01  0.00000000000E+00 0. -1.
     999901    1    3    3    0    0 -0.12288987521E-01 -0.12292053452E+00 -0.17603550751E-01  0.88880276891E+00  0.88000000000E+00 0. -1.
        -11    1    4    4    0    0  0.63153859602E-02  0.70856410314E-02 -0.84358820973E-02  0.12708880219E-01  0.51100000000E-03 0.  1.
         11    1    4    4    0    0 -0.17050702073E-02  0.12668100599E+00  0.24496101939E-01  0.12903993442E+00  0.51100000000E-03 0. -1.
</event>
<event>
 8    1  0.2943605E+004  0.1043930E+01  0.7957747E-01            NaN
         13   -1    0    0    0    0  0.00000000000E+00  0.00000000000E+00  0.74505805969E-08  0.10566000000E+00  0.10566000000E+00 0.  1.
     999900   -1    0    0    0    0 -0.00000000000E+00 -0.00000000000E+00 -0.74505805969E-08  0.93827000000E+00  0.93827000000E+00 0.  1.
     999902    2    1    2    0    0 -0.10269513679E-01  0.25080606800E-02  0.67488367960E-02  0.10313880672E+01  0.10313118079E+01 0.  0.
     999903    2    3    3    0    0 -0.17421809719E-01  0.93561897616E-01  0.95311194803E-01  0.14223945883E+00  0.45721894689E-01 0.  0.
         14    1    1    2    0    0  0.10269513679E-01 -0.25080606800E-02 -0.67488367960E-02  0.12541932773E-01  0.00000000000E+00 0. -1.
     999901    1    3    3    0    0  0.71522960401E-02 -0.91053836936E-01 -0.88562358007E-01  0.88914860840E+00  0.88000000000E+00 0.  1.
        -11    1    4    4    0    0 -0.17837854050E-01  0.38201179403E-01  0.69183510444E-01  0.81019370420E-01  0.51100000000E-03 0.  1.
         11    1    4    4    0    0  0.41604433118E-03  0.55360718213E-01  0.26127684359E-01  0.61220088410E-01  0.51100000000E-03 0. -1.
</event>
<event>
 8    1  0.2943605E+004  0.1043930E+01  0.7957747E-01            NaN
         13   -1    0    0    0    0  0.00000000000E+00  0.00000000000E+00  0.74505805969E-08  0.10566000000E+00  0.10566000000E+00 0.  1.
     999900   -1    0    0    0    0 -0.00000000000E+00 -0.00000000000E+00 -0.74505805969E-08  0.93827000000E+00  0.93827000000E+00 0.  1.
     999902    2    1    2    0    0  0.91919032624E-02 -0.15076077277E-02 -0.10244643371E-01  0.10300838206E+01  0.10299907576E+01 0.  0.
     999903    2    3    3    0    0  0.85076905441E-01  0.69418781343E-02 -0.10401106363E+00  0.14181467841E+00  0.44797680131E-01 0.  0.
         14    1    1    2    0    0 -0.91919032624E-02  0.15076077277E-02  0.10244643371E-01  0.13846179417E-01  0.00000000000E+00 0.  1.
     999901    1    3    3    0    0 -0.75885002178E-01 -0.84494858620E-02  0.93766420255E-01  0.88826914217E+00  0.88000000000E+00 0. -1.
        -11    1    4    4    0    0  0.80585948871E-01 -0.62150677398E-02 -0.78044369745E-01  0.11235616135E+00  0.51100000000E-03 0.  1.
         11    1    4    4    0    0  0.44909565699E-02  0.13156945874E-01 -0.25966693881E-01  0.29458517066E-01  0.51100000000E-03 0. -1.
</event>
<event>
 8    1  0.2943605E+004  0.1043930E+01  0.7957747E-01            NaN
         13   -1    0    0    0    0  0.00000000000E+00  0.00000000000E+00  0.74505805969E-08  0.10566000000E+00  0.10566000000E+00 0.  1.
     999900   -1    0    0    0    0 -0.00000000000E+00 -0.00000000000E+00 -0.74505805969E-08  0.93827000000E+00  0.93827000000E+00 0. -1.
     999902    2    1    2    0    0 -0.74130060935E-02  0.67912414474E-02  0.90768271950E-02  0.10303851703E+01  0.10302961403E+01 0.  0.
     999903    2    3    3    0    0  0.54398994792E-01  0.60275086008E-01  0.10655281995E+00  0.14123793038E+00  0.44747211222E-01 0.  0.
         14    1    1    2    0    0  0.74130060935E-02 -0.67912414474E-02 -0.90768271950E-02  0.13544829702E-01  0.00000000000E+00 0. -1.
     999901    1    3    3    0    0 -0.61812000886E-01 -0.53483844561E-01 -0.97475992755E-01  0.88914723991E+00  0.88000000000E+00 0. -1.
        -11    1    4    4    0    0  0.35887755805E-01  0.25642219111E-01  0.24952801239E-01  0.50678968304E-01  0.51100000000E-03 0.  1.
         11    1    4    4    0    0  0.18511238987E-01  0.34632866897E-01  0.81600018712E-01  0.90558962080E-01  0.51100000000E-03 0. -1.
</event>
<event>
 8    1  0.2943605E+004  0.1043930E+01  0.7957747E-01            NaN
         13   -1    0    0    0    0  0.00000000000E+00  0.00000000000E+00  0.74505805969E-08  0.10566000000E+00  0.10566000000E+00 0.  1.
     999900   -1    0    0    0    0 -0.00000000000E+00 -0.00000000000E+00 -0.74505805969E-08  0.93827000000E+00  0.93827000000E+00 0. -1.
     999902    2    1    2    0    0 -0.11023339320E-01 -0.11026268665E-02  0.77290569010E-02  0.10304219240E+01  0.10303333797E+01 0.  0.
     999903    2    3    3    0    0  0.16163257383E-02  0.67597826965E-01 -0.11275125839E+00  0.13947017457E+00  0.46551096742E-01 0.  0.
         14    1    1    2    0    0  0.11023339320E-01  0.11026268665E-02 -0.77290569010E-02  0.13508075968E-01  0.00000000000E+00 0.  1.
     999901    1    3    3    0    0 -0.12639665058E-01 -0.68700453831E-01  0.12048031529E+00  0.89095174946E+00  0.88000000000E+00 0. -1.
        -11    1    4    4    0    0 -0.15394921938E-01  0.22806198521E-01 -0.16862089117E-01  0.32275648450E-01  0.51100000000E-03 0. -1.
         11    1    4    4    0    0  0.17011247676E-01  0.44791628444E-01 -0.95889169274E-01  0.10719452612E+00  0.51100000000E-03 0.  1.
</event>
<event>
 8    1  0.2943605E+004  0.1043930E+01  0.7957747E-01            NaN
         13   -1    0    0    0    0  0.00000000000E+00  0.00000000000E+00  0.74505805969E-08  0.10566000000E+00  0.10566000000E+00 0.  1.
     999900   -1    0    0    0    0 -0.00000000000E+00 -0.00000000000E+00 -0.74505805969E-08  0.93827000000E+00  0.93827000000E+00 0. -1.
     999902    2    1    2    0    0 -0.11166768451E-01  0.80833989430E-02 -0.95950855722E-03  0.10301112188E+01  0.10300185263E+01 0.  0.
     999903    2    3    3    0    0 -0.94293439571E-01  0.89250598481E-01  0.34006243860E-01  0.14178652506E+00  0.45717305171E-01 0.  0.
         14    1    1    2    0    0  0.11166768451E-01 -0.80833989430E-02  0.95950855722E-03  0.13818781161E-01  0.00000000000E+00 0. -1.
     999901    1    3    3    0    0  0.83126671120E-01 -0.81167199538E-01 -0.34965752417E-01  0.88832469378E+00  0.88000000000E+00 0.  1.
        -11    1    4    4    0    0 -0.47185143137E-01  0.52781513390E-01  0.40977086706E-01  0.81802864525E-01  0.51100000000E-03 0. -1.
         11    1    4    4    0    0 -0.47108296435E-01  0.36469085091E-01 -0.69708428465E-02  0.59983660536E-01  0.51100000000E-03 0.  1.
</event>
<event>
 8    1  0.2943605E+004  0.1043930E+01  0.7957747E-01            NaN
         13   -1    0    0    0    0  0.00000000000E+00  0.00000000000E+00  0.74505805969E-08  0.10566000000E+00  0.10566000000E+00 0.  1.
     999900   -1    0    0    0    0 -0.00000000000E+00 -0.00000000000E+00 -0.74505805969E-08  0.93827000000E+00  0.93827000000E+00 0.  1.
     999902    2    1    2    0    0  0.29875687605E-02 -0.11828629159E-01 -0.60490383592E-02  0.10303126251E+01  0.10302226325E+01 0.  0.
     999903    2    3    3    0    0 -0.76388925304E-01  0.93761443509E-01  0.50897788444E-01  0.13863284379E+00  0.44743762828E-01 0.  0.
         14    1    1    2    0    0 -0.29875687605E-02  0.11828629159E-01  0.60490383592E-02  0.13617374928E-01  0.00000000000E+00 0. -1.
     999901    1    3    3    0    0  0.79376494065E-01 -0.10559007267E+00 -0.56946826803E-01  0.89167978128E+00  0.88000000000E+00 0.  1.
        -11    1    4    4    0    0 -0.39825947588E-01  0.62739259625E-01  0.88192264842E-02  0.74835557567E-01  0.51100000000E-03 0. -1.
         11    1    4    4    0    0 -0.36562977716E-01  0.31022183884E-01  0.42078561960E-01  0.63797286227E-01  0.51100000000E-03 0.  1.
</event>
<event>
 8    1  0.2943605E+004  0.1043930E+01  0.7957747E-01            NaN
         13   -1    0    0    0    0  0.00000000000E+00  0.00000000000E+00  0.74505805969E-08  0.10566000000E+00  0.10566000000E+00 0. -1.
     999900   -1    0    0    0    0 -0.00000000000E+00 -0.00000000000E+00 -0.74505805969E-08  0.93827000000E+00  0.93827000000E+00 0. -1.
     999902    2    1    2    0    0  0.41792386452E-03  0.13421580618E-01  0.19606717451E-02  0.10303595276E+01  0.10302701580E+01 0.  0.
     999903    2    3    3    0    0  0.11935219034E+00  0.31947928742E-01 -0.49810490219E-01  0.14065798299E+00  0.45143856215E-01 0.  0.
         14    1    1    2    0    0 -0.41792386452E-03 -0.13421580618E-01 -0.19606717451E-02  0.13570472369E-01  0.00000000000E+00 0.  1.
     999901    1    3    3    0    0 -0.11893426648E+00 -0.18526348125E-01  0.51771161964E-01  0.88970154464E+00  0.88000000000E+00 0. -1.
        -11    1    4    4    0    0  0.24297745694E-01  0.25762218419E-01 -0.20840331170E-01  0.41093221679E-01  0.51100000000E-03 0.  1.
         11    1    4    4    0    0  0.95054444648E-01  0.61857103232E-02 -0.28970159049E-01  0.99564761316E-01  0.51100000000E-03 0. -1.
</event>
<event>
 8    1  0.2943605E+004  0.1043930E+01  0.7957747E-01            NaN
         13   -1    0    0    0    0  0.00000000000E+00  0.00000000000E+00  0.74505805969E-08  0.10566000000E+00  0.10566000000E+00 0.  1.
     999900   -1    0    0    0    0 -0.00000000000E+00 -0.00000000000E+00 -0.74505805969E-08  0.93827000000E+00  0.93827000000E+00 0. -1.
     999902    2    1    2    0    0 -0.65895749656E-02  0.10670425435E-01  0.44261202190E-02  0.10306307137E+01  0.10305449029E+01 0.  0.
     999903    2    3    3    0    0 -0.95087840368E-01  0.40458202577E-02 -0.93729342775E-01  0.14073727998E+00  0.44313950763E-01 0.  0.
         14    1    1    2    0    0  0.65895749656E-02 -0.10670425435E-01 -0.44261202190E-02  0.13299286349E-01  0.00000000000E+00 0.  1.
     999901    1    3    3    0    0  0.88498265403E-01  0.66246051771E-02  0.98155462994E-01  0.88989343367E+00  0.88000000000E+00 0.  1.
        -11    1    4    4    0    0 -0.45593315049E-01  0.18473360199E-01 -0.26081645960E-01  0.55682392111E-01  0.51100000000E-03 0.  1.
         11    1    4    4    0    0 -0.49494525319E-01 -0.14427539942E-01 -0.67647696814E-01  0.85054887870E-01  0.51100000000E-03 0. -1.
</event>
<event>
 8    1  0.2943605E+004  0.1043930E+01  0.7957747E-01            NaN
         13   -1    0    0    0    0  0.00000000000E+00  0.00000000000E+00  0.74505805969E-08  0.10566000000E+00  0.10566000000E+00 0. -1.
     999900   -1    0    0    0    0 -0.00000000000E+00 -0.00000000000E+00 -0.74505805969E-08  0.93827000000E+00  0.93827000000E+00 0.  1.
     999902    2    1    2    0    0  0.27366030503E-02  0.12349122715E-02  0.14488402321E-01  0.10291337908E+01  0.10290274202E+01 0.  0.
     999903    2    3    3    0    0 -0.87682718478E-02  0.39315071676E-01  0.12720252422E+00  0.14105331362E+00  0.45749291408E-01 0.  0.
         14    1    1    2    0    0 -0.27366030503E-02 -0.12349122715E-02 -0.14488402321E-01  0.14796209190E-01  0.00000000000E+00 0.  1.
     999901    1    3    3    0    0  0.11504874898E-01 -0.38080159404E-01 -0.11271412190E+00  0.88808047719E+00  0.88000000000E+00 0.  1.
        -11    1    4    4    0    0 -0.26309927860E-01  0.30913835209E-01  0.73997858474E-01  0.84402735093E-01  0.51100000000E-03 0. -1.
         11    1    4    4    0    0  0.17541656012E-01  0.84012364666E-02  0.53204665744E-01  0.56650578530E-01  0.51100000000E-03 0.  1.
</event>
<event>
 8    1  0.2943605E+004  0.1043930E+01  0.7957747E-01            NaN
         13   -1    0    0    0    0  0.00000000000E+00  0.00000000000E+00  0.74505805969E-08  0.10566000000E+00  0.10566000000E+00 0. -1.
     999900   -1    0    0    0    0 -0.00000000000E+00 -0.00000000000E+00 -0.74505805969E-08  0.93827000000E+00  0.93827000000E+00 0. -1.
     999902    2    1    2    0    0  0.10023799970E-02 -0.13740589719E-01  0.87279765140E-02  0.10276209183E+01  0.10274914917E+01 0.  0.
     999903    2    3    3    0    0 -0.14771130245E-01  0.12811272141E-01 -0.12720046933E+00  0.13664934335E+00  0.45943102413E-01 0.  0.
         14    1    1    2    0    0 -0.10023799970E-02  0.13740589719E-01 -0.87279765140E-02  0.16309081688E-01  0.00000000000E+00 0.  1.
     999901    1    3    3    0    0  0.15773510242E-01 -0.26551861861E-01  0.13592844584E+00  0.89097157496E+00  0.88000000000E+00 0.  1.
        -11    1    4    4    0    0 -0.20727334279E-01  0.22347202608E-01 -0.49469296849E-01  0.58107592468E-01  0.51100000000E-03 0. -1.
         11    1    4    4    0    0  0.59562040336E-02 -0.95359304666E-02 -0.77731172479E-01  0.78541750886E-01  0.51100000000E-03 0.  1.
</event>
<event>
 7    1  0.2943605E+004  0.1043930E+01  0.7957747E-01            NaN
         13   -1    0    0    0    0  0.00000000000E+00  0.00000000000E+00  0.74505805969E-08  0.10566000000E+00  0.10566000000E+00 0. -1.
     999900   -1    0    0    0    0 -0.00000000000E+00 -0.00000000000E+00 -0.74505805969E-08  0.93827000000E+00  0.93827000000E+00 0. -1.
     999903    2    1    2    0    0 -0.94205928695E-01 -0.15486423412E-01  0.98354324049E-02  0.10602427982E+00  0.45053588859E-01 0.  0.
         14    1    1    2    0    0  0.71566273555E-03 -0.48677396498E-01 -0.13874769562E-01  0.50621243894E-01  0.00000000000E+00 0.  1.
     999901    1    1    2    0    0  0.93490265960E-01  0.64163819910E-01  0.40393371569E-02  0.88728447629E+00  0.88000000000E+00 0. -1.
        -11    1    3    3    0    0 -0.23303982543E-01 -0.35070523980E-02  0.22984873399E-01  0.32923252346E-01  0.51100000000E-03 0.  1.
         11    1    3    3    0    0 -0.70901946153E-01 -0.11979371014E-01 -0.13149440994E-01  0.73101027473E-01  0.51100000000E-03 0. -1.
</event>
<event>
 8    1  0.2943605E+004  0.1043930E+01  0.7957747E-01            NaN
         13   -1    0    0    0    0  0.00000000000E+00  0.00000000000E+00  0.74505805969E-08  0.10566000000E+00  0.10566000000E+00 0.  1.
     999900   -1    0    0    0    0 -0.00000000000E+00 -0.00000000000E+00 -0.74505805969E-08  0.93827000000E+00  0.93827000000E+00 0. -1.
     999902    2    1    2    0    0 -0.37614839174E-02  0.14392656387E-01  0.58673692170E-02  0.10279386479E+01  0.10278142539E+01 0.  0.
     999903    2    3    3    0    0  0.57522757118E-01 -0.72485027594E-01 -0.89561020423E-01  0.13641743803E+00  0.45006601822E-01 0.  0.
         14    1    1    2    0    0  0.37614839174E-02 -0.14392656387E-01 -0.58673692170E-02  0.15991352058E-01  0.00000000000E+00 0.  1.
     999901    1    3    3    0    0 -0.61284241036E-01  0.86877683981E-01  0.95428389640E-01  0.89152120991E+00  0.88000000000E+00 0.  1.
        -11    1    4    4    0    0  0.19294944437E-01 -0.49463213221E-01 -0.69570611329E-01  0.87517057907E-01  0.51100000000E-03 0. -1.
         11    1    4    4    0    0  0.38227812681E-01 -0.23021814373E-01 -0.19990409094E-01  0.48900380123E-01  0.51100000000E-03 0.  1.
</event>
<event>
 8    1  0.2943605E+004  0.1043930E+01  0.7957747E-01            NaN
         13   -1    0    0    0    0  0.00000000000E+00  0.00000000000E+00  0.74505805969E-08  0.10566000000E+00  0.10566000000E+00 0.  1.
     999900   -1    0    0    0    0 -0.00000000000E+00 -0.00000000000E+00 -0.74505805969E-08  0.93827000000E+00  0.93827000000E+00 0.  1.
     999902    2    1    2    0    0  0.74089473796E-02  0.89874131581E-02  0.72347205577E-02  0.10302184254E+01  0.10301271750E+01 0.  0.
     999903    2    3    3    0    0  0.43085757588E-01  0.11585787114E+00 -0.48650532519E-01  0.14127675628E+00  0.48091774144E-01 0.  0.
         14    1    1    2    0    0 -0.74089473796E-02 -0.89874131581E-02 -0.72347205577E-02  0.13711574603E-01  0.00000000000E+00 0.  1.
     999901    1    3    3    0    0 -0.35676810208E-01 -0.10687045798E+00  0.55885253076E-01  0.88894166911E+00  0.88000000000E+00 0. -1.
        -11    1    4    4    0    0  0.26302666832E-01  0.11065818934E+00 -0.48622670958E-01  0.12369919322E+00  0.51100000000E-03 0. -1.
         11    1    4    4    0    0  0.16783090756E-01  0.51996817983E-02 -0.27861560851E-04  0.17577563068E-01  0.51100000000E-03 0.  1.
</event>
<event>
 8    1  0.2943605E+004  0.1043930E+01  0.7957747E-01            NaN
         13   -1    0    0    0    0  0.00000000000E+00  0.00000000000E+00  0.74505805969E-08  0.10566000000E+00  0.10566000000E+00 0.  1.
     999900   -1    0    0    0    0 -0.00000000000E+00 -0.00000000000E+00 -0.74505805969E-08  0.93827000000E+00  0.93827000000E+00 0. -1.
     999902    2    1    2    0    0 -0.10721699766E-01  0.22664812745E-02 -0.73547098710E-02  0.10307321388E+01  0.10306476403E+01 0.  0.
     999903    2    3    3    0    0  0.36650364760E-01  0.12420015284E+00 -0.20238960607E-01  0.14096928461E+00  0.51901796448E-01 0.  0.
         14    1    1    2    0    0  0.10721699766E-01 -0.22664812745E-02  0.73547098710E-02  0.13197861211E-01  0.00000000000E+00 0.  1.
     999901    1    3    3    0    0 -0.47372064526E-01 -0.12193367157E+00  0.12884250736E-01  0.88976285418E+00  0.88000000000E+00 0.  1.
        -11    1    4    4    0    0  0.32455070827E-02  0.13179175020E-01 -0.21021615175E-01  0.25027852405E-01  0.51100000000E-03 0. -1.
         11    1    4    4    0    0  0.33404857677E-01  0.11102097782E+00  0.78265456866E-03  0.11594143221E+00  0.51100000000E-03 0.  1.
</event>
<event>
 8    1  0.2943605E+004  0.1043930E+01  0.7957747E-01            NaN
         13   -1    0    0    0    0  0.00000000000E+00  0.00000000000E+00  0.74505805969E-08  0.10566000000E+00  0.10566000000E+00 0. -1.
     999900   -1    0    0    0    0 -0.00000000000E+00 -0.00000000000E+00 -0.74505805969E-08  0.93827000000E+00  0.93827000000E+00 0. -1.
     999902    2    1    2    0    0 -0.13752389362E-01 -0.40701258213E-02 -0.33400635637E-03  0.10295840703E+01  0.10294841195E+01 0.  0.
     999903    2    3    3    0    0  0.39089411401E-01  0.36604500761E-01  0.11990179497E+00  0.13890829933E+00  0.45290215568E-01 0.  0.
         14    1    1    2    0    0  0.13752389362E-01  0.40701258213E-02  0.33400635637E-03  0.14345929653E-01  0.00000000000E+00 0. -1.
     999901    1    3    3    0    0 -0.52841800763E-01 -0.40674626582E-01 -0.12023580133E+00  0.89067577102E+00  0.88000000000E+00 0.  1.
        -11    1    4    4    0    0  0.40524878382E-01  0.80927924600E-02  0.65007421935E-01  0.77032363882E-01  0.51100000000E-03 0. -1.
         11    1    4    4    0    0 -0.14354669808E-02  0.28511708301E-01  0.54894373035E-01  0.61875935448E-01  0.51100000000E-03 0.  1.
</event>
<event>
 7    1  0.2943605E+004  0.1043930E+01  0.7957747E-01            NaN
         13   -1    0    0    0    0  0.00000000000E+00  0.00000000000E+00  0.74505805969E-08  0.10566000000E+00  0.10566000000E+00 0. -1.
     999900   -1    0    0    0    0 -0.00000000000E+00 -0.00000000000E+00 -0.74505805969E-08  0.93827000000E+00  0.93827000000E+00 0.  1.
     999902    2    1    2    0    0  0.12082564953E-01 -0.70309938985E-02 -0.49682261216E-02  0.10290940126E+01  0.10289870652E+01 0.  0.
         14    1    1    2    0    0 -0.12082564953E-01  0.70309938985E-02  0.49682261216E-02  0.14835987390E-01  0.00000000000E+00 0.  1.
     999901    1    3    3    0    0 -0.27562505930E-01 -0.72762396560E-01 -0.11819183983E+00  0.89130430779E+00  0.88000000000E+00 0. -1.
        -11    1    3    3    0    0  0.26565082672E-01  0.36136680637E-01  0.77852843699E-01  0.89849260975E-01  0.51100000000E-03 0.  1.
         11    1    3    3    0    0  0.13079988211E-01  0.29594722025E-01  0.35370770014E-01  0.47940443841E-01  0.51100000000E-03 0. -1.
</event>
<event>
 8    1  0.2943605E+004  0.1043930E+01  0.7957747E-01            NaN
         13   -1    0    0    0    0  0.00000000000E+00  0.00000000000E+00  0.74505805969E-08  0.10566000000E+00  0.10566000000E+00 0.  1.
     999900   -1    0    0    0    0 -0.00000000000E+00 -0.00000000000E+00 -0.74505805969E-08  0.93827000000E+00  0.93827000000E+00 0.  1.
     999902    2    1    2    0    0 -0.48373399770E-02  0.10040444836E-01 -0.57620188504E-02  0.10313836359E+01  0.10313073224E+01 0.  0.
     999903    2    3    3    0    0 -0.11432830735E+00  0.19711472414E-01 -0.69104970735E-01  0.14228626764E+00  0.44837272135E-01 0.  0.
         14    1    1    2    0    0  0.48373399770E-02 -0.10040444836E-01  0.57620188504E-02  0.12546364086E-01  0.00000000000E+00 0. -1.
     999901    1    3    3    0    0  0.10949096738E+00 -0.96710275786E-02  0.63342951884E-01  0.88909736827E+00  0.88000000000E+00 0. -1.
        -11    1    4    4    0    0 -0.10849994166E+00  0.29820158690E-01 -0.60327245214E-01  0.12767582716E+00  0.51100000000E-03 0. -1.
         11    1    4    4    0    0 -0.58283656965E-02 -0.10108686276E-01 -0.87777255200E-02  0.14610440487E-01  0.51100000000E-03 0.  1.
</event>
<event>
 7    1  0.2943605E+004  0.1043930E+01  0.7957747E-01            NaN
         13   -1    0    0    0    0  0.00000000000E+00  0.00000000000E+00  0.74505805969E-08  0.10566000000E+00  0.10566000000E+00 0. -1.
     999900   -1    0    0    0    0 -0.00000000000E+00 -0.00000000000E+00 -0.74505805969E-08  0.93827000000E+00  0.93827000000E+00 0.  1.
     999902    2    1    2    0    0 -0.52888776715E-02 -0.12215721015E-01 -0.22493114341E-02  0.10304297975E+01  0.10303413570E+01 0.  0.
         14    1    1    2    0    0  0.52888776715E-02  0.12215721015E-01  0.22493114341E-02  0.13500202549E-01  0.00000000000E+00 0.  1.
     999901    1    3    3    0    0  0.49188854948E-01 -0.13123104290E+00  0.32684734597E-01  0.89168908368E+00  0.88000000000E+00 0. -1.
        -11    1    3    3    0    0 -0.10468569016E-01  0.37140020234E-01 -0.23252599585E-01  0.45054595200E-01  0.51100000000E-03 0. -1.
         11    1    3    3    0    0 -0.44009163603E-01  0.81875301651E-01 -0.11681446446E-01  0.93686118575E-01  0.51100000000E-03 0.  1.
</event>
<event>
 8    1  0.2943605E+004  0.1043930E+01  0.7957747E-01            NaN
         13   -1    0    0    0    0  0.00000000000E+00  0.00000000000E+00  0.74505805969E-08  0.10566000000E+00  0.10566000000E+00 0.  1.
     999900   -1    0    0    0    0 -0.00000000000E+00 -0.00000000000E+00 -0.74505805969E-08  0.93827000000E+00  0.93827000000E+00 0. -1.
     999902    2    1    2    0    0 -0.64139299014E-02  0.83094702007E-02  0.91896331214E-02  0.10299788298E+01  0.10298843405E+01 0.  0.
     999903    2    3    3    0    0  0.98020392706E-01 -0.87047046886E-01 -0.79389790755E-02  0.13852340054E+00  0.44051326307E-01 0.  0.
         14    1    1    2    0    0  0.64139299014E-02 -0.83094702007E-02 -0.91896331214E-02  0.13951170155E-01  0.00000000000E+00 0. -1.
     999901    1    3    3    0    0 -0.10443432261E+00  0.95356517086E-01  0.17128612197E-01  0.89145542931E+00  0.88000000000E+00 0.  1.
        -11    1    4    4    0    0  0.73558592598E-01 -0.75599184087E-01 -0.22472729082E-01  0.10784891216E+00  0.51100000000E-03 0. -1.
         11    1    4    4    0    0  0.24461800107E-01 -0.11447862799E-01  0.14533750006E-01  0.30674488380E-01  0.51100000000E-03 0.  1.
</event>
<event>
 8    1  0.2943605E+004  0.1043930E+01  0.7957747E-01            NaN
         13   -1    0    0    0    0  0.00000000000E+00  0.00000000000E+00  0.74505805969E-08  0.10566000000E+00  0.10566000000E+00 0. -1.
     999900   -1    0    0    0    0 -0.00000000000E+00 -0.00000000000E+00 -0.74505805969E-08  0.93827000000E+00  0.93827000000E+00 0. -1.
     999902    2    1    2    0    0 -0.13686933241E-01  0.65882037206E-03 -0.33556450834E-02  0.10298223234E+01  0.10297256873E+01 0.  0.
     999903    2    3    3    0    0  0.66628962717E-01 -0.10225636794E+00  0.47314348835E-01  0.13875014481E+00  0.46012733268E-01 0.  0.
         14    1    1    2    0    0  0.13686933241E-01 -0.65882037206E-03  0.33556450834E-02  0.14107676625E-01  0.00000000000E+00 0. -1.
     999901    1    3    3    0    0 -0.80315895958E-01  0.10291518831E+00 -0.50669993918E-01  0.89107217856E+00  0.88000000000E+00 0. -1.
        -11    1    4    4    0    0  0.30998318769E-01 -0.45532664152E-01 -0.26994682876E-02  0.55151314774E-01  0.51100000000E-03 0. -1.
         11    1    4    4    0    0  0.35630643948E-01 -0.56723703785E-01  0.50013817123E-01  0.83598830036E-01  0.51100000000E-03 0.  1.
</event>
<event>
 8    1  0.2943605E+004  0.1043930E+01  0.7957747E-01            NaN
         13   -1    0    0    0    0  0.00000000000E+00  0.00000000000E+00  0.74505805969E-08  0.10566000000E+00  0.10566000000E+00 0. -1.
     999900   -1    0    0    0    0 -0.00000000000E+00 -0.00000000000E+00 -0.74505805969E-08  0.93827000000E+00  0.93827000000E+00 0. -1.
     999902    2    1    2    0    0  0.88011523850E-02  0.68508108609E-02 -0.77210313561E-02  0.10303650371E+01  0.10302757405E+01 0.  0.
     999903    2    3    3    0    0  0.45045328625E-01  0.87697139799E-01  0.89456346694E-01  0.14059359904E+00  0.45213406945E-01 0.  0.
         14    1    1    2    0    0 -0.88011523850E-02 -0.68508108609E-02  0.77210313561E-02  0.13564962881E-01  0.00000000000E+00 0.  1.
     999901    1    3    3    0    0 -0.36244176240E-01 -0.80846328938E-01 -0.97177378051E-01  0.88977143808E+00  0.88000000000E+00 0. -1.
        -11    1    4    4    0    0  0.31802083094E-01  0.16268871948E-01  0.32202086481E-01  0.48096612961E-01  0.51100000000E-03 0.  1.
         11    1    4    4    0    0  0.13243245532E-01  0.71428267851E-01  0.57254260214E-01  0.92496986081E-01  0.51100000000E-03 0. -1.
</event>
<event>
 8    1  0.2943605E+004  0.1043930E+01  0.7957747E-01            NaN
         13   -1    0    0    0    0  0.00000000000E+00  0.00000000000E+00  0.74505805969E-08  0.10566000000E+00  0.10566000000E+00 0. -1.
     999900   -1    0    0    0    0 -0.00000000000E+00 -0.00000000000E+00 -0.74505805969E-08  0.93827000000E+00  0.93827000000E+00 0.  1.
     999902    2    1    2    0    0 -0.58331913299E-02  0.73822102476E-02  0.93256085760E-02  0.10306827314E+01  0.10305975950E+01 0.  0.
     999903    2    3    3    0    0  0.32852073713E-01 -0.11377745416E+00  0.59920453450E-01  0.14010086976E+00  0.44868977525E-01 0.  0.
         14    1    1    2    0    0  0.58331913299E-02 -0.73822102476E-02 -0.93256085760E-02  0.13247268569E-01  0.00000000000E+00 0.  1.
     999901    1    3    3    0    0 -0.38685265043E-01  0.12115966440E+00 -0.50594844874E-01  0.89058186167E+00  0.88000000000E+00 0.  1.
        -11    1    4    4    0    0  0.20184077320E-01 -0.47385774838E-01  0.50000849647E-01  0.71785477088E-01  0.51100000000E-03 0.  1.
         11    1    4    4    0    0  0.12667996392E-01 -0.66391679318E-01  0.99196038029E-02  0.68315392672E-01  0.51100000000E-03 0. -1.
</event>
<event>
 8    1  0.2943605E+004  0.1043930E+01  0.7957747E-01            NaN
         13   -1    0    0    0    0  0.00000000000E+00  0.00000000000E+00  0.74505805969E-08  0.10566000000E+00  0.10566000000E+00 0.  1.
     999900   -1    0    0    0    0 -0.00000000000E+00 -0.00000000000E+00 -0.74505805969E-08  0.93827000000E+00  0.93827000000E+00 0. -1.
     999902    2    1    2    0    0  0.57107917985E-02  0.19792003221E-02 -0.14199723235E-01  0.10284974851E+01  0.10283816968E+01 0.  0.
     999903    2    3    3    0    0  0.12576927134E+00  0.34841438609E-01  0.19140748056E-01  0.13911255590E+00  0.44205197856E-01 0.  0.
         14    1    1    2    0    0 -0.57107917985E-02 -0.19792003221E-02  0.14199723235E-01  0.15432514923E-01  0.00000000000E+00 0.  1.
     999901    1    3    3    0    0 -0.12005847954E+00 -0.32862238287E-01 -0.33340471291E-01  0.88938492917E+00  0.88000000000E+00 0. -1.
        -11    1    4    4    0    0  0.33563991837E-01  0.28523318175E-01 -0.27398823892E-02  0.44134898938E-01  0.51100000000E-03 0. -1.
         11    1    4    4    0    0  0.92205279499E-01  0.63181204342E-02  0.21880630445E-01  0.94977656967E-01  0.51100000000E-03 0.  1.
</event>
<event>
 8    1  0.2943605E+004  0.1043930E+01  0.7957747E-01            NaN
         13   -1    0    0    0    0  0.00000000000E+00  0.00000000000E+00  0.74505805969E-08  0.10566000000E+00  0.10566000000E+00 0. -1.
     999900   -1    0    0    0    0 -0.00000000000E+00 -0.00000000000E+00 -0.74505805969E-08  0.93827000000E+00  0.93827000000E+00 0.  1.
     999902    2    1    2    0    0 -0.11568248884E-01  0.18437323859E-02  0.82835840217E-02  0.10295828227E+01  0.10294828543E+01 0.  0.
     999903    2    3    3    0    0  0.56130796884E-01 -0.10706745420E+00  0.52275487054E-01  0.13920082892E+00  0.45055944328E-01 0.  0.
         14    1    1    2    0    0  0.11568248884E-01 -0.18437323859E-02 -0.82835840217E-02  0.14347177269E-01  0.00000000000E+00 0.  1.
     999901    1    3    3    0    0 -0.67699045769E-01  0.10891118658E+00 -0.43991903032E-01  0.89038199381E+00  0.88000000000E+00 0.  1.
        -11    1    4    4    0    0  0.35543099283E-01 -0.22722691967E-01  0.16856617600E-01  0.45431699449E-01  0.51100000000E-03 0. -1.
         11    1    4    4    0    0  0.20587697601E-01 -0.84344762231E-01  0.35418869454E-01  0.93769129476E-01  0.51100000000E-03 0.  1.
</event>
<event>
 8    1  0.2943605E+004  0.1043930E+01  0.7957747E-01            NaN
         13   -1    0    0    0    0  0.00000000000E+00  0.00000000000E+00  0.74505805969E-08  0.10566000000E+00  0.10566000000E+00 0. -1.
     999900   -1    0    0    0    0 -0.00000000000E+00 -0.00000000000E+00 -0.74505805969E-08  0.93827000000E+00  0.93827000000E+00 0.  1.
     999902    2    1    2    0    0 -0.80891946189E-02 -0.61261062724E-02  0.61700828675E-02  0.10320542192E+01  0.10319858900E+01 0.  0.
     999903    2    3    3    0    0 -0.13223349950E+00  0.22132122043E-01 -0.18296325354E-01  0.14255495496E+00  0.44851203386E-01 0.  0.
         14    1    1    2    0    0  0.80891946189E-02  0.61261062724E-02 -0.61700828675E-02  0.11875780826E-01  0.00000000000E+00 0.  1.
     999901    1    3    3    0    0  0.12414430489E+00 -0.28258228315E-01  0.24466408222E-01  0.88949926421E+00  0.88000000000E+00 0.  1.
        -11    1    4    4    0    0 -0.40459298156E-01  0.26344810761E-01 -0.15242358905E-01  0.50631951249E-01  0.51100000000E-03 0. -1.
         11    1    4    4    0    0 -0.91774201348E-01 -0.42126887181E-02 -0.30539664495E-02  0.91923003712E-01  0.51100000000E-03 0.  1.
</event>
<event>
 8    1  0.2943605E+004  0.1043930E+01  0.7957747E-01            NaN
         13   -1    0    0    0    0  0.00000000000E+00  0.00000000000E+00  0.74505805969E-08  0.10566000000E+00  0.10566000000E+00 0. -1.
     999900   -1    0    0    0    0 -0.00000000000E+00 -0.00000000000E+00 -0.74505805969E-08  0.93827000000E+00  0.93827000000E+00 0. -1.
     999902    2    1    2    0    0 -0.79577470934E-02  0.20325513393E-02  0.11157432276E-01  0.10300755675E+01  0.10299823928E+01 0.  0.
     999903    2    3    3    0    0  0.12355492355E-01 -0.42045937512E-01  0.12624315064E+00  0.14125597761E+00  0.45775529214E-01 0.  0.
         14    1    1    2    0    0  0.79577470934E-02 -0.20325513393E-02 -0.11157432276E-01  0.13854432458E-01  0.00000000000E+00 0.  1.
     999901    1    3    3    0    0 -0.20313239449E-01  0.44078488851E-01 -0.11508571836E+00  0.88881958993E+00  0.88000000000E+00 0. -1.
        -11    1    4    4    0    0 -0.83042945404E-02 -0.39381357397E-01  0.63876518715E-01  0.75500485974E-01  0.51100000000E-03 0. -1.
         11    1    4    4    0    0  0.20659786896E-01 -0.26645801151E-02  0.62366631923E-01  0.65755491635E-01  0.51100000000E-03 0.  1.
</event>
<event>
 7    1  0.2943605E+004  0.1043930E+01  0.7957747E-01            NaN
         13   -1    0    0    0    0  0.00000000000E+00  0.00000000000E+00  0.74505805969E-08  0.10566000000E+00  0.10566000000E+00 0. -1.
     999900   -1    0    0    0    0 -0.00000000000E+00 -0.00000000000E+00 -0.74505805969E-08  0.93827000000E+00  0.93827000000E+00 0. -1.
     999903    2    1    2    0    0 -0.70678075414E-01 -0.87001189891E-01  0.43490843519E-02  0.12067297077E+00  0.44479815121E-01 0.  0.
         14    1    1    2    0    0 -0.29408258189E-03 -0.13455765688E-01  0.31213333330E-01  0.33991414980E-01  0.00000000000E+00 0. -1.
     999901    1    1    2    0    0  0.70972157996E-01  0.10045695558E+00 -0.35562417682E-01  0.88926561425E+00  0.88000000000E+00 0. -1.
        -11    1    3    3    0    0 -0.45911414232E-01 -0.42762214297E-01 -0.17984081171E-01  0.65269849279E-01  0.51100000000E-03 0. -1.
         11    1    3    3    0    0 -0.24766661182E-01 -0.44238975594E-01  0.22333165523E-01  0.55403121491E-01  0.51100000000E-03 0.  1.
</event>
<event>
 8    1  0.2943605E+004  0.1043930E+01  0.7957747E-01            NaN
         13   -1    0    0    0    0  0.00000000000E+00  0.00000000000E+00  0.74505805969E-08  0.10566000000E+00  0.10566000000E+00 0.  1.
     999900   -1    0    0    0    0 -0.00000000000E+00 -0.00000000000E+00 -0.74505805969E-08  0.93827000000E+00  0.93827000000E+00 0.  1.
     999902    2    1    2    0    0 -0.74466615860E-02 -0.58565011657E-02  0.95100869454E-02  0.10305063966E+01  0.10304189635E+01 0.  0.
     999903    2    3    3    0    0 -0.69367356407E-01 -0.45802961619E-01 -0.10297711188E+00  0.14029110688E+00  0.46557144129E-01 0.  0.
         14    1    1    2    0    0  0.74466615860E-02  0.58565011657E-02 -0.95100869454E-02  0.13423603406E-01  0.00000000000E+00 0. -1.
     999901    1    3    3    0    0  0.61920694821E-01  0.39946460453E-01  0.11248719882E+00  0.89021528972E+00  0.88000000000E+00 0. -1.
        -11    1    4    4    0    0 -0.17116348560E-01 -0.25098903354E-01 -0.66971606975E-01  0.73541699732E-01  0.51100000000E-03 0.  1.
         11    1    4    4    0    0 -0.52251007847E-01 -0.20704058265E-01 -0.36005504904E-01  0.66749407144E-01  0.51100000000E-03 0. -1.
</event>
<event>
 8    1  0.2943605E+004  0.1043930E+01  0.7957747E-01            NaN
         13   -1    0    0    0    0  0.00000000000E+00  0.00000000000E+00  0.74505805969E-08  0.10566000000E+00  0.10566000000E+00 0. -1.
     999900   -1    0    0    0    0 -0.00000000000E+00 -0.00000000000E+00 -0.74505805969E-08  0.93827000000E+00  0.93827000000E+00 0. -1.
     999902    2    1    2    0    0  0.34184322114E-02 -0.41888877116E-02  0.12038257603E-01  0.10307333298E+01  0.10306488466E+01 0.  0.
     999903    2    3    3    0    0  0.13312404232E+00  0.16945790355E-01 -0.17120279998E-01  0.14049715873E+00  0.37910119623E-01 0.  0.
         14    1    1    2    0    0 -0.34184322114E-02  0.41888877116E-02 -0.12038257603E-01  0.13196670230E-01  0.00000000000E+00 0.  1.
     999901    1    3    3    0    0 -0.12970561011E+00 -0.21134678066E-01  0.29158537601E-01  0.89023617104E+00  0.88000000000E+00 0. -1.
        -11    1    4    4    0    0  0.12605854169E+00  0.22562185198E-01 -0.22431036648E-01  0.13001238657E+00  0.51100000000E-03 0.  1.
         11    1    4    4    0    0  0.70655006279E-02 -0.56163948432E-02  0.53107566496E-02  0.10484772165E-01  0.51100000000E-03 0. -1.
</event>
<event>
 8    1  0.2943605E+004  0.1043930E+01  0.7957747E-01            NaN
         13   -1    0    0    0    0  0.00000000000E+00  0.00000000000E+00  0.74505805969E-08  0.10566000000E+00  0.10566000000E+00 0. -1.
     999900   -1    0    0    0    0 -0.00000000000E+00 -0.00000000000E+00 -0.74505805969E-08  0.93827000000E+00  0.93827000000E+00 0. -1.
     999902    2    1    2    0    0 -0.75376778371E-03  0.13822159434E-01  0.66055932119E-02  0.10285920041E+01  0.10284776404E+01 0.  0.
     999903    2    3    3    0    0  0.12110287987E-01 -0.12187465127E+00 -0.40775986079E-01  0.13683860631E+00  0.45409618373E-01 0.  0.
         14    1    1    2    0    0  0.75376778371E-03 -0.13822159434E-01 -0.66055932119E-02  0.15337995924E-01  0.00000000000E+00 0. -1.
     999901    1    3    3    0    0 -0.12864055771E-01  0.13569681070E+00  0.47381579291E-01  0.89175339776E+00  0.88000000000E+00 0.  1.
        -11    1    4    4    0    0 -0.31016352790E-02 -0.43842482590E-01  0.63604219631E-02  0.44412830461E-01  0.51100000000E-03 0. -1.
         11    1    4    4    0    0  0.15211923266E-01 -0.78032168676E-01 -0.47136408042E-01  0.92425775852E-01  0.51100000000E-03 0.  1.
</event>
<event>
 8    1  0.2943605E+004  0.1043930E+01  0.7957747E-01            NaN
         13   -1    0    0    0    0  0.00000000000E+00  0.00000000000E+00  0.74505805969E-08  0.10566000000E+00  0.10566000000E+00 0. -1.
     999900   -1    0    0    0    0 -0.00000000000E+00 -0.00000000000E+00 -0.74505805969E-08  0.93827000000E+00  0.93827000000E+00 0.  1.
     999902    2    1    2    0    0  0.57696720500E-02  0.93575130111E-02  0.89607190159E-02  0.10297473821E+01  0.10296497095E+01 0.  0.
     999903    2    3    3    0    0  0.10795383668E+00 -0.61743742028E-01  0.46924465609E-01  0.14017544120E+00  0.44507620820E-01 0.  0.
         14    1    1    2    0    0 -0.57696720500E-02 -0.93575130111E-02 -0.89607190159E-02  0.14182617904E-01  0.00000000000E+00 0.  1.
     999901    1    3    3    0    0 -0.10218416463E+00  0.71101255039E-01 -0.37963746593E-01  0.88957194089E+00  0.88000000000E+00 0. -1.
        -11    1    4    4    0    0  0.29219832470E-01  0.32816638842E-03  0.22761905469E-01  0.37044186647E-01  0.51100000000E-03 0.  1.
         11    1    4    4    0    0  0.78734004206E-01 -0.62071908416E-01  0.24162560140E-01  0.10313125456E+00  0.51100000000E-03 0. -1.
</event>
<event>
 8    1  0.2943605E+004  0.1043930E+01  0.7957747E-01            NaN
         13   -1    0    0    0    0  0.00000000000E+00  0.00000000000E+00  0.74505805969E-08  0.10566000000E+00  0.10566000000E+00 0.  1.
     999900   -1    0    0    0    0 -0.00000000000E+00 -0.00000000000E+00 -0.74505805969E-08  0.93827000000E+00  0.93827000000E+00 0. -1.
     999902    2    1    2    0    0 -0.43110520523E-02 -0.46756731464E-02 -0.12675024668E-01  0.10297489091E+01  0.10296512577E+01 0.  0.
     999903    2    3    3    0    0 -0.10985963025E+00 -0.28954428306E-01  0.67077290818E-01  0.13952961468E+00  0.45405430857E-01 0.  0.
         14    1    1    2    0    0  0.43110520523E-02  0.46756731464E-02  0.12675024668E-01  0.14181090914E-01  0.00000000000E+00 0.  1.
     999901    1    3    3    0    0  0.10554857820E+00  0.24278755160E-01 -0.79752315487E-01  0.89021929441E+00  0.88000000000E+00 0. -1.
        -11    1    4    4    0    0 -0.61488435414E-01 -0.46995944257E-02  0.12996833957E-01  0.63024540390E-01  0.51100000000E-03 0. -1.
         11    1    4    4    0    0 -0.48371194836E-01 -0.24254833880E-01  0.54080456861E-01  0.76505074287E-01  0.51100000000E-03 0.  1.
</event>
<event>
 8    1  0.2943605E+004  0.1043930E+01  0.7957747E-01            NaN
         13   -1    0    0    0    0  0.00000000000E+00  0.00000000000E+00  0.74505805969E-08  0.10566000000E+00  0.10566000000E+00 0. -1.
     999900   -1    0    0    0    0 -0.00000000000E+00 -0.00000000000E+00 -0.74505805969E-08  0.93827000000E+00  0.93827000000E+00 0. -1.
     999902    2    1    2    0    0  0.38599495134E-02 -0.60180309004E-02  0.87862420227E-02  0.10326024250E+01  0.10325402918E+01 0.  0.
     999903    2    3    3    0    0  0.10288209432E+00  0.54856836426E-01  0.69240728633E-01  0.14290254326E+00  0.45087254683E-01 0.  0.
         14    1    1    2    0    0 -0.38599495134E-02  0.60180309004E-02 -0.87862420227E-02  0.11327574985E-01  0.00000000000E+00 0.  1.
     999901    1    3    3    0    0 -0.99022144810E-01 -0.60874867327E-01 -0.60454486610E-01  0.88969988175E+00  0.88000000000E+00 0. -1.
        -11    1    4    4    0    0  0.89775093234E-01  0.62564002717E-01  0.64234514325E-01  0.12688638915E+00  0.51100000000E-03 0. -1.
         11    1    4    4    0    0  0.13107001089E-01 -0.77071662905E-02  0.50062143083E-02  0.16016154110E-01  0.51100000000E-03 0.  1.
</event>
<event>
 8    1  0.2943605E+004  0.1043930E+01  0.7957747E-01            NaN
         13   -1    0    0    0    0  0.00000000000E+00  0.00000000000E+00  0.74505805969E-08  0.10566000000E+00  0.10566000000E+00 0.  1.
     999900   -1    0    0    0    0 -0.00000000000E+00 -0.00000000000E+00 -0.74505805969E-08  0.93827000000E+00  0.93827000000E+00 0.  1.
     999902    2    1    2    0    0 -0.10395424629E-01 -0.46914678186E-02 -0.59493652454E-02  0.10310664985E+01  0.10309862534E+01 0.  0.
     999903    2    3    3    0    0 -0.98762063341E-01 -0.91529877480E-01 -0.83210040774E-02  0.14238477996E+00  0.45524969290E-01 0.  0.
         14    1    1    2    0    0  0.10395424629E-01  0.46914678186E-02  0.59493652454E-02  0.12863501481E-01  0.00000000000E+00 0.  1.
     999901    1    3    3    0    0  0.88366638712E-01  0.86838409661E-01  0.23716388320E-02  0.88868171856E+00  0.88000000000E+00 0. -1.
        -11    1    4    4    0    0 -0.73987936111E-01 -0.81227840216E-01  0.93213234500E-02  0.11026932895E+00  0.51100000000E-03 0.  1.
         11    1    4    4    0    0 -0.24774127230E-01 -0.10302037264E-01 -0.17642327527E-01  0.32115451006E-01  0.51100000000E-03 0. -1.
</event>
<event>
 8    1  0.2943605E+004  0.1043930E+01  0.7957747E-01            NaN
         13   -1    0    0    0    0  0.00000000000E+00  0.00000000000E+00  0.74505805969E-08  0.10566000000E+00  0.10566000000E+00 0.  1.
     999900   -1    0    0    0    0 -0.00000000000E+00 -0.00000000000E+00 -0.74505805969E-08  0.93827000000E+00  0.93827000000E+00 0.  1.
     999902    2    1    2    0    0 -0.13155557408E-01 -0.24847745863E-03 -0.19878267747E-02  0.10306227882E+01  0.10305368744E+01 0.  0.
     999903    2    3    3    0    0  0.95612546604E-01 -0.18424320177E-01 -0.85878292942E-01  0.13978134771E+00  0.51793139759E-01 0.  0.
         14    1    1    2    0    0  0.13155557408E-01  0.24847745863E-03  0.19878267747E-02  0.13307211843E-01  0.00000000000E+00 0. -1.
     999901    1    3    3    0    0 -0.10876810401E+00  0.18175842718E-01  0.83890466167E-01  0.89084144045E+00  0.88000000000E+00 0. -1.
        -11    1    4    4    0    0  0.48413653248E-01 -0.29887895998E-01 -0.66410412380E-01  0.87451541676E-01  0.51100000000E-03 0.  1.
         11    1    4    4    0    0  0.47198893357E-01  0.11463575821E-01 -0.19467880561E-01  0.52329806031E-01  0.51100000000E-03 0. -1.
</event>
<event>
 8    1  0.2943605E+004  0.1043930E+01  0.7957747E-01            NaN
         13   -1    0    0    0    0  0.00000000000E+00  0.00000000000E+00  0.74505805969E-08  0.10566000000E+00  0.10566000000E+00 0. -1.
     999900   -1    0    0    0    0 -0.00000000000E+00 -0.00000000000E+00 -0.74505805969E-08  0.93827000000E+00  0.93827000000E+00 0.  1.
     999902    2    1    2    0    0 -0.44228400968E-02  0.16084612561E-01  0.40505504939E-02  0.10267636598E+01  0.10266201488E+01 0.  0.
     999903    2    3    3    0    0  0.74524273671E-02 -0.12522086611E-01 -0.12935575122E+00  0.13617025846E+00  0.39963578282E-01 0.  0.
         14    1    1    2    0    0  0.44228400968E-02 -0.16084612561E-01 -0.40505504939E-02  0.17166340177E-01  0.00000000000E+00 0.  1.
     999901    1    3    3    0    0 -0.11875267464E-01  0.28606699172E-01  0.13340630171E+00  0.89059340136E+00  0.88000000000E+00 0. -1.
        -11    1    4    4    0    0  0.18873341620E-02  0.14532256894E-01 -0.38082487231E-01  0.40807909470E-01  0.51100000000E-03 0.  1.
         11    1    4    4    0    0  0.55650932051E-02 -0.27054343505E-01 -0.91273263988E-01  0.95362348990E-01  0.51100000000E-03 0. -1.
</event>
<event>
 8    1  0.2943605E+004  0.1043930E+01  0.7957747E-01            NaN
         13   -1    0    0    0    0  0.00000000000E+00  0.00000000000E+00  0.74505805969E-08  0.10566000000E+00  0.10566000000E+00 0.  1.
     999900   -1    0    0    0    0 -0.00000000000E+00 -0.00000000000E+00 -0.74505805969E-08  0.93827000000E+00  0.93827000000E+00 0.  1.
     999902    2    1    2    0    0 -0.31521154224E-02  0.31320559802E-02  0.13295631313E-01  0.10299114616E+01  0.10298160512E+01 0.  0.
     999903    2    3    3    0    0 -0.89036455292E-01 -0.39673600013E-01  0.91360991425E-01  0.14125931119E+00  0.45889839113E-01 0.  0.
         14    1    1    2    0    0  0.31521154224E-02 -0.31320559802E-02 -0.13295631313E-01  0.14018538380E-01  0.00000000000E+00 0. -1.
     999901    1    3    3    0    0  0.85884339870E-01  0.42805655993E-01 -0.78065360113E-01  0.88865215043E+00  0.88000000000E+00 0.  1.
        -11    1    4    4    0    0 -0.88163242781E-02 -0.22845919416E-01  0.30768827631E-01  0.39327413881E-01  0.51100000000E-03 0.  1.
         11    1    4    4    0    0 -0.80220131014E-01 -0.16827680597E-01  0.60592163794E-01  0.10193189731E+00  0.51100000000E-03 0. -1.
</event>
<event>
 8    1  0.2943605E+004  0.1043930E+01  0.7957747E-01            NaN
         13   -1    0    0    0    0  0.00000000000E+00  0.00000000000E+00  0.74505805969E-08  0.10566000000E+00  0.10566000000E+00 0.  1.
     999900   -1    0    0    0    0 -0.00000000000E+00 -0.00000000000E+00 -0.74505805969E-08  0.93827000000E+00  0.93827000000E+00 0. -1.
     999902    2    1    2    0    0 -0.12091649660E-01  0.72993969794E-02  0.56461992949E-02  0.10287191896E+01  0.10286067286E+01 0.  0.
     999903    2    3    3    0    0 -0.27557624433E-01 -0.10069658276E+00  0.79535307684E-01  0.13890913772E+00  0.45504493514E-01 0.  0.
         14    1    1    2    0    0  0.12091649660E-01 -0.72993969794E-02 -0.56461992949E-02  0.15210810440E-01  0.00000000000E+00 0. -1.
     999901    1    3    3    0    0  0.15465974773E-01  0.10799597974E+00 -0.73889108389E-01  0.88981005184E+00  0.88000000000E+00 0. -1.
        -11    1    4    4    0    0 -0.37235637711E-01 -0.96157877716E-01  0.73410030114E-01  0.12657852821E+00  0.51100000000E-03 0. -1.
         11    1    4    4    0    0  0.96780132780E-02 -0.45387050445E-02  0.61252775694E-02  0.12330609506E-01  0.51100000000E-03 0.  1.
</event>
<event>
 8    1  0.2943605E+004  0.1043930E+01  0.7957747E-01            NaN
         13   -1    0    0    0    0  0.00000000000E+00  0.00000000000E+00  0.74505805969E-08  0.10566000000E+00  0.10566000000E+00 0.  1.
     999900   -1    0    0    0    0 -0.00000000000E+00 -0.00000000000E+00 -0.74505805969E-08  0.93827000000E+00  0.93827000000E+00 0.  1.
     999902    2    1    2    0    0  0.12459488959E-01  0.28604695501E-02  0.47930282248E-02  0.10302773713E+01  0.10301869090E+01 0.  0.
     999903    2    3    3    0    0 -0.32909685036E-01 -0.33986305919E-01  0.12417032201E+00  0.14029591919E+00  0.45017326826E-01 0.  0.
         14    1    1    2    0    0 -0.12459488959E-01 -0.28604695501E-02 -0.47930282248E-02  0.13652628712E-01  0.00000000000E+00 0. -1.
     999901    1    3    3    0    0  0.45369173995E-01  0.36846775469E-01 -0.11937729378E+00  0.88998145210E+00  0.88000000000E+00 0.  1.
        -11    1    4    4    0    0 -0.30628285789E-01  0.58578873998E-03  0.59785651727E-01  0.67179016904E-01  0.51100000000E-03 0.  1.
         11    1    4    4    0    0 -0.22813992473E-02 -0.34572094659E-01  0.64384670279E-01  0.73116902284E-01  0.51100000000E-03 0. -1.
</event>
<event>
 8    1  0.2943605E+004  0.1043930E+01  0.7957747E-01            NaN
         13   -1    0    0    0    0  0.00000000000E+00  0.00000000000E+00  0.74505805969E-08  0.10566000000E+00  0.10566000000E+00 0.  1.
     999900   -1    0    0    0    0 -0.00000000000E+00 -0.00000000000E+00 -0.74505805969E-08  0.93827000000E+00  0.93827000000E+00 0.  1.
     999902    2    1    2    0    0  0.30005178834E-02  0.13712087769E-01 -0.72159751138E-02  0.10281472640E+01  0.10280261192E+01 0.  0.
     999903    2    3    3    0    0  0.83928387697E-01 -0.59610940576E-01 -0.80778064641E-01  0.13835123816E+00  0.44928063341E-01 0.  0.
         14    1    1    2    0    0 -0.30005178834E-02 -0.13712087769E-01  0.72159751138E-02  0.15782735992E-01  0.00000000000E+00 0.  1.
     999901    1    3    3    0    0 -0.80927869814E-01  0.73323028345E-01  0.73562089527E-01  0.88979602585E+00  0.88000000000E+00 0. -1.
        -11    1    4    4    0    0  0.65027252629E-01 -0.42612046114E-01 -0.33473931246E-01  0.84646885664E-01  0.51100000000E-03 0. -1.
         11    1    4    4    0    0  0.18901135068E-01 -0.16998894462E-01 -0.47304133395E-01  0.53704352497E-01  0.51100000000E-03 0.  1.
</event>
<event>
 8    1  0.2943605E+004  0.1043930E+01  0.7957747E-01            NaN
         13   -1    0    0    0    0  0.00000000000E+00  0.00000000000E+00  0.74505805969E-08  0.10566000000E+00  0.10566000000E+00 0.  1.
     999900   -1    0    0    0    0 -0.00000000000E+00 -0.00000000000E+00 -0.74505805969E-08  0.93827000000E+00  0.93827000000E+00 0.  1.
     999902    2    1    2    0    0 -0.28163295097E-02 -0.12292610972E-02 -0.13943811971E-01  0.10296516007E+01  0.10295525951E+01 0.  0.
     999903    2    3    3    0    0  0.32665213320E-01  0.28967189047E-01 -0.12670996655E+00  0.14123335959E+00  0.44557064948E-01 0.  0.
         14    1    1    2    0    0  0.28163295097E-02  0.12292610972E-02  0.13943811971E-01  0.14278399316E-01  0.00000000000E+00 0.  1.
     999901    1    3    3    0    0 -0.35481542830E-01 -0.30196450144E-01  0.11276615458E+00  0.88841824109E+00  0.88000000000E+00 0. -1.
        -11    1    4    4    0    0 -0.54255402739E-02  0.14947254065E-01 -0.68136146125E-01  0.69968938973E-01  0.51100000000E-03 0. -1.
         11    1    4    4    0    0  0.38090753594E-01  0.14019934982E-01 -0.58573820424E-01  0.71264420621E-01  0.51100000000E-03 0.  1.
</event>
<event>
 8    1  0.2943605E+004  0.1043930E+01  0.7957747E-01            NaN
         13   -1    0    0    0    0  0.00000000000E+00  0.00000000000E+00  0.74505805969E-08  0.10566000000E+00  0.10566000000E+00 0. -1.
     999900   -1    0    0    0    0 -0.00000000000E+00 -0.00000000000E+00 -0.74505805969E-08  0.93827000000E+00  0.93827000000E+00 0.  1.
     999902    2    1    2    0    0  0.52880108609E-02 -0.88521990236E-02 -0.78511902521E-02  0.10309698428E+01  0.10308883795E+01 0.  0.
     999903    2    3    3    0    0 -0.12688825612E+00  0.37082749529E-01 -0.65931153181E-02  0.13991307255E+00  0.45347975092E-01 0.  0.
         14    1    1    2    0    0 -0.52880108609E-02  0.88521990236E-02  0.78511902521E-02  0.12960157206E-01  0.00000000000E+00 0. -1.
     999901    1    3    3    0    0  0.13217626698E+00 -0.45934948553E-01 -0.12580749340E-02  0.89105677025E+00  0.88000000000E+00 0.  1.
        -11    1    4    4    0    0 -0.11498518885E-01  0.16164436385E-01  0.86652299877E-02  0.21652996835E-01  0.51100000000E-03 0. -1.
         11    1    4    4    0    0 -0.11538973724E+00  0.20918313145E-01 -0.15258345306E-01  0.11826007571E+00  0.51100000000E-03 0.  1.
</event>
<event>
 8    1  0.2943605E+004  0.1043930E+01  0.7957747E-01            NaN
         13   -1    0    0    0    0  0.00000000000E+00  0.00000000000E+00  0.74505805969E-08  0.10566000000E+00  0.10566000000E+00 0.  1.
     999900   -1    0    0    0    0 -0.00000000000E+00 -0.00000000000E+00 -0.74505805969E-08  0.93827000000E+00  0.93827000000E+00 0.  1.
     999902    2    1    2    0    0 -0.11241440088E-01  0.63052453976E-02 -0.44366148488E-02  0.10302987988E+01  0.10302086222E+01 0.  0.
     999903    2    3    3    0    0  0.82586856120E-01 -0.10101092229E+00 -0.15533072889E-01  0.13875876022E+00  0.44597331294E-01 0.  0.
         14    1    1    2    0    0  0.11241440088E-01 -0.63052453976E-02  0.44366148488E-02  0.13631201198E-01  0.00000000000E+00 0.  1.
     999901    1    3    3    0    0 -0.93828296209E-01  0.10731616769E+00  0.11096458041E-01  0.89154003858E+00  0.88000000000E+00 0. -1.
        -11    1    4    4    0    0  0.47281539020E-01 -0.50133262852E-01  0.13722092005E-01  0.70266954583E-01  0.51100000000E-03 0. -1.
         11    1    4    4    0    0  0.35305317100E-01 -0.50877659436E-01 -0.29255164895E-01  0.68491805636E-01  0.51100000000E-03 0.  1.
</event>
<event>
 8    1  0.2943605E+004  0.1043930E+01  0.7957747E-01            NaN
         13   -1    0    0    0    0  0.00000000000E+00  0.00000000000E+00  0.74505805969E-08  0.10566000000E+00  0.10566000000E+00 0. -1.
     999900   -1    0    0    0    0 -0.00000000000E+00 -0.00000000000E+00 -0.74505805969E-08  0.93827000000E+00  0.93827000000E+00 0. -1.
     999902    2    1    2    0    0 -0.36101689515E-02 -0.79946607188E-02 -0.10624616336E-01  0.10301521049E+01  0.10300599638E+01 0.  0.
     999903    2    3    3    0    0 -0.14482077429E-02 -0.61338510895E-01  0.11674641866E+00  0.13938074203E+00  0.45086081613E-01 0.  0.
         14    1    1    2    0    0  0.36101689515E-02  0.79946607188E-02  0.10624616336E-01  0.13777895055E-01  0.00000000000E+00 0. -1.
     999901    1    3    3    0    0 -0.21619612086E-02  0.53343850177E-01 -0.12737103500E+00  0.89077136291E+00  0.88000000000E+00 0. -1.
        -11    1    4    4    0    0 -0.13641247913E-01 -0.15261435052E-03  0.23756588649E-01  0.27399700016E-01  0.51100000000E-03 0. -1.
         11    1    4    4    0    0  0.12193040170E-01 -0.61185896545E-01  0.92989830011E-01  0.11198104202E+00  0.51100000000E-03 0.  1.
</event>
<event>
 8    1  0.2943605E+004  0.1043930E+01  0.7957747E-01            NaN
         13   -1    0    0    0    0  0.00000000000E+00  0.00000000000E+00  0.74505805969E-08  0.10566000000E+00  0.10566000000E+00 0.  1.
     999900   -1    0    0    0    0 -0.00000000000E+00 -0.00000000000E+00 -0.74505805969E-08  0.93827000000E+00  0.93827000000E+00 0.  1.
     999902    2    1    2    0    0 -0.16221241540E-02 -0.13237645407E-01 -0.77011439394E-03  0.10305711221E+01  0.10304845356E+01 0.  0.
     999903    2    3    3    0    0  0.73792291424E-01 -0.10828253839E+00  0.28874574490E-01  0.14175186413E+00  0.45710387633E-01 0.  0.
         14    1    1    2    0    0  0.16221241540E-02  0.13237645407E-01  0.77011439394E-03  0.13358877905E-01  0.00000000000E+00 0.  1.
     999901    1    3    3    0    0 -0.75414415578E-01  0.95044892982E-01 -0.29644688884E-01  0.88881925797E+00  0.88000000000E+00 0.  1.
        -11    1    4    4    0    0  0.63711649719E-01 -0.79066096995E-01  0.32394668533E-02  0.10159417931E+00  0.51100000000E-03 0.  1.
         11    1    4    4    0    0  0.10080641705E-01 -0.29216441394E-01  0.25635107637E-01  0.40157684812E-01  0.51100000000E-03 0. -1.
</event>
<event>
 8    1  0.2943605E+004  0.1043930E+01  0.7957747E-01            NaN
         13   -1    0    0    0    0  0.00000000000E+00  0.00000000000E+00  0.74505805969E-08  0.10566000000E+00  0.10566000000E+00 0.  1.
     999900   -1    0    0    0    0 -0.00000000000E+00 -0.00000000000E+00 -0.74505805969E-08  0.93827000000E+00  0.93827000000E+00 0.  1.
     999902    2    1    2    0    0 -0.85613113506E-02 -0.65060410006E-02 -0.62211561786E-02  0.10315071418E+01  0.10314323323E+01 0.  0.
     999903    2    3    3    0    0  0.52416256930E-01  0.10810706113E+00 -0.57538645322E-01  0.14050326319E+00  0.44675167651E-01 0.  0.
         14    1    1    2    0    0  0.85613113506E-02  0.65060410006E-02  0.62211561786E-02  0.12422858195E-01  0.00000000000E+00 0. -1.
     999901    1    3    3    0    0 -0.60977568281E-01 -0.11461310213E+00  0.51317489143E-01  0.89100387861E+00  0.88000000000E+00 0.  1.
        -11    1    4    4    0    0  0.23839159158E-01  0.66809996133E-01 -0.55793309976E-01  0.90249851256E-01  0.51100000000E-03 0. -1.
         11    1    4    4    0    0  0.28577097772E-01  0.41297064998E-01 -0.17453353455E-02  0.50253411934E-01  0.51100000000E-03 0.  1.
</event>
<event>
 8    1  0.2943605E+004  0.1043930E+01  0.7957747E-01            NaN
         13   -1    0    0    0    0  0.00000000000E+00  0.00000000000E+00  0.74505805969E-08  0.10566000000E+00  0.10566000000E+00 0. -1.
     999900   -1    0    0    0    0 -0.00000000000E+00 -0.00000000000E+00 -0.74505805969E-08  0.93827000000E+00  0.93827000000E+00 0. -1.
     999902    2    1    2    0    0 -0.12415958185E-01 -0.12273564718E-02 -0.57674646347E-02  0.10301849620E+01  0.10300932627E+01 0.  0.
     999903    2    3    3    0    0 -0.85969504211E-01 -0.61583227709E-01  0.80592807557E-01  0.14085316118E+00  0.46488308145E-01 0.  0.
         14    1    1    2    0    0  0.12415958185E-01  0.12273564718E-02  0.57674646347E-02  0.13745038009E-01  0.00000000000E+00 0. -1.
     999901    1    3    3    0    0  0.73553546026E-01  0.60355871237E-01 -0.86360272192E-01  0.88933180081E+00  0.88000000000E+00 0. -1.
        -11    1    4    4    0    0 -0.58383323314E-01 -0.48127164647E-01  0.29427087032E-01  0.81185288017E-01  0.51100000000E-03 0. -1.
         11    1    4    4    0    0 -0.27586180898E-01 -0.13456063061E-01  0.51165720525E-01  0.59667873160E-01  0.51100000000E-03 0.  1.
</event>
<event>
 8    1  0.2943605E+004  0.1043930E+01  0.7957747E-01            NaN
         13   -1    0    0    0    0  0.00000000000E+00  0.00000000000E+00  0.74505805969E-08  0.10566000000E+00  0.10566000000E+00 0.  1.
     999900   -1    0    0    0    0 -0.00000000000E+00 -0.00000000000E+00 -0.74505805969E-08  0.93827000000E+00  0.93827000000E+00 0.  1.
     999902    2    1    2    0    0  0.72036366852E-02 -0.72303226610E-02  0.79276311754E-02  0.10310064833E+01  0.10309254829E+01 0.  0.
     999903    2    3    3    0    0  0.11256414337E+00  0.71160329396E-01  0.11885694980E-01  0.14125281125E+00  0.45569815525E-01 0.  0.
         14    1    1    2    0    0 -0.72036366852E-02  0.72303226610E-02 -0.79276311754E-02  0.12923516678E-01  0.00000000000E+00 0. -1.
     999901    1    3    3    0    0 -0.10536050669E+00 -0.78390652057E-01 -0.39580638043E-02  0.88975367207E+00  0.88000000000E+00 0. -1.
        -11    1    4    4    0    0  0.56075369630E-01  0.95888317816E-02  0.93456932749E-02  0.57654105473E-01  0.51100000000E-03 0. -1.
         11    1    4    4    0    0  0.56488773744E-01  0.61571497614E-01  0.25400017048E-02  0.83598705775E-01  0.51100000000E-03 0.  1.
</event>
<event>
 8    1  0.2943605E+004  0.1043930E+01  0.7957747E-01            NaN
         13   -1    0    0    0    0  0.00000000000E+00  0.00000000000E+00  0.74505805969E-08  0.10566000000E+00  0.10566000000E+00 0.  1.
     999900   -1    0    0    0    0 -0.00000000000E+00 -0.00000000000E+00 -0.74505805969E-08  0.93827000000E+00  0.93827000000E+00 0. -1.
     999902    2    1    2    0    0 -0.96901493963E-03  0.47812636451E-02 -0.12939315117E-01  0.10301015746E+01  0.10300087518E+01 0.  0.
     999903    2    3    3    0    0  0.84727790395E-01 -0.46297027189E-02 -0.10320052837E+00  0.14129361150E+00  0.45970675258E-01 0.  0.
         14    1    1    2    0    0  0.96901493963E-03 -0.47812636451E-02  0.12939315117E-01  0.13828425351E-01  0.00000000000E+00 0.  1.
     999901    1    3    3    0    0 -0.85696805334E-01  0.94109663640E-02  0.90261213252E-01  0.88880796315E+00  0.88000000000E+00 0.  1.
        -11    1    4    4    0    0  0.86452263185E-01  0.42221178674E-02 -0.98443927017E-01  0.13108504101E+00  0.51100000000E-03 0. -1.
         11    1    4    4    0    0 -0.17244727903E-02 -0.88518205864E-02 -0.47566013518E-02  0.10208570493E-01  0.51100000000E-03 0.  1.
</event>
<event>
 8    1  0.2943605E+004  0.1043930E+01  0.7957747E-01            NaN
         13   -1    0    0    0    0  0.00000000000E+00  0.00000000000E+00  0.74505805969E-08  0.10566000000E+00  0.10566000000E+00 0.  1.
     999900   -1    0    0    0    0 -0.00000000000E+00 -0.00000000000E+00 -0.74505805969E-08  0.93827000000E+00  0.93827000000E+00 0.  1.
     999902    2    1    2    0    0 -0.99717853434E-02 -0.40724430516E-02 -0.91554799377E-02  0.10297933771E+01  0.10296963413E+01 0.  0.
     999903    2    3    3    0    0  0.74993304081E-01  0.96256748797E-01  0.46818236981E-01  0.13826767909E+00  0.45129219134E-01 0.  0.
         14    1    1    2    0    0  0.99717853434E-02  0.40724430516E-02  0.91554799377E-02  0.14136622943E-01  0.00000000000E+00 0.  1.
     999901    1    3    3    0    0 -0.84965089425E-01 -0.10032919185E+00 -0.55973716919E-01  0.89152569797E+00  0.88000000000E+00 0.  1.
        -11    1    4    4    0    0  0.52757866883E-01  0.33925446488E-01  0.32131319791E-01  0.70477026540E-01  0.51100000000E-03 0.  1.
         11    1    4    4    0    0  0.22235437199E-01  0.62331302309E-01  0.14686917190E-01  0.67790652545E-01  0.51100000000E-03 0. -1.
</event>
<event>
 8    1  0.2943605E+004  0.1043930E+01  0.7957747E-01            NaN
         13   -1    0    0    0    0  0.00000000000E+00  0.00000000000E+00  0.74505805969E-08  0.10566000000E+00  0.10566000000E+00 0.  1.
     999900   -1    0    0    0    0 -0.00000000000E+00 -0.00000000000E+00 -0.74505805969E-08  0.93827000000E+00  0.93827000000E+00 0. -1.
     999902    2    1    2    0    0  0.13002644409E-01  0.19774523416E-02  0.46615791704E-02  0.10299761690E+01  0.10298816433E+01 0.  0.
     999903    2    3    3    0    0  0.58709604522E-01 -0.99357983126E-01  0.66844591646E-01  0.14080536216E+00  0.45156661822E-01 0.  0.
         14    1    1    2    0    0 -0.13002644409E-01 -0.19774523416E-02 -0.46615791704E-02  0.13953831006E-01  0.00000000000E+00 0.  1.
     999901    1    3    3    0    0 -0.45706960114E-01  0.10133543547E+00 -0.62183012475E-01  0.88917080683E+00  0.88000000000E+00 0. -1.
        -11    1    4    4    0    0  0.22854678103E-01 -0.79929277294E-01  0.45655070192E-01  0.94845517739E-01  0.51100000000E-03 0. -1.
         11    1    4    4    0    0  0.35854926420E-01 -0.19428705832E-01  0.21189521453E-01  0.45959844422E-01  0.51100000000E-03 0.  1.
</event>
<event>
 8    1  0.2943605E+004  0.1043930E+01  0.7957747E-01            NaN
         13   -1    0    0    0    0  0.00000000000E+00  0.00000000000E+00  0.74505805969E-08  0.10566000000E+00  0.10566000000E+00 0. -1.
     999900   -1    0    0    0    0 -0.00000000000E+00 -0.00000000000E+00 -0.74505805969E-08  0.93827000000E+00  0.93827000000E+00 0.  1.
     999902    2    1    2    0    0  0.60699521748E-02  0.76284533958E-02 -0.65330388699E-02  0.10321946595E+01  0.10321279459E+01 0.  0.
     999903    2    3    3    0    0 -0.55489958647E-01  0.87349806494E-02 -0.12278287062E+00  0.14241667007E+00  0.45292816192E-01 0.  0.
         14    1    1    2    0    0 -0.60699521748E-02 -0.76284533958E-02  0.65330388699E-02  0.11735340536E-01  0.00000000000E+00 0. -1.
     999901    1    3    3    0    0  0.61559910822E-01 -0.11065272537E-02  0.11624983175E+00  0.88977798939E+00  0.88000000000E+00 0. -1.
        -11    1    4    4    0    0 -0.18614362919E-01  0.88543554567E-02 -0.84509438857E-02  0.22283933472E-01  0.51100000000E-03 0.  1.
         11    1    4    4    0    0 -0.36875595728E-01 -0.11937480726E-03 -0.11433192674E+00  0.12013273660E+00  0.51100000000E-03 0. -1.
</event>
<event>
 7    1  0.2943605E+004  0.1043930E+01  0.7957747E-01            NaN
         13   -1    0    0    0    0  0.00000000000E+00  0.00000000000E+00  0.74505805969E-08  0.10566000000E+00  0.10566000000E+00 0. -1.
     999900   -1    0    0    0    0 -0.00000000000E+00 -0.00000000000E+00 -0.74505805969E-08  0.93827000000E+00  0.93827000000E+00 0. -1.
     999903    2    1    2    0    0 -0.14947279337E-01  0.11315974164E+00  0.15257015004E-01  0.12344806334E+00  0.44475831060E-01 0.  0.
         14    1    1    2    0    0 -0.71492789242E-02  0.26657348862E-01  0.84209713066E-02  0.28855488130E-01  0.00000000000E+00 0. -1.
     999901    1    1    2    0    0  0.22096558261E-01 -0.13981709050E+00 -0.23677986310E-01  0.89162644853E+00  0.88000000000E+00 0. -1.
        -11    1    3    3    0    0  0.26798202961E-02  0.39124638605E-01 -0.14382845194E-01  0.41773749409E-01  0.51100000000E-03 0.  1.
         11    1    3    3    0    0 -0.17627099633E-01  0.74035103032E-01  0.29639860198E-01  0.81674313930E-01  0.51100000000E-03 0. -1.
</event>
<event>
 8    1  0.2943605E+004  0.1043930E+01  0.7957747E-01            NaN
         13   -1    0    0    0    0  0.00000000000E+00  0.00000000000E+00  0.74505805969E-08  0.10566000000E+00  0.10566000000E+00 0.  1.
     999900   -1    0    0    0    0 -0.00000000000E+00 -0.00000000000E+00 -0.74505805969E-08  0.93827000000E+00  0.93827000000E+00 0.  1.
     999902    2    1    2    0    0  0.37662939182E-02  0.99225467178E-02  0.89882727384E-02  0.10300220544E+01  0.10299281536E+01 0.  0.
     999903    2    3    3    0    0  0.11761224022E+00  0.54064001023E-01  0.34310314823E-01  0.14123041783E+00  0.44869566087E-01 0.  0.
         14    1    1    2    0    0 -0.37662939182E-02 -0.99225467178E-02 -0.89882727384E-02  0.13907945573E-01  0.00000000000E+00 0. -1.
     999901    1    3    3    0    0 -0.11384594630E+00 -0.44141454306E-01 -0.25322042085E-01  0.88879163660E+00  0.88000000000E+00 0. -1.
        -11    1    4    4    0    0  0.76157146553E-01  0.12316665103E-01  0.10926634356E-01  0.77918314084E-01  0.51100000000E-03 0.  1.
         11    1    4    4    0    0  0.41455093662E-01  0.41747335921E-01  0.23383680467E-01  0.63312103742E-01  0.51100000000E-03 0. -1.
</event>
<event>
 8    1  0.2943605E+004  0.1043930E+01  0.7957747E-01            NaN
         13   -1    0    0    0    0  0.00000000000E+00  0.00000000000E+00  0.74505805969E-08  0.10566000000E+00  0.10566000000E+00 0.  1.
     999900   -1    0    0    0    0 -0.00000000000E+00 -0.00000000000E+00 -0.74505805969E-08  0.93827000000E+00  0.93827000000E+00 0.  1.
     999902    2    1    2    0    0 -0.35077047625E-02 -0.47035646025E-02 -0.11242502901E-01  0.10312484629E+01  0.10311704858E+01 0.  0.
     999903    2    3    3    0    0 -0.84490842733E-01  0.46654395394E-01 -0.94284290259E-01  0.14215237855E+00  0.44748589061E-01 0.  0.
         14    1    1    2    0    0  0.35077047625E-02  0.47035646025E-02  0.11242502901E-01  0.12681537137E-01  0.00000000000E+00 0.  1.
     999901    1    3    3    0    0  0.80983137970E-01 -0.51357959996E-01  0.83041787358E-01  0.88909608431E+00  0.88000000000E+00 0. -1.
        -11    1    4    4    0    0 -0.38594064452E-01  0.32466928504E-01 -0.75005331079E-01  0.90386194016E-01  0.51100000000E-03 0.  1.
         11    1    4    4    0    0 -0.45896778281E-01  0.14187466890E-01 -0.19278959180E-01  0.51766184536E-01  0.51100000000E-03 0. -1.
</event>
<event>
 8    1  0.2943605E+004  0.1043930E+01  0.7957747E-01            NaN
         13   -1    0    0    0    0  0.00000000000E+00  0.00000000000E+00  0.74505805969E-08  0.10566000000E+00  0.10566000000E+00 0.  1.
     999900   -1    0    0    0    0 -0.00000000000E+00 -0.00000000000E+00 -0.74505805969E-08  0.93827000000E+00  0.93827000000E+00 0.  1.
     999902    2    1    2    0    0 -0.10538890024E-01 -0.53398594196E-02 -0.59108508317E-02  0.10307193808E+01  0.10306347178E+01 0.  0.
     999903    2    3    3    0    0 -0.75965277412E-01  0.26790232404E-01 -0.10701113186E+00  0.14193694299E+00  0.46970985934E-01 0.  0.
         14    1    1    2    0    0  0.10538890024E-01  0.53398594196E-02  0.59108508317E-02  0.13210619180E-01  0.00000000000E+00 0.  1.
     999901    1    3    3    0    0  0.65426387388E-01 -0.32130091823E-01  0.10110028103E+00  0.88878243783E+00  0.88000000000E+00 0. -1.
        -11    1    4    4    0    0 -0.29494605573E-01  0.32554811627E-01 -0.68150663162E-01  0.81083423265E-01  0.51100000000E-03 0.  1.
         11    1    4    4    0    0 -0.46470671839E-01 -0.57645792233E-02 -0.38860468698E-01  0.60853519727E-01  0.51100000000E-03 0. -1.
</event>
<event>
 8    1  0.2943605E+004  0.1043930E+01  0.7957747E-01            NaN
         13   -1    0    0    0    0  0.00000000000E+00  0.00000000000E+00  0.74505805969E-08  0.10566000000E+00  0.10566000000E+00 0. -1.
     999900   -1    0    0    0    0 -0.00000000000E+00 -0.00000000000E+00 -0.74505805969E-08  0.93827000000E+00  0.93827000000E+00 0.  1.
     999902    2    1    2    0    0  0.44917374063E-02 -0.45586428664E-02 -0.13076161804E-01  0.10293717399E+01  0.10292687870E+01 0.  0.
     999903    2    3    3    0    0  0.11374889160E+00 -0.64106816733E-01 -0.27082636564E-01  0.14050769400E+00  0.44276953121E-01 0.  0.
         14    1    1    2    0    0 -0.44917374063E-02  0.45586428664E-02  0.13076161804E-01  0.14558260104E-01  0.00000000000E+00 0. -1.
     999901    1    3    3    0    0 -0.10925715419E+00  0.59548173866E-01  0.14006474760E-01  0.88886404590E+00  0.88000000000E+00 0.  1.
        -11    1    4    4    0    0  0.99346114815E-01 -0.38628447698E-01 -0.30915745967E-01  0.11098581878E+00  0.51100000000E-03 0.  1.
         11    1    4    4    0    0  0.14402776786E-01 -0.25478369035E-01  0.38331094024E-02  0.29521875220E-01  0.51100000000E-03 0. -1.
</event>
<event>
 8    1  0.2943605E+004  0.1043930E+01  0.7957747E-01            NaN
         13   -1    0    0    0    0  0.00000000000E+00  0.00000000000E+00  0.74505805969E-08  0.10566000000E+00  0.10566000000E+00 0.  1.
     999900   -1    0    0    0    0 -0.00000000000E+00 -0.00000000000E+00 -0.74505805969E-08  0.93827000000E+00  0.93827000000E+00 0.  1.
     999902    2    1    2    0    0 -0.71085408381E-02 -0.11454555301E-01  0.29956457101E-02  0.10301201454E+01  0.10300275734E+01 0.  0.
     999903    2    3    3    0    0  0.50872797719E-01  0.70084337755E-01  0.99280407073E-01  0.13923228382E+00  0.45046350373E-01 0.  0.
         14    1    1    2    0    0  0.71085408381E-02  0.11454555301E-01 -0.29956457101E-02  0.13809854569E-01  0.00000000000E+00 0.  1.
     999901    1    3    3    0    0 -0.57981338557E-01 -0.81538893055E-01 -0.96284761363E-01  0.89088786161E+00  0.88000000000E+00 0.  1.
        -11    1    4    4    0    0  0.23691041846E-01  0.34537142591E-01  0.80409888173E-01  0.90664717057E-01  0.51100000000E-03 0. -1.
         11    1    4    4    0    0  0.27181755873E-01  0.35547195164E-01  0.18870518900E-01  0.48567566759E-01  0.51100000000E-03 0.  1.
</event>
<event>
 8    1  0.2943605E+004  0.1043930E+01  0.7957747E-01            NaN
         13   -1    0    0    0    0  0.00000000000E+00  0.00000000000E+00  0.74505805969E-08  0.10566000000E+00  0.10566000000E+00 0.  1.
     999900   -1    0    0    0    0 -0.00000000000E+00 -0.00000000000E+00 -0.74505805969E-08  0.93827000000E+00  0.93827000000E+00 0. -1.
     999902    2    1    2    0    0 -0.22106596166E-03 -0.43428054339E-02  0.64594162761E-02  0.10361432877E+01  0.10361140284E+01 0.  0.
     999903    2    3    3    0    0 -0.92041029677E-01  0.43701268619E-01 -0.92229869995E-01  0.14458357913E+00  0.44907799014E-01 0.  0.
         14    1    1    2    0    0  0.22106596166E-03  0.43428054339E-02 -0.64594162761E-02  0.77867122603E-02  0.00000000000E+00 0. -1.
     999901    1    3    3    0    0  0.91819963715E-01 -0.48044074053E-01  0.98689286272E-01  0.89155970861E+00  0.88000000000E+00 0. -1.
        -11    1    4    4    0    0 -0.43806584841E-01  0.31970067001E-01 -0.73897733824E-01  0.91663723712E-01  0.51100000000E-03 0. -1.
         11    1    4    4    0    0 -0.48234444836E-01  0.11731201618E-01 -0.18332136172E-01  0.52919855420E-01  0.51100000000E-03 0.  1.
</event>
<event>
 8    1  0.2943605E+004  0.1043930E+01  0.7957747E-01            NaN
         13   -1    0    0    0    0  0.00000000000E+00  0.00000000000E+00  0.74505805969E-08  0.10566000000E+00  0.10566000000E+00 0. -1.
     999900   -1    0    0    0    0 -0.00000000000E+00 -0.00000000000E+00 -0.74505805969E-08  0.93827000000E+00  0.93827000000E+00 0. -1.
     999902    2    1    2    0    0  0.53372573370E-02 -0.12151900240E-01 -0.49829983687E-02  0.10297530727E+01  0.10296554790E+01 0.  0.
     999903    2    3    3    0    0 -0.98609428307E-01  0.82277775529E-01  0.22392992552E-01  0.13819750964E+00  0.45865606480E-01 0.  0.
         14    1    1    2    0    0 -0.53372573370E-02  0.12151900240E-01  0.49829983687E-02  0.14176927314E-01  0.00000000000E+00 0. -1.
     999901    1    3    3    0    0  0.10394668564E+00 -0.94429675769E-01 -0.27375990921E-01  0.89155556305E+00  0.88000000000E+00 0.  1.
        -11    1    4    4    0    0 -0.53202488358E-01  0.64576168309E-01 -0.20021581804E-02  0.83695018008E-01  0.51100000000E-03 0. -1.
         11    1    4    4    0    0 -0.45406939948E-01  0.17701607220E-01  0.24395150732E-01  0.54502491630E-01  0.51100000000E-03 0.  1.
</event>
<event>
 7    1  0.2943605E+004  0.1043930E+01  0.7957747E-01            NaN
         13   -1    0    0    0    0  0.00000000000E+00  0.00000000000E+00  0.74505805969E-08  0.10566000000E+00  0.10566000000E+00 0.  1.
     999900   -1    0    0    0    0 -0.00000000000E+00 -0.00000000000E+00 -0.74505805969E-08  0.93827000000E+00  0.93827000000E+00 0.  1.
     999903    2    1    2    0    0 -0.85704783660E-01 -0.39998396071E-01 -0.62937156182E-01  0.12219929342E+00  0.45015553456E-01 0.  0.
         14    1    1    2    0    0 -0.13622451576E-01 -0.27858999415E-01  0.69728745097E-02  0.31785468602E-01  0.00000000000E+00 0.  1.
     999901    1    1    2    0    0  0.99327235235E-01  0.67857395486E-01  0.55964281672E-01  0.88994523798E+00  0.88000000000E+00 0. -1.
        -11    1    3    3    0    0 -0.19582346241E-01 -0.24244794643E-01 -0.39457020629E-01  0.50283157712E-01  0.51100000000E-03 0. -1.
         11    1    3    3    0    0 -0.66122437418E-01 -0.15753601428E-01 -0.23480135552E-01  0.71916135704E-01  0.51100000000E-03 0.  1.
</event>
<event>
 8    1  0.2943605E+004  0.1043930E+01  0.7957747E-01            NaN
         13   -1    0    0    0    0  0.00000000000E+00  0.00000000000E+00  0.74505805969E-08  0.10566000000E+00  0.10566000000E+00 0.  1.
     999900   -1    0    0    0    0 -0.00000000000E+00 -0.00000000000E+00 -0.74505805969E-08  0.93827000000E+00  0.93827000000E+00 0.  1.
     999902    2    1    2    0    0 -0.18583818417E-02  0.14520871884E-01  0.21478405322E-02  0.10291339694E+01  0.10290276014E+01 0.  0.
     999903    2    3    3    0    0  0.15231091265E-01 -0.47895249576E-01  0.12070507078E+00  0.13882860650E+00  0.46666120450E-01 0.  0.
         14    1    1    2    0    0  0.18583818417E-02 -0.14520871884E-01 -0.21478405322E-02  0.14796030626E-01  0.00000000000E+00 0. -1.
     999901    1    3    3    0    0 -0.17089473107E-01  0.62416121459E-01 -0.11855723025E+00  0.89030536287E+00  0.88000000000E+00 0.  1.
        -11    1    4    4    0    0  0.29948685286E-01 -0.18466178538E-01  0.54088148053E-01  0.64526834580E-01  0.51100000000E-03 0. -1.
         11    1    4    4    0    0 -0.14717594020E-01 -0.29429071038E-01  0.66616922731E-01  0.74301771924E-01  0.51100000000E-03 0.  1.
</event>
<event>
 8    1  0.2943605E+004  0.1043930E+01  0.7957747E-01            NaN
         13   -1    0    0    0    0  0.00000000000E+00  0.00000000000E+00  0.74505805969E-08  0.10566000000E+00  0.10566000000E+00 0. -1.
     999900   -1    0    0    0    0 -0.00000000000E+00 -0.00000000000E+00 -0.74505805969E-08  0.93827000000E+00  0.93827000000E+00 0. -1.
     999902    2    1    2    0    0 -0.14515828701E-01  0.45676755246E-02  0.61692540252E-02  0.10275095056E+01  0.10273782903E+01 0.  0.
     999903    2    3    3    0    0  0.64915134323E-01  0.48594436419E-01  0.10259068122E+00  0.13759674287E+00  0.42809132929E-01 0.  0.
         14    1    1    2    0    0  0.14515828701E-01 -0.45676755246E-02 -0.61692540252E-02  0.16420494444E-01  0.00000000000E+00 0.  1.
     999901    1    3    3    0    0 -0.79430963023E-01 -0.44026760894E-01 -0.96421427192E-01  0.88991276268E+00  0.88000000000E+00 0. -1.
        -11    1    4    4    0    0  0.20974593348E-01  0.17439252570E-01  0.74766508347E-02  0.28288204698E-01  0.51100000000E-03 0.  1.
         11    1    4    4    0    0  0.43940540974E-01  0.31155183849E-01  0.95114030382E-01  0.10930853818E+00  0.51100000000E-03 0. -1.
</event>
<event>
 8    1  0.2943605E+004  0.1043930E+01  0.7957747E-01            NaN
         13   -1    0    0    0    0  0.00000000000E+00  0.00000000000E+00  0.74505805969E-08  0.10566000000E+00  0.10566000000E+00 0. -1.
     999900   -1    0    0    0    0 -0.00000000000E+00 -0.00000000000E+00 -0.74505805969E-08  0.93827000000E+00  0.93827000000E+00 0. -1.
     999902    2    1    2    0    0 -0.10831176430E-01  0.37501700108E-02  0.79218034862E-02  0.10299968335E+01  0.10299025895E+01 0.  0.
     999903    2    3    3    0    0  0.28536396116E-02 -0.12143459722E+00  0.50377187447E-01  0.14001876650E+00  0.48092507672E-01 0.  0.
         14    1    1    2    0    0  0.10831176430E-01 -0.37501700108E-02 -0.79218034862E-02  0.13933166490E-01  0.00000000000E+00 0.  1.
     999901    1    3    3    0    0 -0.13684816041E-01  0.12518476723E+00 -0.42455383961E-01  0.88997806701E+00  0.88000000000E+00 0.  1.
        -11    1    4    4    0    0 -0.20585733801E-01 -0.83848572624E-01  0.33773626829E-01  0.92710703575E-01  0.51100000000E-03 0.  1.
         11    1    4    4    0    0  0.23439373412E-01 -0.37586024600E-01  0.16603560618E-01  0.47308062922E-01  0.51100000000E-03 0. -1.
</event>
<event>
 8    1  0.2943605E+004  0.1043930E+01  0.7957747E-01            NaN
         13   -1    0    0    0    0  0.00000000000E+00  0.00000000000E+00  0.74505805969E-08  0.10566000000E+00  0.10566000000E+00 0. -1.
     999900   -1    0    0    0    0 -0.00000000000E+00 -0.00000000000E+00 -0.74505805969E-08  0.93827000000E+00  0.93827000000E+00 0.  1.
     999902    2    1    2    0    0  0.99155995210E-02 -0.88057307552E-02 -0.26549188201E-02  0.10304056293E+01  0.10303168699E+01 0.  0.
     999903    2    3    3    0    0  0.11353463042E+00  0.71316417361E-01  0.58046380942E-02  0.14067082261E+00  0.42171587847E-01 0.  0.
         14    1    1    2    0    0 -0.99155995210E-02  0.88057307552E-02  0.26549188201E-02  0.13524370667E-01  0.00000000000E+00 0. -1.
     999901    1    3    3    0    0 -0.10361903090E+00 -0.80122148116E-01 -0.84595569143E-02  0.88973480672E+00  0.88000000000E+00 0. -1.
        -11    1    4    4    0    0  0.92759468067E-01  0.51779005976E-01  0.21094345012E-01  0.10830797241E+00  0.51100000000E-03 0. -1.
         11    1    4    4    0    0  0.20775162354E-01  0.19537411385E-01 -0.15289706918E-01  0.32362850201E-01  0.51100000000E-03 0.  1.
</event>
<event>
 8    1  0.2943605E+004  0.1043930E+01  0.7957747E-01            NaN
         13   -1    0    0    0    0  0.00000000000E+00  0.00000000000E+00  0.74505805969E-08  0.10566000000E+00  0.10566000000E+00 0. -1.
     999900   -1    0    0    0    0 -0.00000000000E+00 -0.00000000000E+00 -0.74505805969E-08  0.93827000000E+00  0.93827000000E+00 0.  1.
     999902    2    1    2    0    0 -0.68869775960E-02 -0.20850957884E-02 -0.11807640519E-01  0.10301025469E+01  0.10300097372E+01 0.  0.
     999903    2    3    3    0    0 -0.20173936576E-01  0.76531685648E-01 -0.10817560970E+00  0.14125839459E+00  0.44585702676E-01 0.  0.
         14    1    1    2    0    0  0.68869775960E-02  0.20850957884E-02  0.11807640519E-01  0.13827453109E-01  0.00000000000E+00 0. -1.
     999901    1    3    3    0    0  0.13286958980E-01 -0.78616781436E-01  0.96367969176E-01  0.88884415230E+00  0.88000000000E+00 0. -1.
        -11    1    4    4    0    0 -0.17478577365E-01  0.73588058315E-01 -0.70595458416E-01  0.10346343733E+00  0.51100000000E-03 0. -1.
         11    1    4    4    0    0 -0.26953592105E-02  0.29436273323E-02 -0.37580151279E-01  0.37794957261E-01  0.51100000000E-03 0.  1.
</event>
<event>
 8    1  0.2943605E+004  0.1043930E+01  0.7957747E-01            NaN
         13   -1    0    0    0    0  0.00000000000E+00  0.00000000000E+00  0.74505805969E-08  0.10566000000E+00  0.10566000000E+00 0. -1.
     999900   -1    0    0    0    0 -0.00000000000E+00 -0.00000000000E+00 -0.74505805969E-08  0.93827000000E+00  0.93827000000E+00 0.  1.
     999902    2    1    2    0    0 -0.17452480815E-02  0.95244078958E-02  0.95437591684E-02  0.10303342810E+01  0.10302445763E+01 0.  0.
     999903    2    3    3    0    0  0.68871371434E-01  0.10627680350E+00 -0.41412361490E-01  0.14075895576E+00  0.45388051035E-01 0.  0.
         14    1    1    2    0    0  0.17452480815E-02 -0.95244078958E-02 -0.95437591684E-02  0.13595719021E-01  0.00000000000E+00 0.  1.
     999901    1    3    3    0    0 -0.70616619515E-01 -0.96752395605E-01  0.50956120658E-01  0.88957532522E+00  0.88000000000E+00 0.  1.
        -11    1    4    4    0    0 -0.14961063379E-03  0.51928006335E-02 -0.14531326259E-01  0.15440470382E-01  0.51100000000E-03 0. -1.
         11    1    4    4    0    0  0.69020982067E-01  0.10108400287E+00 -0.26881035231E-01  0.12531848538E+00  0.51100000000E-03 0.  1.
</event>
<event>
 8    1  0.2943605E+004  0.1043930E+01  0.7957747E-01            NaN
         13   -1    0    0    0    0  0.00000000000E+00  0.00000000000E+00  0.74505805969E-08  0.10566000000E+00  0.10566000000E+00 0.  1.
     999900   -1    0    0    0    0 -0.00000000000E+00 -0.00000000000E+00 -0.74505805969E-08  0.93827000000E+00  0.93827000000E+00 0.  1.
     999902    2    1    2    0    0  0.10676456497E-01  0.86394280429E-02 -0.29817890888E-02  0.10298759078E+01  0.10297800095E+01 0.  0.
     999903    2    3    3    0    0 -0.47583620988E-01  0.12424345526E+00 -0.52903442500E-02  0.14040198626E+00  0.44543157086E-01 0.  0.
         14    1    1    2    0    0 -0.10676456497E-01 -0.86394280429E-02  0.29817890888E-02  0.14054092159E-01  0.00000000000E+00 0.  1.
     999901    1    3    3    0    0  0.58260077485E-01 -0.11560402722E+00  0.23085551612E-02  0.88947392158E+00  0.88000000000E+00 0.  1.
        -11    1    4    4    0    0 -0.11756006458E-01  0.89426285017E-01 -0.35671801281E-03  0.90197852017E-01  0.51100000000E-03 0.  1.
         11    1    4    4    0    0 -0.35827614530E-01  0.34817170245E-01 -0.49336262372E-02  0.50204134248E-01  0.51100000000E-03 0. -1.
</event>
<event>
 7    1  0.2943605E+004  0.1043930E+01  0.7957747E-01            NaN
         13   -1    0    0    0    0  0.00000000000E+00  0.00000000000E+00  0.74505805969E-08  0.10566000000E+00  0.10566000000E+00 0.  1.
     999900   -1    0    0    0    0 -0.00000000000E+00 -0.00000000000E+00 -0.74505805969E-08  0.93827000000E+00  0.93827000000E+00 0. -1.
     999903    2    1    2    0    0 -0.63616996989E-01 -0.62367775588E-01 -0.53755525296E-01  0.11351050832E+00  0.45366477278E-01 0.  0.
         14    1    1    2    0    0 -0.19587925609E-02  0.26238225877E-01 -0.33886979115E-01  0.42902316010E-01  0.00000000000E+00 0. -1.
     999901    1    1    2    0    0  0.65575789550E-01  0.36129549711E-01  0.87642504411E-01  0.88751717567E+00  0.88000000000E+00 0.  1.
        -11    1    3    3    0    0 -0.37053322083E-01 -0.21560638936E-01 -0.27008071320E-02  0.42957715359E-01  0.51100000000E-03 0. -1.
         11    1    3    3    0    0 -0.26563674906E-01 -0.40807136652E-01 -0.51054718164E-01  0.70552792957E-01  0.51100000000E-03 0.  1.
</event>
<event>
 7    1  0.2943605E+004  0.1043930E+01  0.7957747E-01            NaN
         13   -1    0    0    0    0  0.00000000000E+00  0.00000000000E+00  0.74505805969E-08  0.10566000000E+00  0.10566000000E+00 0. -1.
     999900   -1    0    0    0    0 -0.00000000000E+00 -0.00000000000E+00 -0.74505805969E-08  0.93827000000E+00  0.93827000000E+00 0.  1.
     999903    2    1    2    0    0 -0.80888236125E-01 -0.59864187595E-02  0.83708284784E-01  0.12498553028E+00  0.45117201644E-01 0.  0.
         14    1    1    2    0    0  0.19121335717E-02 -0.17440233067E-01  0.22727446995E-01  0.28711580088E-01  0.00000000000E+00 0. -1.
     999901    1    1    2    0    0  0.78976102553E-01  0.23426651826E-01 -0.10643573178E+00  0.89023288964E+00  0.88000000000E+00 0.  1.
        -11    1    3    3    0    0 -0.67494752385E-01 -0.11867486820E-02  0.87248268782E-01  0.11031532758E+00  0.51100000000E-03 0.  1.
         11    1    3    3    0    0 -0.13393483740E-01 -0.47996700775E-02 -0.35399839982E-02  0.14670202700E-01  0.51100000000E-03 0. -1.
</event>
<event>
 8    1  0.2943605E+004  0.1043930E+01  0.7957747E-01            NaN
         13   -1    0    0    0    0  0.00000000000E+00  0.00000000000E+00  0.74505805969E-08  0.10566000000E+00  0.10566000000E+00 0.  1.
     999900   -1    0    0    0    0 -0.00000000000E+00 -0.00000000000E+00 -0.74505805969E-08  0.93827000000E+00  0.93827000000E+00 0.  1.
     999902    2    1    2    0    0  0.12608622344E-01 -0.48470592288E-02 -0.18206704403E-02  0.10302996595E+01  0.10302094943E+01 0.  0.
     999903    2    3    3    0    0  0.82549546371E-01  0.57656762238E-01  0.86710852787E-01  0.14089744952E+00  0.46846445474E-01 0.  0.
         14    1    1    2    0    0 -0.12608622344E-01  0.48470592288E-02  0.18206704403E-02  0.13630340474E-01  0.00000000000E+00 0. -1.
     999901    1    3    3    0    0 -0.69940924027E-01 -0.62503821466E-01 -0.88531523227E-01  0.88940221000E+00  0.88000000000E+00 0.  1.
        -11    1    4    4    0    0  0.71054251564E-01  0.23261740478E-01  0.57130006929E-01  0.94095239242E-01  0.51100000000E-03 0.  1.
         11    1    4    4    0    0  0.11495294807E-01  0.34395021760E-01  0.29580845858E-01  0.46802210282E-01  0.51100000000E-03 0. -1.
</event>
<event>
 8    1  0.2943605E+004  0.1043930E+01  0.7957747E-01            NaN
         13   -1    0    0    0    0  0.00000000000E+00  0.00000000000E+00  0.74505805969E-08  0.10566000000E+00  0.10566000000E+00 0.  1.
     999900   -1    0    0    0    0 -0.00000000000E+00 -0.00000000000E+00 -0.74505805969E-08  0.93827000000E+00  0.93827000000E+00 0. -1.
     999902    2    1    2    0    0 -0.14543559063E-02  0.13476767631E-01  0.38406776827E-02  0.10298413797E+01  0.10297450064E+01 0.  0.
     999903    2    3    3    0    0 -0.10103601033E-01 -0.23768933822E-01 -0.12901861033E+00  0.13904755275E+00  0.44959705797E-01 0.  0.
         14    1    1    2    0    0  0.14543559063E-02 -0.13476767631E-01 -0.38406776827E-02  0.14088620300E-01  0.00000000000E+00 0. -1.
     999901    1    3    3    0    0  0.86492451263E-02  0.37245701453E-01  0.13285928801E+00  0.89079382695E+00  0.88000000000E+00 0.  1.
        -11    1    4    4    0    0 -0.11894741263E-01  0.11443888521E-01 -0.44679746521E-01  0.47633898900E-01  0.51100000000E-03 0. -1.
         11    1    4    4    0    0  0.17911402303E-02 -0.35212822342E-01 -0.84338863811E-01  0.91413653852E-01  0.51100000000E-03 0.  1.
</event>
<event>
 7    1  0.2943605E+004  0.1043930E+01  0.7957747E-01            NaN
         13   -1    0    0    0    0  0.00000000000E+00  0.00000000000E+00  0.74505805969E-08  0.10566000000E+00  0.10566000000E+00 0.  1.
     999900   -1    0    0    0    0 -0.00000000000E+00 -0.00000000000E+00 -0.74505805969E-08  0.93827000000E+00  0.93827000000E+00 0. -1.
     999903    2    1    2    0    0 -0.95969326167E-01  0.14052108537E-01  0.18365359763E-01  0.10859033984E+00  0.45243807835E-01 0.  0.
         14    1    1    2    0    0 -0.23453768811E-01  0.10872899622E-01  0.37072133334E-01  0.45195600312E-01  0.00000000000E+00 0.  1.
     999901    1    1    2    0    0  0.11942309498E+00 -0.24925008159E-01 -0.55437493097E-01  0.89014405985E+00  0.88000000000E+00 0. -1.
        -11    1    3    3    0    0 -0.76893463545E-01  0.20962833348E-01 -0.21526119267E-02  0.79730420650E-01  0.51100000000E-03 0. -1.
         11    1    3    3    0    0 -0.19075862622E-01 -0.69107248115E-02  0.20517971690E-01  0.28859919187E-01  0.51100000000E-03 0.  1.
</event>
<event>
 8    1  0.2943605E+004  0.1043930E+01  0.7957747E-01            NaN
         13   -1    0    0    0    0  0.00000000000E+00  0.00000000000E+00  0.74505805969E-08  0.10566000000E+00  0.10566000000E+00 0.  1.
     999900   -1    0    0    0    0 -0.00000000000E+00 -0.00000000000E+00 -0.74505805969E-08  0.93827000000E+00  0.93827000000E+00 0. -1.
     999902    2    1    2    0    0  0.50746173286E-02  0.43188924700E-02  0.12429372507E-01  0.10298270261E+01  0.10297304549E+01 0.  0.
     999903    2    3    3    0    0 -0.11074431367E+00  0.70935750250E-01  0.12533793745E-01  0.13974172597E+00  0.45546353517E-01 0.  0.
         14    1    1    2    0    0 -0.50746173286E-02 -0.43188924700E-02 -0.12429372507E-01  0.14102973945E-01  0.00000000000E+00 0. -1.
     999901    1    3    3    0    0  0.11581893100E+00 -0.66616857780E-01 -0.10442123802E-03  0.89008530008E+00  0.88000000000E+00 0. -1.
        -11    1    4    4    0    0 -0.81427408862E-02  0.14335126395E-01 -0.11520282713E-01  0.20119098208E-01  0.51100000000E-03 0. -1.
         11    1    4    4    0    0 -0.10260157278E+00  0.56600623855E-01  0.24054076458E-01  0.11962262777E+00  0.51100000000E-03 0.  1.
</event>
<event>
 8    1  0.2943605E+004  0.1043930E+01  0.7957747E-01            NaN
         13   -1    0    0    0    0  0.00000000000E+00  0.00000000000E+00  0.74505805969E-08  0.10566000000E+00  0.10566000000E+00 0.  1.
     999900   -1    0    0    0    0 -0.00000000000E+00 -0.00000000000E+00 -0.74505805969E-08  0.93827000000E+00  0.93827000000E+00 0.  1.
     999902    2    1    2    0    0 -0.11161812286E-01 -0.50262107798E-02 -0.47152042562E-02  0.10308119971E+01  0.10307285246E+01 0.  0.
     999903    2    3    3    0    0  0.12018243281E+00 -0.40614072876E-01  0.36296074305E-01  0.13940875974E+00  0.44989745624E-01 0.  0.
         14    1    1    2    0    0  0.11161812286E-01  0.50262107798E-02  0.47152042562E-02  0.13118002878E-01  0.00000000000E+00 0. -1.
     999901    1    3    3    0    0 -0.13134424509E+00  0.35587862097E-01 -0.41011278561E-01  0.89140323738E+00  0.88000000000E+00 0.  1.
        -11    1    4    4    0    0  0.96136617652E-01 -0.14270908096E-01  0.36267593530E-01  0.10373768618E+00  0.51100000000E-03 0.  1.
         11    1    4    4    0    0  0.24045815154E-01 -0.26343164780E-01  0.28480774096E-04  0.35671073564E-01  0.51100000000E-03 0. -1.
</event>
<event>
 8    1  0.2943605E+004  0.1043930E+01  0.7957747E-01            NaN
         13   -1    0    0    0    0  0.00000000000E+00  0.00000000000E+00  0.74505805969E-08  0.10566000000E+00  0.10566000000E+00 0.  1.
     999900   -1    0    0    0    0 -0.00000000000E+00 -0.00000000000E+00 -0.74505805969E-08  0.93827000000E+00  0.93827000000E+00 0.  1.
     999902    2    1    2    0    0 -0.42027031073E-02  0.60427610312E-02 -0.97463010058E-02  0.10317165624E+01  0.10316442687E+01 0.  0.
     999903    2    3    3    0    0  0.73904133265E-01 -0.45080002041E-01  0.10048025874E+00  0.13994074459E+00  0.44644172078E-01 0.  0.
         14    1    1    2    0    0  0.42027031073E-02 -0.60427610312E-02  0.97463010058E-02  0.12213437583E-01  0.00000000000E+00 0.  1.
     999901    1    3    3    0    0 -0.78106836372E-01  0.51122763073E-01 -0.11022655975E+00  0.89177581783E+00  0.88000000000E+00 0.  1.
        -11    1    4    4    0    0  0.51856509430E-01 -0.12400931043E-01  0.35908543723E-01  0.64285031650E-01  0.51100000000E-03 0.  1.
         11    1    4    4    0    0  0.22047623835E-01 -0.32679070999E-01  0.64571715022E-01  0.75655712937E-01  0.51100000000E-03 0. -1.
</event>
<event>
 8    1  0.2943605E+004  0.1043930E+01  0.7957747E-01            NaN
         13   -1    0    0    0    0  0.00000000000E+00  0.00000000000E+00  0.74505805969E-08  0.10566000000E+00  0.10566000000E+00 0. -1.
     999900   -1    0    0    0    0 -0.00000000000E+00 -0.00000000000E+00 -0.74505805969E-08  0.93827000000E+00  0.93827000000E+00 0. -1.
     999902    2    1    2    0    0  0.23722682686E-02 -0.51937925489E-02  0.12773632777E-01  0.10299382584E+01  0.10298432149E+01 0.  0.
     999903    2    3    3    0    0  0.84511682928E-01  0.23473970431E-01 -0.97490132156E-01  0.13880032190E+00  0.45474736411E-01 0.  0.
         14    1    1    2    0    0 -0.23722682686E-02  0.51937925489E-02 -0.12773632777E-01  0.13991741568E-01  0.00000000000E+00 0.  1.
     999901    1    3    3    0    0 -0.82139414659E-01 -0.28667762980E-01  0.11026376493E+00  0.89113793654E+00  0.88000000000E+00 0.  1.
        -11    1    4    4    0    0  0.16020601462E-01  0.25641360137E-01 -0.31501127299E-01  0.43666018401E-01  0.51100000000E-03 0. -1.
         11    1    4    4    0    0  0.68491081466E-01 -0.21673897066E-02 -0.65989004857E-01  0.95134303496E-01  0.51100000000E-03 0.  1.
</event>
<event>
 8    1  0.2943605E+004  0.1043930E+01  0.7957747E-01            NaN
         13   -1    0    0    0    0  0.00000000000E+00  0.00000000000E+00  0.74505805969E-08  0.10566000000E+00  0.10566000000E+00 0. -1.
     999900   -1    0    0    0    0 -0.00000000000E+00 -0.00000000000E+00 -0.74505805969E-08  0.93827000000E+00  0.93827000000E+00 0. -1.
     999902    2    1    2    0    0  0.95231640432E-02  0.85796236897E-02 -0.30789277910E-02  0.10307474209E+01  0.10306631192E+01 0.  0.
     999903    2    3    3    0    0  0.41746815766E-01 -0.12374718288E+00 -0.23013659737E-01  0.14004761679E+00  0.45028263755E-01 0.  0.
         14    1    1    2    0    0 -0.95231640432E-02 -0.85796236897E-02  0.30789277910E-02  0.13182579125E-01  0.00000000000E+00 0.  1.
     999901    1    3    3    0    0 -0.32223651723E-01  0.13232680657E+00  0.19934731946E-01  0.89069980409E+00  0.88000000000E+00 0.  1.
        -11    1    4    4    0    0  0.10261708717E-01 -0.32352110290E-01  0.13752222026E-01  0.36624396755E-01  0.51100000000E-03 0.  1.
         11    1    4    4    0    0  0.31485107049E-01 -0.91395072585E-01 -0.36765881763E-01  0.10342322003E+00  0.51100000000E-03 0. -1.
</event>
<event>
 8    1  0.2943605E+004  0.1043930E+01  0.7957747E-01            NaN
         13   -1    0    0    0    0  0.00000000000E+00  0.00000000000E+00  0.74505805969E-08  0.10566000000E+00  0.10566000000E+00 0. -1.
     999900   -1    0    0    0    0 -0.00000000000E+00 -0.00000000000E+00 -0.74505805969E-08  0.93827000000E+00  0.93827000000E+00 0.  1.
     999902    2    1    2    0    0 -0.92536759920E-02  0.10412760129E-01  0.54068196896E-02  0.10289871157E+01  0.10288786102E+01 0.  0.
     999903    2    3    3    0    0 -0.80701802206E-01 -0.83987223474E-01  0.60975433495E-01  0.13932197502E+00  0.46108292624E-01 0.  0.
         14    1    1    2    0    0  0.92536759920E-02 -0.10412760129E-01 -0.54068196896E-02  0.14942884328E-01  0.00000000000E+00 0.  1.
     999901    1    3    3    0    0  0.71448126214E-01  0.94399983603E-01 -0.55568613806E-01  0.88966514065E+00  0.88000000000E+00 0. -1.
        -11    1    4    4    0    0 -0.23912702834E-01 -0.10826004030E-01  0.33804375090E-01  0.42802063225E-01  0.51100000000E-03 0.  1.
         11    1    4    4    0    0 -0.56789099371E-01 -0.73161219444E-01  0.27171058406E-01  0.96519911800E-01  0.51100000000E-03 0. -1.
</event>
<event>
 8    1  0.2943605E+004  0.1043930E+01  0.7957747E-01            NaN
         13   -1    0    0    0    0  0.00000000000E+00  0.00000000000E+00  0.74505805969E-08  0.10566000000E+00  0.10566000000E+00 0. -1.
     999900   -1    0    0    0    0 -0.00000000000E+00 -0.00000000000E+00 -0.74505805969E-08  0.93827000000E+00  0.93827000000E+00 0. -1.
     999902    2    1    2    0    0 -0.14302969184E-02 -0.65797893042E-02  0.12868939704E-01  0.10294059170E+01  0.10293034504E+01 0.  0.
     999903    2    3    3    0    0  0.89344454257E-01 -0.94308911216E-01 -0.24709647202E-01  0.13960335216E+00  0.44742899193E-01 0.  0.
         14    1    1    2    0    0  0.14302969184E-02  0.65797893042E-02 -0.12868939704E-01  0.14524082954E-01  0.00000000000E+00 0.  1.
     999901    1    3    3    0    0 -0.90774751176E-01  0.87729121912E-01  0.37578586906E-01  0.88980256489E+00  0.88000000000E+00 0.  1.
        -11    1    4    4    0    0  0.60296639900E-01 -0.37827915606E-01 -0.26784412837E-01  0.76054597983E-01  0.51100000000E-03 0. -1.
         11    1    4    4    0    0  0.29047814357E-01 -0.56480995610E-01  0.20747656352E-02  0.63548754177E-01  0.51100000000E-03 0.  1.
</event>
<event>
 8    1  0.2943605E+004  0.1043930E+01  0.7957747E-01            NaN
         13   -1    0    0    0    0  0.00000000000E+00  0.00000000000E+00  0.74505805969E-08  0.10566000000E+00  0.10566000000E+00 0.  1.
     999900   -1    0    0    0    0 -0.00000000000E+00 -0.00000000000E+00 -0.74505805969E-08  0.93827000000E+00  0.93827000000E+00 0. -1.
     999902    2    1    2    0    0  0.18075728170E-01  0.20134672652E-02  0.59581467069E-02  0.10247914130E+01  0.10246126852E+01 0.  0.
     999903    2    3    3    0    0  0.81469315025E-01 -0.96587005426E-01  0.25621095242E-01  0.13680074212E+00  0.45735146386E-01 0.  0.
         14    1    1    2    0    0 -0.18075728170E-01 -0.20134672652E-02 -0.59581467069E-02  0.19138586977E-01  0.00000000000E+00 0. -1.
     999901    1    3    3    0    0 -0.63393586855E-01  0.98600472691E-01 -0.19662948535E-01  0.88799067090E+00  0.88000000000E+00 0. -1.
        -11    1    4    4    0    0  0.14896182606E-01 -0.51711931481E-01  0.14587176145E-01  0.55759007726E-01  0.51100000000E-03 0.  1.
         11    1    4    4    0    0  0.66573132419E-01 -0.44875073945E-01  0.11033919097E-01  0.81041734392E-01  0.51100000000E-03 0. -1.
</event>
<event>
 8    1  0.2943605E+004  0.1043930E+01  0.7957747E-01            NaN
         13   -1    0    0    0    0  0.00000000000E+00  0.00000000000E+00  0.74505805969E-08  0.10566000000E+00  0.10566000000E+00 0.  1.
     999900   -1    0    0    0    0 -0.00000000000E+00 -0.00000000000E+00 -0.74505805969E-08  0.93827000000E+00  0.93827000000E+00 0.  1.
     999902    2    1    2    0    0 -0.17782111535E-02 -0.11020910044E-01  0.77152408964E-02  0.10303599066E+01  0.10302705420E+01 0.  0.
     999903    2    3    3    0    0 -0.13110399974E+00 -0.15486764619E-01 -0.18755145516E-01  0.14050273557E+00  0.44285038039E-01 0.  0.
         14    1    1    2    0    0  0.17782111535E-02  0.11020910044E-01 -0.77152408964E-02  0.13570093412E-01  0.00000000000E+00 0. -1.
     999901    1    3    3    0    0  0.12932578859E+00  0.44658545742E-02  0.26470386412E-01  0.88985717102E+00  0.88000000000E+00 0. -1.
        -11    1    4    4    0    0 -0.91025301656E-01 -0.43480330092E-02 -0.32403776167E-01  0.96720094931E-01  0.51100000000E-03 0. -1.
         11    1    4    4    0    0 -0.40078698084E-01 -0.11138731609E-01  0.13648630651E-01  0.43782640642E-01  0.51100000000E-03 0.  1.
</event>
<event>
 8    1  0.2943605E+004  0.1043930E+01  0.7957747E-01            NaN
         13   -1    0    0    0    0  0.00000000000E+00  0.00000000000E+00  0.74505805969E-08  0.10566000000E+00  0.10566000000E+00 0.  1.
     999900   -1    0    0    0    0 -0.00000000000E+00 -0.00000000000E+00 -0.74505805969E-08  0.93827000000E+00  0.93827000000E+00 0.  1.
     999902    2    1    2    0    0  0.14171472190E-01 -0.62731856324E-02  0.55205681315E-02  0.10274782477E+01  0.10273465283E+01 0.  0.
     999903    2    3    3    0    0 -0.46378418094E-01  0.83610181687E-01  0.87099560415E-01  0.13708482850E+00  0.45434531286E-01 0.  0.
         14    1    1    2    0    0 -0.14171472190E-01  0.62731856324E-02 -0.55205681315E-02  0.16451752323E-01  0.00000000000E+00 0. -1.
     999901    1    3    3    0    0  0.60549890284E-01 -0.89883367320E-01 -0.81578992284E-01  0.89039341918E+00  0.88000000000E+00 0.  1.
        -11    1    4    4    0    0 -0.37494861530E-01  0.45086834994E-01  0.25632562830E-01  0.63999818197E-01  0.51100000000E-03 0.  1.
         11    1    4    4    0    0 -0.88835565635E-02  0.38523346693E-01  0.61466997585E-01  0.73085010302E-01  0.51100000000E-03 0. -1.
</event>
<event>
 8    1  0.2943605E+004  0.1043930E+01  0.7957747E-01            NaN
         13   -1    0    0    0    0  0.00000000000E+00  0.00000000000E+00  0.74505805969E-08  0.10566000000E+00  0.10566000000E+00 0. -1.
     999900   -1    0    0    0    0 -0.00000000000E+00 -0.00000000000E+00 -0.74505805969E-08  0.93827000000E+00  0.93827000000E+00 0.  1.
     999902    2    1    2    0    0  0.19457113902E-02  0.22508437904E-04  0.13645846187E-01  0.10301461175E+01  0.10300538956E+01 0.  0.
     999903    2    3    3    0    0  0.10683078405E+00  0.43473195359E-01  0.69537325494E-01  0.14109454522E+00  0.42065376712E-01 0.  0.
         14    1    1    2    0    0 -0.19457113902E-02 -0.22508437904E-04 -0.13645846187E-01  0.13783882530E-01  0.00000000000E+00 0.  1.
     999901    1    3    3    0    0 -0.10488507266E+00 -0.43450686921E-01 -0.55891479307E-01  0.88905157225E+00  0.88000000000E+00 0.  1.
        -11    1    4    4    0    0  0.15992260623E-01  0.17278398752E-01  0.31167406118E-01  0.39063586476E-01  0.51100000000E-03 0. -1.
         11    1    4    4    0    0  0.90838523430E-01  0.26194796607E-01  0.38369919376E-01  0.10203095874E+00  0.51100000000E-03 0.  1.
</event>
<event>
 8    1  0.2943605E+004  0.1043930E+01  0.7957747E-01            NaN
         13   -1    0    0    0    0  0.00000000000E+00  0.00000000000E+00  0.74505805969E-08  0.10566000000E+00  0.10566000000E+00 0. -1.
     999900   -1    0    0    0    0 -0.00000000000E+00 -0.00000000000E+00 -0.74505805969E-08  0.93827000000E+00  0.93827000000E+00 0.  1.
     999902    2    1    2    0    0 -0.12022452279E-01 -0.56192716371E-02  0.44512750229E-02  0.10299325209E+01  0.10298373989E+01 0.  0.
     999903    2    3    3    0    0  0.20345731249E-01  0.23187160410E-01 -0.12798760699E+00  0.13896811794E+00  0.44494011643E-01 0.  0.
         14    1    1    2    0    0  0.12022452279E-01  0.56192716371E-02 -0.44512750229E-02  0.13997479125E-01  0.00000000000E+00 0.  1.
     999901    1    3    3    0    0 -0.32368183528E-01 -0.28806432047E-01  0.13243888201E+00  0.89096440294E+00  0.88000000000E+00 0. -1.
        -11    1    4    4    0    0  0.22986072519E-01  0.15677580116E-02 -0.26278673613E-01  0.34952070080E-01  0.51100000000E-03 0. -1.
         11    1    4    4    0    0 -0.26403412702E-02  0.21619402398E-01 -0.10170893338E+00  0.10401604786E+00  0.51100000000E-03 0.  1.
</event>
<event>
 8    1  0.2943605E+004  0.1043930E+01  0.7957747E-01            NaN
         13   -1    0    0    0    0  0.00000000000E+00  0.00000000000E+00  0.74505805969E-08  0.10566000000E+00  0.10566000000E+00 0.  1.
     999900   -1    0    0    0    0 -0.00000000000E+00 -0.00000000000E+00 -0.74505805969E-08  0.93827000000E+00  0.93827000000E+00 0.  1.
     999902    2    1    2    0    0 -0.96885256527E-02  0.10806531322E-01 -0.86224670927E-03  0.10293906700E+01  0.10292879866E+01 0.  0.
     999903    2    3    3    0    0 -0.20757515751E-01 -0.18535324936E-01 -0.12911066610E+00  0.13954173663E+00  0.45032204374E-01 0.  0.
         14    1    1    2    0    0  0.96885256527E-02 -0.10806531322E-01  0.86224670927E-03  0.14539330037E-01  0.00000000000E+00 0.  1.
     999901    1    3    3    0    0  0.11068990099E-01  0.29341856257E-01  0.12824841939E+00  0.88984893333E+00  0.88000000000E+00 0. -1.
        -11    1    4    4    0    0 -0.31945480060E-01 -0.89872782237E-03 -0.74221158325E-01  0.80810660634E-01  0.51100000000E-03 0. -1.
         11    1    4    4    0    0  0.11187964309E-01 -0.17636597113E-01 -0.54889507777E-01  0.58731076000E-01  0.51100000000E-03 0.  1.
</event>
<event>
 8    1  0.2943605E+004  0.1043930E+01  0.7957747E-01            NaN
         13   -1    0    0    0    0  0.00000000000E+00  0.00000000000E+00  0.74505805969E-08  0.10566000000E+00  0.10566000000E+00 0.  1.
     999900   -1    0    0    0    0 -0.00000000000E+00 -0.00000000000E+00 -0.74505805969E-08  0.93827000000E+00  0.93827000000E+00 0. -1.
     999902    2    1    2    0    0  0.62585180159E-02  0.23366010233E-02 -0.12674828353E-01  0.10296024033E+01  0.10295027095E+01 0.  0.
     999903    2    3    3    0    0  0.10391213282E+00  0.28951885997E-01 -0.82006069079E-01  0.14109161398E+00  0.39317999933E-01 0.  0.
         14    1    1    2    0    0 -0.62585180159E-02 -0.23366010233E-02  0.12674828353E-01  0.14327596654E-01  0.00000000000E+00 0.  1.
     999901    1    3    3    0    0 -0.97653614809E-01 -0.26615284974E-01  0.69331240726E-01  0.88851078937E+00  0.88000000000E+00 0.  1.
        -11    1    4    4    0    0  0.19815250330E-01  0.22177953755E-01 -0.14788993508E-01  0.33218687939E-01  0.51100000000E-03 0.  1.
         11    1    4    4    0    0  0.84096882495E-01  0.67739322420E-02 -0.67217075570E-01  0.10787292604E+00  0.51100000000E-03 0. -1.
</event>
<event>
 8    1  0.2943605E+004  0.1043930E+01  0.7957747E-01            NaN
         13   -1    0    0    0    0  0.00000000000E+00  0.00000000000E+00  0.74505805969E-08  0.10566000000E+00  0.10566000000E+00 0.  1.
     999900   -1    0    0    0    0 -0.00000000000E+00 -0.00000000000E+00 -0.74505805969E-08  0.93827000000E+00  0.93827000000E+00 0. -1.
     999902    2    1    2    0    0 -0.34836313266E-02  0.51392538050E-02 -0.12325422964E-01  0.10301291425E+01  0.10300366918E+01 0.  0.
     999903    2    3    3    0    0 -0.13055463111E+00  0.41248700337E-01 -0.44161115695E-02  0.14023393050E+00  0.30001437249E-01 0.  0.
         14    1    1    2    0    0  0.34836313266E-02 -0.51392538050E-02  0.12325422964E-01  0.13800857515E-01  0.00000000000E+00 0.  1.
     999901    1    3    3    0    0  0.12707099978E+00 -0.36109446532E-01 -0.79093113949E-02  0.88989521199E+00  0.88000000000E+00 0.  1.
        -11    1    4    4    0    0 -0.15856351922E-01  0.10046452586E-01  0.86037449220E-02  0.20655281492E-01  0.51100000000E-03 0.  1.
         11    1    4    4    0    0 -0.11469827919E+00  0.31202247751E-01 -0.13019856491E-01  0.11957864900E+00  0.51100000000E-03 0. -1.
</event>
<event>
 8    1  0.2943605E+004  0.1043930E+01  0.7957747E-01            NaN
         13   -1    0    0    0    0  0.00000000000E+00  0.00000000000E+00  0.74505805969E-08  0.10566000000E+00  0.10566000000E+00 0.  1.
     999900   -1    0    0    0    0 -0.00000000000E+00 -0.00000000000E+00 -0.74505805969E-08  0.93827000000E+00  0.93827000000E+00 0. -1.
     999902    2    1    2    0    0  0.10345047223E-01  0.39291453282E-02  0.40575265085E-02  0.10321434947E+01  0.10320761949E+01 0.  0.
     999903    2    3    3    0    0  0.92742323490E-02  0.79056806849E-01 -0.10932354367E+00  0.14169384470E+00  0.42302698861E-01 0.  0.
         14    1    1    2    0    0 -0.10345047223E-01 -0.39291453282E-02 -0.40575265085E-02  0.11786505268E-01  0.00000000000E+00 0. -1.
     999901    1    3    3    0    0  0.10708148740E-02 -0.75127661521E-01  0.11338107018E+00  0.89044965003E+00  0.88000000000E+00 0.  1.
        -11    1    4    4    0    0 -0.14228993171E-01  0.26941843744E-01 -0.23103477574E-01  0.38240802659E-01  0.51100000000E-03 0. -1.
         11    1    4    4    0    0  0.23503225520E-01  0.52114963105E-01 -0.86220066093E-01  0.10345304204E+00  0.51100000000E-03 0.  1.
</event>
<event>
 8    1  0.2943605E+004  0.1043930E+01  0.7957747E-01            NaN
         13   -1    0    0    0    0  0.00000000000E+00  0.00000000000E+00  0.74505805969E-08  0.10566000000E+00  0.10566000000E+00 0. -1.
     999900   -1    0    0    0    0 -0.00000000000E+00 -0.00000000000E+00 -0.74505805969E-08  0.93827000000E+00  0.93827000000E+00 0.  1.
     999902    2    1    2    0    0 -0.47680564603E-02  0.98920391972E-02 -0.69292162980E-02  0.10309453614E+01  0.10308635881E+01 0.  0.
     999903    2    3    3    0    0  0.10829263813E-01 -0.11736928656E+00  0.58984027111E-01  0.13921486560E+00  0.44820095560E-01 0.  0.
         14    1    1    2    0    0  0.47680564603E-02 -0.98920391972E-02  0.69292162980E-02  0.12984638632E-01  0.00000000000E+00 0. -1.
     999901    1    3    3    0    0 -0.15597320273E-01  0.12726132576E+00 -0.65913243409E-01  0.89173049577E+00  0.88000000000E+00 0.  1.
        -11    1    4    4    0    0 -0.17537108416E-01 -0.46528038658E-01  0.21098505848E-01  0.54016817964E-01  0.51100000000E-03 0. -1.
         11    1    4    4    0    0  0.28366372229E-01 -0.70841247903E-01  0.37885521264E-01  0.85198047632E-01  0.51100000000E-03 0.  1.
</event>
<event>
 8    1  0.2943605E+004  0.1043930E+01  0.7957747E-01            NaN
         13   -1    0    0    0    0  0.00000000000E+00  0.00000000000E+00  0.74505805969E-08  0.10566000000E+00  0.10566000000E+00 0.  1.
     999900   -1    0    0    0    0 -0.00000000000E+00 -0.00000000000E+00 -0.74505805969E-08  0.93827000000E+00  0.93827000000E+00 0. -1.
     999902    2    1    2    0    0 -0.25936576877E-02  0.12385948759E-01  0.31099184964E-02  0.10308988688E+01  0.10308165052E+01 0.  0.
     999903    2    3    3    0    0 -0.33597596151E-02 -0.36063022913E-01  0.13131771694E+00  0.14028945423E+00  0.33540402182E-01 0.  0.
         14    1    1    2    0    0  0.25936576877E-02 -0.12385948759E-01 -0.31099184964E-02  0.13031131184E-01  0.00000000000E+00 0. -1.
     999901    1    3    3    0    0  0.76610192745E-03  0.48448971672E-01 -0.12820779845E+00  0.89060941459E+00  0.88000000000E+00 0. -1.
        -11    1    4    4    0    0 -0.16887806633E-01 -0.91431330956E-02  0.53124127601E-01  0.56490963437E-01  0.51100000000E-03 0. -1.
         11    1    4    4    0    0  0.13528047017E-01 -0.26919889817E-01  0.78193589342E-01  0.83798490792E-01  0.51100000000E-03 0.  1.
</event>
<event>
 8    1  0.2943605E+004  0.1043930E+01  0.7957747E-01            NaN
         13   -1    0    0    0    0  0.00000000000E+00  0.00000000000E+00  0.74505805969E-08  0.10566000000E+00  0.10566000000E+00 0. -1.
     999900   -1    0    0    0    0 -0.00000000000E+00 -0.00000000000E+00 -0.74505805969E-08  0.93827000000E+00  0.93827000000E+00 0. -1.
     999902    2    1    2    0    0 -0.12308618267E-01 -0.58306708107E-02  0.31192228558E-02  0.10299575859E+01  0.10298628065E+01 0.  0.
     999903    2    3    3    0    0 -0.30458708797E-01  0.12263477499E+00 -0.41796232819E-01  0.13931164346E+00  0.41155655121E-01 0.  0.
         14    1    1    2    0    0  0.12308618267E-01  0.58306708107E-02 -0.31192228558E-02  0.13972414143E-01  0.00000000000E+00 0.  1.
     999901    1    3    3    0    0  0.18150090530E-01 -0.12846544580E+00  0.44915455675E-01  0.89064594240E+00  0.88000000000E+00 0. -1.
        -11    1    4    4    0    0 -0.10850412596E-01  0.82031713015E-01 -0.83481547732E-02  0.83167819515E-01  0.51100000000E-03 0.  1.
         11    1    4    4    0    0 -0.19608296201E-01  0.40603061970E-01 -0.33448078046E-01  0.56143823946E-01  0.51100000000E-03 0. -1.
</event>
<event>
 8    1  0.2943605E+004  0.1043930E+01  0.7957747E-01            NaN
         13   -1    0    0    0    0  0.00000000000E+00  0.00000000000E+00  0.74505805969E-08  0.10566000000E+00  0.10566000000E+00 0.  1.
     999900   -1    0    0    0    0 -0.00000000000E+00 -0.00000000000E+00 -0.74505805969E-08  0.93827000000E+00  0.93827000000E+00 0. -1.
     999902    2    1    2    0    0 -0.71101471763E-02  0.97444061830E-02  0.91447036110E-02  0.10287928520E+01  0.10286814858E+01 0.  0.
     999903    2    3    3    0    0  0.10203196350E+00 -0.80057294619E-01 -0.95613381224E-02  0.13731864500E+00  0.44105544780E-01 0.  0.
         14    1    1    2    0    0  0.71101471763E-02 -0.97444061830E-02 -0.91447036110E-02  0.15137147976E-01  0.00000000000E+00 0. -1.
     999901    1    3    3    0    0 -0.10914211068E+00  0.89801700802E-01  0.18706041733E-01  0.89147420702E+00  0.88000000000E+00 0. -1.
        -11    1    4    4    0    0  0.19776764529E-01 -0.39077056081E-01 -0.11906470614E-01  0.45389006275E-01  0.51100000000E-03 0. -1.
         11    1    4    4    0    0  0.82255198973E-01 -0.40980238538E-01  0.23451324918E-02  0.91929638725E-01  0.51100000000E-03 0.  1.
</event>
<event>
 8    1  0.2943605E+004  0.1043930E+01  0.7957747E-01            NaN
         13   -1    0    0    0    0  0.00000000000E+00  0.00000000000E+00  0.74505805969E-08  0.10566000000E+00  0.10566000000E+00 0.  1.
     999900   -1    0    0    0    0 -0.00000000000E+00 -0.00000000000E+00 -0.74505805969E-08  0.93827000000E+00  0.93827000000E+00 0.  1.
     999902    2    1    2    0    0  0.10019069364E-01 -0.98666845842E-02 -0.23053735503E-04  0.10298682168E+01  0.10297722128E+01 0.  0.
     999903    2    3    3    0    0  0.37850310555E-01 -0.12585526253E+00  0.27572092120E-01  0.14139231938E+00  0.44264823518E-01 0.  0.
         14    1    1    2    0    0 -0.10019069364E-01  0.98666845842E-02  0.23053735503E-04  0.14061783211E-01  0.00000000000E+00 0. -1.
     999901    1    3    3    0    0 -0.27831241191E-01  0.11598857794E+00 -0.27595145856E-01  0.88847589741E+00  0.88000000000E+00 0.  1.
        -11    1    4    4    0    0  0.26862743285E-01 -0.78917824579E-01 -0.45035956297E-02  0.83487564988E-01  0.51100000000E-03 0. -1.
         11    1    4    4    0    0  0.10987567270E-01 -0.46937437949E-01  0.32075687750E-01  0.57904754393E-01  0.51100000000E-03 0.  1.
</event>
<event>
 8    1  0.2943605E+004  0.1043930E+01  0.7957747E-01            NaN
         13   -1    0    0    0    0  0.00000000000E+00  0.00000000000E+00  0.74505805969E-08  0.10566000000E+00  0.10566000000E+00 0. -1.
     999900   -1    0    0    0    0 -0.00000000000E+00 -0.00000000000E+00 -0.74505805969E-08  0.93827000000E+00  0.93827000000E+00 0.  1.
     999902    2    1    2    0    0  0.15720775093E-01  0.12560522700E-02  0.68772660732E-02  0.10267248489E+01  0.10265806827E+01 0.  0.
     999903    2    3    3    0    0  0.30924279498E-01  0.30098592647E-01 -0.12186123322E+00  0.13676044515E+00  0.44620879131E-01 0.  0.
         14    1    1    2    0    0 -0.15720775093E-01 -0.12560522700E-02 -0.68772660732E-02  0.17205151132E-01  0.00000000000E+00 0.  1.
     999901    1    3    3    0    0 -0.15203504405E-01 -0.28842540377E-01  0.12873849929E+00  0.88996440372E+00  0.88000000000E+00 0. -1.
        -11    1    4    4    0    0  0.15539921282E-01  0.22596810290E-01 -0.21237243249E-01  0.34689863225E-01  0.51100000000E-03 0.  1.
         11    1    4    4    0    0  0.15384358216E-01  0.75017823572E-02 -0.10062398997E+00  0.10207058193E+00  0.51100000000E-03 0. -1.
</event>
<event>
 8    1  0.2943605E+004  0.1043930E+01  0.7957747E-01            NaN
         13   -1    0    0    0    0  0.00000000000E+00  0.00000000000E+00  0.74505805969E-08  0.10566000000E+00  0.10566000000E+00 0. -1.
     999900   -1    0    0    0    0 -0.00000000000E+00 -0.00000000000E+00 -0.74505805969E-08  0.93827000000E+00  0.93827000000E+00 0. -1.
     999902    2    1    2    0    0  0.45904195759E-02 -0.11747181437E-01 -0.82873656541E-02  0.10288386564E+01  0.10287279680E+01 0.  0.
     999903    2    3    3    0    0  0.84405680603E-01  0.57429260714E-01  0.81285099372E-01  0.13800809865E+00  0.44905779247E-01 0.  0.
         14    1    1    2    0    0 -0.45904195759E-02  0.11747181437E-01  0.82873656541E-02  0.15091343647E-01  0.00000000000E+00 0. -1.
     999901    1    3    3    0    0 -0.79815261027E-01 -0.69176442150E-01 -0.89572465026E-01  0.89083055770E+00  0.88000000000E+00 0. -1.
        -11    1    4    4    0    0  0.44023131760E-01  0.37020254559E-02  0.35585076704E-01  0.56730061938E-01  0.51100000000E-03 0. -1.
         11    1    4    4    0    0  0.40382548843E-01  0.53727235258E-01  0.45700022667E-01  0.81278036715E-01  0.51100000000E-03 0.  1.
</event>
<event>
 8    1  0.2943605E+004  0.1043930E+01  0.7957747E-01            NaN
         13   -1    0    0    0    0  0.00000000000E+00  0.00000000000E+00  0.74505805969E-08  0.10566000000E+00  0.10566000000E+00 0.  1.
     999900   -1    0    0    0    0 -0.00000000000E+00 -0.00000000000E+00 -0.74505805969E-08  0.93827000000E+00  0.93827000000E+00 0. -1.
     999902    2    1    2    0    0 -0.21068504844E-02  0.14178430512E-01  0.18344631793E-02  0.10294789805E+01  0.10293775494E+01 0.  0.
     999903    2    3    3    0    0 -0.55406794829E-01  0.35609621354E-01  0.11577128095E+00  0.14027609109E+00  0.44004933745E-01 0.  0.
         14    1    1    2    0    0  0.21068504844E-02 -0.14178430512E-01 -0.18344631793E-02  0.14451019546E-01  0.00000000000E+00 0.  1.
     999901    1    3    3    0    0  0.53299944344E-01 -0.21431190842E-01 -0.11393681777E+00  0.88920288936E+00  0.88000000000E+00 0. -1.
        -11    1    4    4    0    0  0.62533075753E-02  0.75772739957E-02  0.26135387876E-01  0.27925589649E-01  0.51100000000E-03 0.  1.
         11    1    4    4    0    0 -0.61660102404E-01  0.28032347359E-01  0.89635893070E-01  0.11235050144E+00  0.51100000000E-03 0. -1.
</event>
<event>
 8    1  0.2943605E+004  0.1043930E+01  0.7957747E-01            NaN
         13   -1    0    0    0    0  0.00000000000E+00  0.00000000000E+00  0.74505805969E-08  0.10566000000E+00  0.10566000000E+00 0. -1.
     999900   -1    0    0    0    0 -0.00000000000E+00 -0.00000000000E+00 -0.74505805969E-08  0.93827000000E+00  0.93827000000E+00 0. -1.
     999902    2    1    2    0    0 -0.13334456575E-01 -0.65391558419E-02  0.61130925882E-02  0.10278695457E+01  0.10277440658E+01 0.  0.
     999903    2    3    3    0    0 -0.77360358925E-02  0.31071049085E-01  0.12718329783E+00  0.13876670327E+00  0.45335971864E-01 0.  0.
         14    1    1    2    0    0  0.13334456575E-01  0.65391558419E-02 -0.61130925882E-02  0.16060454298E-01  0.00000000000E+00 0. -1.
     999901    1    3    3    0    0 -0.55984206821E-02 -0.37610204927E-01 -0.12107020525E+00  0.88910284244E+00  0.88000000000E+00 0. -1.
        -11    1    4    4    0    0 -0.27534051253E-02 -0.44500520852E-02  0.76458541713E-01  0.76639114852E-01  0.51100000000E-03 0. -1.
         11    1    4    4    0    0 -0.49826307673E-02  0.35521101170E-01  0.50724756121E-01  0.62127588415E-01  0.51100000000E-03 0.  1.
</event>
<event>
 8    1  0.2943605E+004  0.1043930E+01  0.7957747E-01            NaN
         13   -1    0    0    0    0  0.00000000000E+00  0.00000000000E+00  0.74505805969E-08  0.10566000000E+00  0.10566000000E+00 0. -1.
     999900   -1    0    0    0    0 -0.00000000000E+00 -0.00000000000E+00 -0.74505805969E-08  0.93827000000E+00  0.93827000000E+00 0. -1.
     999902    2    1    2    0    0 -0.45227165907E-02 -0.61187781290E-02 -0.11316107356E-01  0.10302936993E+01  0.10302034547E+01 0.  0.
     999903    2    3    3    0    0 -0.41755088880E-01  0.54508397246E-01  0.11194898369E+00  0.13885879612E+00  0.45105847657E-01 0.  0.
         14    1    1    2    0    0  0.45227165907E-02  0.61187781290E-02  0.11316107356E-01  0.13636300702E-01  0.00000000000E+00 0. -1.
     999901    1    3    3    0    0  0.37232372290E-01 -0.60627175375E-01 -0.12326509104E+00  0.89143490318E+00  0.88000000000E+00 0. -1.
        -11    1    4    4    0    0 -0.20959922365E-01 -0.36566873301E-03  0.15959970595E-01  0.26352112658E-01  0.51100000000E-03 0.  1.
         11    1    4    4    0    0 -0.20795166515E-01  0.54874065979E-01  0.95989013092E-01  0.11250668346E+00  0.51100000000E-03 0. -1.
</event>
<event>
 8    1  0.2943605E+004  0.1043930E+01  0.7957747E-01            NaN
         13   -1    0    0    0    0  0.00000000000E+00  0.00000000000E+00  0.74505805969E-08  0.10566000000E+00  0.10566000000E+00 0.  1.
     999900   -1    0    0    0    0 -0.00000000000E+00 -0.00000000000E+00 -0.74505805969E-08  0.93827000000E+00  0.93827000000E+00 0. -1.
     999902    2    1    2    0    0  0.95544386738E-02 -0.98017985668E-02  0.33675235262E-02  0.10298338031E+01  0.10297373253E+01 0.  0.
     999903    2    3    3    0    0  0.92482189367E-01  0.31518975060E-01 -0.89710735944E-01  0.14008778281E+00  0.45057403489E-01 0.  0.
         14    1    1    2    0    0 -0.95544386738E-02  0.98017985668E-02 -0.33675235262E-02  0.14096196942E-01  0.00000000000E+00 0. -1.
     999901    1    3    3    0    0 -0.82927750693E-01 -0.41320773626E-01  0.93078259470E-01  0.88974602025E+00  0.88000000000E+00 0.  1.
        -11    1    4    4    0    0  0.65020126249E-01  0.15684260070E-01 -0.84801842360E-01  0.10800567772E+00  0.51100000000E-03 0.  1.
         11    1    4    4    0    0  0.27462063117E-01  0.15834714990E-01 -0.49088935841E-02  0.32082105085E-01  0.51100000000E-03 0. -1.
</event>
<event>
 8    1  0.2943605E+004  0.1043930E+01  0.7957747E-01            NaN
         13   -1    0    0    0    0  0.00000000000E+00  0.00000000000E+00  0.74505805969E-08  0.10566000000E+00  0.10566000000E+00 0. -1.
     999900   -1    0    0    0    0 -0.00000000000E+00 -0.00000000000E+00 -0.74505805969E-08  0.93827000000E+00  0.93827000000E+00 0.  1.
     999902    2    1    2    0    0 -0.30776203084E-02  0.11513905172E-01 -0.80138972389E-02  0.10295680953E+01  0.10294679201E+01 0.  0.
     999903    2    3    3    0    0  0.16782402184E-01 -0.12668135419E+00  0.30282950902E-01  0.13773907645E+00  0.41535304782E-01 0.  0.
         14    1    1    2    0    0  0.30776203084E-02 -0.11513905172E-01  0.80138972389E-02  0.14361904749E-01  0.00000000000E+00 0. -1.
     999901    1    3    3    0    0 -0.19860022493E-01  0.13819525936E+00 -0.38296848141E-01  0.89182901880E+00  0.88000000000E+00 0. -1.
        -11    1    4    4    0    0  0.14212554231E-01 -0.64933300548E-01 -0.48470359924E-02  0.66648969210E-01  0.51100000000E-03 0.  1.
         11    1    4    4    0    0  0.25698479528E-02 -0.61748053639E-01  0.35129986895E-01  0.71090107237E-01  0.51100000000E-03 0. -1.
</event>
<event>
 8    1  0.2943605E+004  0.1043930E+01  0.7957747E-01            NaN
         13   -1    0    0    0    0  0.00000000000E+00  0.00000000000E+00  0.74505805969E-08  0.10566000000E+00  0.10566000000E+00 0.  1.
     999900   -1    0    0    0    0 -0.00000000000E+00 -0.00000000000E+00 -0.74505805969E-08  0.93827000000E+00  0.93827000000E+00 0.  1.
     999902    2    1    2    0    0  0.13788550100E-02  0.12338790108E-01 -0.30935061414E-02  0.10311348149E+01  0.10310554251E+01 0.  0.
     999903    2    3    3    0    0  0.88692919757E-01 -0.57968160693E-02 -0.10032949089E+00  0.14129916552E+00  0.44714766499E-01 0.  0.
         14    1    1    2    0    0 -0.13788550100E-02 -0.12338790108E-01  0.30935061414E-02  0.12795185138E-01  0.00000000000E+00 0. -1.
     999901    1    3    3    0    0 -0.87314064747E-01  0.18135606177E-01  0.97235984745E-01  0.88983564934E+00  0.88000000000E+00 0. -1.
        -11    1    4    4    0    0  0.74709026455E-01 -0.18409428104E-01 -0.62849893199E-01  0.99351476452E-01  0.51100000000E-03 0. -1.
         11    1    4    4    0    0  0.13983893302E-01  0.12612612035E-01 -0.37479597687E-01  0.41947689067E-01  0.51100000000E-03 0.  1.
</event>
<event>
 8    1  0.2943605E+004  0.1043930E+01  0.7957747E-01            NaN
         13   -1    0    0    0    0  0.00000000000E+00  0.00000000000E+00  0.74505805969E-08  0.10566000000E+00  0.10566000000E+00 0.  1.
     999900   -1    0    0    0    0 -0.00000000000E+00 -0.00000000000E+00 -0.74505805969E-08  0.93827000000E+00  0.93827000000E+00 0. -1.
     999902    2    1    2    0    0  0.14452053519E-01  0.38958453982E-02 -0.57581006459E-03  0.10289509807E+01  0.10288419459E+01 0.  0.
     999903    2    3    3    0    0 -0.74075012398E-01 -0.98654592667E-01 -0.42388655949E-01  0.13760259323E+00  0.43793143232E-01 0.  0.
         14    1    1    2    0    0 -0.14452053519E-01 -0.38958453982E-02  0.57581006459E-03  0.14979019311E-01  0.00000000000E+00 0. -1.
     999901    1    3    3    0    0  0.88527065917E-01  0.10255043806E+00  0.41812845884E-01  0.89134838746E+00  0.88000000000E+00 0.  1.
        -11    1    4    4    0    0 -0.46732822313E-01 -0.61411552789E-01 -0.48269371866E-01  0.91024880547E-01  0.51100000000E-03 0. -1.
         11    1    4    4    0    0 -0.27342190085E-01 -0.37243039877E-01  0.58807159170E-02  0.46577712682E-01  0.51100000000E-03 0.  1.
</event>
<event>
 8    1  0.2943605E+004  0.1043930E+01  0.7957747E-01            NaN
         13   -1    0    0    0    0  0.00000000000E+00  0.00000000000E+00  0.74505805969E-08  0.10566000000E+00  0.10566000000E+00 0. -1.
     999900   -1    0    0    0    0 -0.00000000000E+00 -0.00000000000E+00 -0.74505805969E-08  0.93827000000E+00  0.93827000000E+00 0. -1.
     999902    2    1    2    0    0 -0.80854225451E-02 -0.34164400334E-02 -0.10426050274E-01  0.10303010366E+01  0.10302108897E+01 0.  0.
     999903    2    3    3    0    0 -0.10716062022E+00 -0.69371787099E-01  0.39127069080E-01  0.14090713381E+00  0.45033870055E-01 0.  0.
         14    1    1    2    0    0  0.80854225451E-02  0.34164400334E-02  0.10426050274E-01  0.13628963443E-01  0.00000000000E+00 0. -1.
     999901    1    3    3    0    0  0.99075197679E-01  0.65955347065E-01 -0.49553119354E-01  0.88939390274E+00  0.88000000000E+00 0. -1.
        -11    1    4    4    0    0 -0.13092509979E-01 -0.51035684436E-02  0.21403589385E-01  0.25609275429E-01  0.51100000000E-03 0. -1.
         11    1    4    4    0    0 -0.94068110245E-01 -0.64268218655E-01  0.17723479695E-01  0.11529785838E+00  0.51100000000E-03 0.  1.
</event>
<event>
 8    1  0.2943605E+004  0.1043930E+01  0.7957747E-01            NaN
         13   -1    0    0    0    0  0.00000000000E+00  0.00000000000E+00  0.74505805969E-08  0.10566000000E+00  0.10566000000E+00 0.  1.
     999900   -1    0    0    0    0 -0.00000000000E+00 -0.00000000000E+00 -0.74505805969E-08  0.93827000000E+00  0.93827000000E+00 0.  1.
     999902    2    1    2    0    0  0.24432622764E-02  0.82533026714E-02  0.10612770982E-01  0.10302655409E+01  0.10301749207E+01 0.  0.
     999903    2    3    3    0    0  0.50337818025E-01  0.95187864246E-01  0.80723489235E-01  0.14191481098E+00  0.45043383966E-01 0.  0.
         14    1    1    2    0    0 -0.24432622764E-02 -0.82533026714E-02 -0.10612770982E-01  0.13664459135E-01  0.00000000000E+00 0. -1.
     999901    1    3    3    0    0 -0.47894555749E-01 -0.86934561574E-01 -0.70110718253E-01  0.88835072988E+00  0.88000000000E+00 0.  1.
        -11    1    4    4    0    0  0.21414700512E-01  0.64579676518E-01  0.25945766128E-01  0.72818733292E-01  0.51100000000E-03 0.  1.
         11    1    4    4    0    0  0.28923117513E-01  0.30608187727E-01  0.54777723107E-01  0.69096077692E-01  0.51100000000E-03 0. -1.
</event>
<event>
 8    1  0.2943605E+004  0.1043930E+01  0.7957747E-01            NaN
         13   -1    0    0    0    0  0.00000000000E+00  0.00000000000E+00  0.74505805969E-08  0.10566000000E+00  0.10566000000E+00 0.  1.
     999900   -1    0    0    0    0 -0.00000000000E+00 -0.00000000000E+00 -0.74505805969E-08  0.93827000000E+00  0.93827000000E+00 0. -1.
     999902    2    1    2    0    0 -0.13508685037E-01 -0.25048349242E-02  0.27751684053E-02  0.10299135693E+01  0.10298181878E+01 0.  0.
     999903    2    3    3    0    0  0.10263371755E+00  0.17272524976E-01  0.80450031891E-01  0.13867084926E+00  0.43879114678E-01 0.  0.
         14    1    1    2    0    0  0.13508685037E-01  0.25048349242E-02 -0.27751684053E-02  0.14016430683E-01  0.00000000000E+00 0. -1.
     999901    1    3    3    0    0 -0.11614240259E+00 -0.19777359900E-01 -0.77674863485E-01  0.89124272006E+00  0.88000000000E+00 0. -1.
        -11    1    4    4    0    0  0.49646463633E-01 -0.13053187775E-01  0.43642974404E-01  0.67380467483E-01  0.51100000000E-03 0. -1.
         11    1    4    4    0    0  0.52987253917E-01  0.30325712751E-01  0.36807057487E-01  0.71290381773E-01  0.51100000000E-03 0.  1.
</event>
<event>
 8    1  0.2943605E+004  0.1043930E+01  0.7957747E-01            NaN
         13   -1    0    0    0    0  0.00000000000E+00  0.00000000000E+00  0.74505805969E-08  0.10566000000E+00  0.10566000000E+00 0.  1.
     999900   -1    0    0    0    0 -0.00000000000E+00 -0.00000000000E+00 -0.74505805969E-08  0.93827000000E+00  0.93827000000E+00 0.  1.
     999902    2    1    2    0    0 -0.21162064224E-02 -0.16054466886E-02  0.13435463495E-01  0.10302344727E+01  0.10301434372E+01 0.  0.
     999903    2    3    3    0    0  0.12583038616E+00 -0.12677125782E-01  0.41336937658E-01  0.14047528905E+00  0.45061833295E-01 0.  0.
         14    1    1    2    0    0  0.21162064224E-02  0.16054466886E-02 -0.13435463495E-01  0.13695527300E-01  0.00000000000E+00 0. -1.
     999901    1    3    3    0    0 -0.12794659258E+00  0.11071679094E-01 -0.27901474163E-01  0.88975918365E+00  0.88000000000E+00 0.  1.
        -11    1    4    4    0    0  0.48872715018E-01  0.15743897005E-01  0.23734421551E-01  0.56568511148E-01  0.51100000000E-03 0. -1.
         11    1    4    4    0    0  0.76957671140E-01 -0.28421022788E-01  0.17602516107E-01  0.83906777901E-01  0.51100000000E-03 0.  1.
</event>
<event>
 8    1  0.2943605E+004  0.1043930E+01  0.7957747E-01            NaN
         13   -1    0    0    0    0  0.00000000000E+00  0.00000000000E+00  0.74505805969E-08  0.10566000000E+00  0.10566000000E+00 0. -1.
     999900   -1    0    0    0    0 -0.00000000000E+00 -0.00000000000E+00 -0.74505805969E-08  0.93827000000E+00  0.93827000000E+00 0.  1.
     999902    2    1    2    0    0 -0.66505160921E-02  0.12686413247E-01  0.43815339027E-02  0.10289509385E+01  0.10288419030E+01 0.  0.
     999903    2    3    3    0    0 -0.17248779734E-01  0.20724701566E-01  0.13004472422E+00  0.13992440642E+00  0.44047423956E-01 0.  0.
         14    1    1    2    0    0  0.66505160921E-02 -0.12686413247E-01 -0.43815339027E-02  0.14979061543E-01  0.00000000000E+00 0.  1.
     999901    1    3    3    0    0  0.10598263642E-01 -0.80382883190E-02 -0.12566319031E+00  0.88902653204E+00  0.88000000000E+00 0.  1.
        -11    1    4    4    0    0  0.11048452690E-01 -0.58710801990E-02  0.25749083664E-01  0.28632399831E-01  0.51100000000E-03 0. -1.
         11    1    4    4    0    0 -0.28297232424E-01  0.26595781765E-01  0.10429564055E+00  0.11129200659E+00  0.51100000000E-03 0.  1.
</event>
<event>
 8    1  0.2943605E+004  0.1043930E+01  0.7957747E-01            NaN
         13   -1    0    0    0    0  0.00000000000E+00  0.00000000000E+00  0.74505805969E-08  0.10566000000E+00  0.10566000000E+00 0. -1.
     999900   -1    0    0    0    0 -0.00000000000E+00 -0.00000000000E+00 -0.74505805969E-08  0.93827000000E+00  0.93827000000E+00 0. -1.
     999902    2    1    2    0    0  0.36500461377E-02 -0.23262591324E-02 -0.14629445126E-01  0.10286736904E+01  0.10285605506E+01 0.  0.
     999903    2    3    3    0    0  0.83151332613E-02 -0.19887901483E-01 -0.13168877336E+00  0.14073615844E+00  0.44722066091E-01 0.  0.
         14    1    1    2    0    0 -0.36500461377E-02  0.23262591324E-02  0.14629445126E-01  0.15256309614E-01  0.00000000000E+00 0. -1.
     999901    1    3    3    0    0 -0.46650871236E-02  0.17561642351E-01  0.11705932823E+00  0.88793753195E+00  0.88000000000E+00 0.  1.
        -11    1    4    4    0    0 -0.30077948737E-02  0.11823010610E-01 -0.63754406396E-01  0.64913140933E-01  0.51100000000E-03 0. -1.
         11    1    4    4    0    0  0.11322928135E-01 -0.31710912093E-01 -0.67934366964E-01  0.75823017502E-01  0.51100000000E-03 0.  1.
</event>
<event>
 8    1  0.2943605E+004  0.1043930E+01  0.7957747E-01            NaN
         13   -1    0    0    0    0  0.00000000000E+00  0.00000000000E+00  0.74505805969E-08  0.10566000000E+00  0.10566000000E+00 0.  1.
     999900   -1    0    0    0    0 -0.00000000000E+00 -0.00000000000E+00 -0.74505805969E-08  0.93827000000E+00  0.93827000000E+00 0. -1.
     999902    2    1    2    0    0 -0.15480618045E-02 -0.70505208745E-02 -0.72930191431E-02  0.10336686907E+01  0.10336177571E+01 0.  0.
     999903    2    3    3    0    0  0.43952281248E-01  0.81158749320E-01  0.97983407019E-01  0.14185352911E+00  0.44756340916E-01 0.  0.
         14    1    1    2    0    0  0.15480618045E-02  0.70505208745E-02  0.72930191431E-02  0.10261309282E-01  0.00000000000E+00 0.  1.
     999901    1    3    3    0    0 -0.45500343053E-01 -0.88209270194E-01 -0.10527642616E+00  0.89181516161E+00  0.88000000000E+00 0. -1.
        -11    1    4    4    0    0 -0.78257530916E-02  0.21661285200E-01  0.29251969287E-01  0.37234292207E-01  0.51100000000E-03 0.  1.
         11    1    4    4    0    0  0.51778034340E-01  0.59497464119E-01  0.68731437732E-01  0.10461923690E+00  0.51100000000E-03 0. -1.
</event>
<event>
 8    1  0.2943605E+004  0.1043930E+01  0.7957747E-01            NaN
         13   -1    0    0    0    0  0.00000000000E+00  0.00000000000E+00  0.74505805969E-08  0.10566000000E+00  0.10566000000E+00 0.  1.
     999900   -1    0    0    0    0 -0.00000000000E+00 -0.00000000000E+00 -0.74505805969E-08  0.93827000000E+00  0.93827000000E+00 0. -1.
     999902    2    1    2    0    0  0.70640536971E-02 -0.43693203910E-02  0.10059415853E-01  0.10308845540E+01  0.10308020081E+01 0.  0.
     999903    2    3    3    0    0  0.97700613921E-01 -0.23347122226E-01 -0.87433838978E-01  0.14067105273E+00  0.45311927811E-01 0.  0.
         14    1    1    2    0    0 -0.70640536971E-02  0.43693203910E-02 -0.10059415853E-01  0.13045446049E-01  0.00000000000E+00 0. -1.
     999901    1    3    3    0    0 -0.90636560224E-01  0.18977801835E-01  0.97493254831E-01  0.89021350122E+00  0.88000000000E+00 0.  1.
        -11    1    4    4    0    0  0.91185720229E-01 -0.18159525267E-01 -0.92300036387E-01  0.13101206727E+00  0.51100000000E-03 0.  1.
         11    1    4    4    0    0  0.65148936921E-02 -0.51875969591E-02  0.48661974084E-02  0.96589854667E-02  0.51100000000E-03 0. -1.
</event>
<event>
 8    1  0.2943605E+004  0.1043930E+01  0.7957747E-01            NaN
         13   -1    0    0    0    0  0.00000000000E+00  0.00000000000E+00  0.74505805969E-08  0.10566000000E+00  0.10566000000E+00 0. -1.
     999900   -1    0    0    0    0 -0.00000000000E+00 -0.00000000000E+00 -0.74505805969E-08  0.93827000000E+00  0.93827000000E+00 0. -1.
     999902    2    1    2    0    0  0.55628372011E-03 -0.24832347614E-02 -0.13475777598E-01  0.10302160477E+01  0.10301247655E+01 0.  0.
     999903    2    3    3    0    0  0.11356249810E-01 -0.10135187379E+00 -0.87760218334E-01  0.14150359408E+00  0.43820594293E-01 0.  0.
         14    1    1    2    0    0 -0.55628372011E-03  0.24832347614E-02  0.13475777598E-01  0.13713952324E-01  0.00000000000E+00 0. -1.
     999901    1    3    3    0    0 -0.10799966090E-01  0.98868639026E-01  0.74284440736E-01  0.88871245360E+00  0.88000000000E+00 0. -1.
        -11    1    4    4    0    0  0.19975338026E-01 -0.61198566651E-01 -0.74237249315E-01  0.98263467251E-01  0.51100000000E-03 0.  1.
         11    1    4    4    0    0 -0.86190882163E-02 -0.40153307136E-01 -0.13522969019E-01  0.43240126824E-01  0.51100000000E-03 0. -1.
</event>
<event>
 8    1  0.2943605E+004  0.1043930E+01  0.7957747E-01            NaN
         13   -1    0    0    0    0  0.00000000000E+00  0.00000000000E+00  0.74505805969E-08  0.10566000000E+00  0.10566000000E+00 0.  1.
     999900   -1    0    0    0    0 -0.00000000000E+00 -0.00000000000E+00 -0.74505805969E-08  0.93827000000E+00  0.93827000000E+00 0. -1.
     999902    2    1    2    0    0  0.52015239768E-02  0.12728584631E-01  0.38674922247E-02  0.10296460855E+01  0.10295470029E+01 0.  0.
     999903    2    3    3    0    0 -0.79601392275E-01  0.10495768131E+00  0.90243215654E-03  0.14076671656E+00  0.49618117544E-01 0.  0.
         14    1    1    2    0    0 -0.52015239768E-02 -0.12728584631E-01 -0.38674922247E-02  0.14283914537E-01  0.00000000000E+00 0. -1.
     999901    1    3    3    0    0  0.84802916251E-01 -0.92229096683E-01  0.29650600681E-02  0.88887936890E+00  0.88000000000E+00 0. -1.
        -11    1    4    4    0    0 -0.54186773251E-01  0.87184735239E-01  0.19660584216E-01  0.10451882197E+00  0.51100000000E-03 0. -1.
         11    1    4    4    0    0 -0.25414619024E-01  0.17772946074E-01 -0.18758152059E-01  0.36247894587E-01  0.51100000000E-03 0.  1.
</event>
<event>
 8    1  0.2943605E+004  0.1043930E+01  0.7957747E-01            NaN
         13   -1    0    0    0    0  0.00000000000E+00  0.00000000000E+00  0.74505805969E-08  0.10566000000E+00  0.10566000000E+00 0. -1.
     999900   -1    0    0    0    0 -0.00000000000E+00 -0.00000000000E+00 -0.74505805969E-08  0.93827000000E+00  0.93827000000E+00 0.  1.
     999902    2    1    2    0    0 -0.78441004022E-02  0.10579076603E-02  0.11130610793E-01  0.10302720508E+01  0.10301815175E+01 0.  0.
     999903    2    3    3    0    0 -0.34693392010E-01  0.92199072588E-01  0.91494406866E-01  0.14151677733E+00  0.44175460861E-01 0.  0.
         14    1    1    2    0    0  0.78441004022E-02 -0.10579076603E-02 -0.11130610793E-01  0.13657949200E-01  0.00000000000E+00 0.  1.
     999901    1    3    3    0    0  0.26849291608E-01 -0.91141164928E-01 -0.80363796074E-01  0.88875527347E+00  0.88000000000E+00 0.  1.
        -11    1    4    4    0    0 -0.28233894616E-01  0.56169883798E-01  0.29328220496E-01  0.69373008365E-01  0.51100000000E-03 0.  1.
         11    1    4    4    0    0 -0.64594973942E-02  0.36029188790E-01  0.62166186370E-01  0.72143768964E-01  0.51100000000E-03 0. -1.
</event>
<event>
 7    1  0.2943605E+004  0.1043930E+01  0.7957747E-01            NaN
         13   -1    0    0    0    0  0.00000000000E+00  0.00000000000E+00  0.74505805969E-08  0.10566000000E+00  0.10566000000E+00 0.  1.
     999900   -1    0    0    0    0 -0.00000000000E+00 -0.00000000000E+00 -0.74505805969E-08  0.93827000000E+00  0.93827000000E+00 0.  1.
     999902    2    1    2    0    0 -0.55348546847E-02  0.13217374255E-01  0.78731363905E-03  0.10295789212E+01  0.10294788981E+01 0.  0.
         14    1    1    2    0    0  0.55348546847E-02 -0.13217374255E-01 -0.78731363905E-03  0.14351078752E-01  0.00000000000E+00 0. -1.
     999901    1    3    3    0    0  0.51665006511E-01 -0.11301491867E+00 -0.14919599396E-01  0.88885557836E+00  0.88000000000E+00 0.  1.
        -11    1    3    3    0    0 -0.55708717820E-02  0.10300032252E-01 -0.38028547741E-02  0.12322666199E-01  0.51100000000E-03 0.  1.
         11    1    3    3    0    0 -0.51628989413E-01  0.11593226067E+00  0.19509767809E-01  0.12840067669E+00  0.51100000000E-03 0. -1.
</event>
<event>
 8    1  0.2943605E+004  0.1043930E+01  0.7957747E-01            NaN
         13   -1    0    0    0    0  0.00000000000E+00  0.00000000000E+00  0.74505805969E-08  0.10566000000E+00  0.10566000000E+00 0.  1.
     999900   -1    0    0    0    0 -0.00000000000E+00 -0.00000000000E+00 -0.74505805969E-08  0.93827000000E+00  0.93827000000E+00 0.  1.
     999902    2    1    2    0    0 -0.64918038231E-02  0.89187225913E-02  0.78889088505E-02  0.10303682150E+01  0.10302789605E+01 0.  0.
     999903    2    3    3    0    0 -0.62642995188E-01  0.29508441983E-01  0.11508333863E+00  0.14184835669E+00  0.45627716023E-01 0.  0.
         14    1    1    2    0    0  0.64918038231E-02 -0.89187225913E-02 -0.78889088505E-02  0.13561785000E-01  0.00000000000E+00 0. -1.
     999901    1    3    3    0    0  0.56151191365E-01 -0.20589719392E-01 -0.10719442978E+00  0.88851985831E+00  0.88000000000E+00 0.  1.
        -11    1    4    4    0    0 -0.58018675053E-01  0.53914136542E-02  0.77824473762E-01  0.97222136540E-01  0.51100000000E-03 0. -1.
         11    1    4    4    0    0 -0.46243201351E-02  0.24117028329E-01  0.37258864873E-01  0.44626220148E-01  0.51100000000E-03 0.  1.
</event>
<event>
 8    1  0.2943605E+004  0.1043930E+01  0.7957747E-01            NaN
         13   -1    0    0    0    0  0.00000000000E+00  0.00000000000E+00  0.74505805969E-08  0.10566000000E+00  0.10566000000E+00 0.  1.
     999900   -1    0    0    0    0 -0.00000000000E+00 -0.00000000000E+00 -0.74505805969E-08  0.93827000000E+00  0.93827000000E+00 0. -1.
     999902    2    1    2    0    0 -0.71544359937E-02 -0.64698780396E-02 -0.10782701991E-01  0.10294623831E+01  0.10293607173E+01 0.  0.
     999903    2    3    3    0    0 -0.12143116943E+00  0.52515185050E-01  0.37542391360E-02  0.13999640168E+00  0.45623728488E-01 0.  0.
         14    1    1    2    0    0  0.71544359937E-02  0.64698780396E-02  0.10782701991E-01  0.14467616890E-01  0.00000000000E+00 0.  1.
     999901    1    3    3    0    0  0.11427673343E+00 -0.58985063089E-01 -0.14536941127E-01  0.88946598143E+00  0.88000000000E+00 0. -1.
        -11    1    4    4    0    0 -0.59718632153E-01  0.54899865755E-02 -0.11118908600E-01  0.60994640980E-01  0.51100000000E-03 0. -1.
         11    1    4    4    0    0 -0.61712537275E-01  0.47025198474E-01  0.14873147735E-01  0.79001760696E-01  0.51100000000E-03 0.  1.
</event>
<event>
 8    1  0.2943605E+004  0.1043930E+01  0.7957747E-01            NaN
         13   -1    0    0    0    0  0.00000000000E+00  0.00000000000E+00  0.74505805969E-08  0.10566000000E+00  0.10566000000E+00 0. -1.
     999900   -1    0    0    0    0 -0.00000000000E+00 -0.00000000000E+00 -0.74505805969E-08  0.93827000000E+00  0.93827000000E+00 0. -1.
     999902    2    1    2    0    0  0.48520753178E-02  0.99011083432E-02  0.79112566748E-02  0.10303593492E+01  0.10302699772E+01 0.  0.
     999903    2    3    3    0    0  0.54120158446E-02 -0.69370733078E-01  0.11353237883E+00  0.14050533879E+00  0.44839275874E-01 0.  0.
         14    1    1    2    0    0 -0.48520753178E-02 -0.99011083432E-02 -0.79112566748E-02  0.13570650813E-01  0.00000000000E+00 0. -1.
     999901    1    3    3    0    0 -0.55994052686E-03  0.79271841421E-01 -0.10562112216E+00  0.88985401040E+00  0.88000000000E+00 0. -1.
        -11    1    4    4    0    0 -0.93204998882E-02 -0.50590726814E-01  0.46490171478E-01  0.69338953863E-01  0.51100000000E-03 0.  1.
         11    1    4    4    0    0  0.14732515733E-01 -0.18780006264E-01  0.67042207357E-01  0.71166384926E-01  0.51100000000E-03 0. -1.
</event>
<event>
 8    1  0.2943605E+004  0.1043930E+01  0.7957747E-01            NaN
         13   -1    0    0    0    0  0.00000000000E+00  0.00000000000E+00  0.74505805969E-08  0.10566000000E+00  0.10566000000E+00 0.  1.
     999900   -1    0    0    0    0 -0.00000000000E+00 -0.00000000000E+00 -0.74505805969E-08  0.93827000000E+00  0.93827000000E+00 0. -1.
     999902    2    1    2    0    0  0.10207438899E-01 -0.77986683739E-02  0.59983891364E-02  0.10297528455E+01  0.10296552487E+01 0.  0.
     999903    2    3    3    0    0  0.11617109485E+00 -0.48870595805E-01 -0.42692436035E-01  0.14111006235E+00  0.46961124221E-01 0.  0.
         14    1    1    2    0    0 -0.10207438899E-01  0.77986683739E-02 -0.59983891364E-02  0.14177154493E-01  0.00000000000E+00 0. -1.
     999901    1    3    3    0    0 -0.10596365595E+00  0.41071927431E-01  0.48690825171E-01  0.88864278316E+00  0.88000000000E+00 0.  1.
        -11    1    4    4    0    0  0.53035774036E-01 -0.53534095964E-02  0.76310370493E-04  0.53307778665E-01  0.51100000000E-03 0. -1.
         11    1    4    4    0    0  0.63135320815E-01 -0.43517186209E-01 -0.42768746405E-01  0.87802283683E-01  0.51100000000E-03 0.  1.
</event>
<event>
 8    1  0.2943605E+004  0.1043930E+01  0.7957747E-01            NaN
         13   -1    0    0    0    0  0.00000000000E+00  0.00000000000E+00  0.74505805969E-08  0.10566000000E+00  0.10566000000E+00 0. -1.
     999900   -1    0    0    0    0 -0.00000000000E+00 -0.00000000000E+00 -0.74505805969E-08  0.93827000000E+00  0.93827000000E+00 0.  1.
     999902    2    1    2    0    0 -0.46284434626E-02  0.98305509922E-02 -0.85704842454E-02  0.10300910903E+01  0.10299981257E+01 0.  0.
     999903    2    3    3    0    0 -0.86468439425E-01  0.96835920229E-01 -0.33540426120E-01  0.14167045950E+00  0.45733712381E-01 0.  0.
         14    1    1    2    0    0  0.46284434626E-02 -0.98305509922E-02  0.85704842454E-02  0.13838909708E-01  0.00000000000E+00 0. -1.
     999901    1    3    3    0    0  0.81839995963E-01 -0.87005369237E-01  0.24969941874E-01  0.88842063079E+00  0.88000000000E+00 0.  1.
        -11    1    4    4    0    0 -0.40678754228E-01  0.27046043102E-01  0.61591273592E-02  0.49238658225E-01  0.51100000000E-03 0.  1.
         11    1    4    4    0    0 -0.45789685197E-01  0.69789877128E-01 -0.39699553479E-01  0.92431801277E-01  0.51100000000E-03 0. -1.
</event>
<event>
 8    1  0.2943605E+004  0.1043930E+01  0.7957747E-01            NaN
         13   -1    0    0    0    0  0.00000000000E+00  0.00000000000E+00  0.74505805969E-08  0.10566000000E+00  0.10566000000E+00 0.  1.
     999900   -1    0    0    0    0 -0.00000000000E+00 -0.00000000000E+00 -0.74505805969E-08  0.93827000000E+00  0.93827000000E+00 0. -1.
     999902    2    1    2    0    0 -0.85470853438E-02  0.10576695173E-01  0.51031104441E-03  0.10303219301E+01  0.10302320613E+01 0.  0.
     999903    2    3    3    0    0  0.12930466429E+00 -0.15599000163E-01  0.19640290205E-01  0.13900031139E+00  0.44410815731E-01 0.  0.
         14    1    1    2    0    0  0.85470853438E-02 -0.10576695173E-01 -0.51031104441E-03  0.13608069886E-01  0.00000000000E+00 0. -1.
     999901    1    3    3    0    0 -0.13785174963E+00  0.26175695337E-01 -0.19129979161E-01  0.89132161872E+00  0.88000000000E+00 0.  1.
        -11    1    4    4    0    0  0.91592276526E-01 -0.57393398058E-02  0.33396616280E-01  0.97661047714E-01  0.51100000000E-03 0. -1.
         11    1    4    4    0    0  0.37712387763E-01 -0.98596603576E-02 -0.13756326074E-01  0.41339263675E-01  0.51100000000E-03 0.  1.
</event>
<event>
 8    1  0.2943605E+004  0.1043930E+01  0.7957747E-01            NaN
         13   -1    0    0    0    0  0.00000000000E+00  0.00000000000E+00  0.74505805969E-08  0.10566000000E+00  0.10566000000E+00 0.  1.
     999900   -1    0    0    0    0 -0.00000000000E+00 -0.00000000000E+00 -0.74505805969E-08  0.93827000000E+00  0.93827000000E+00 0.  1.
     999902    2    1    2    0    0  0.82063970391E-02  0.44304032338E-02 -0.85991618301E-02  0.10312446143E+01  0.10311665896E+01 0.  0.
     999903    2    3    3    0    0  0.80216740186E-01  0.10320784488E+00 -0.34164182559E-01  0.14242739872E+00  0.45075357844E-01 0.  0.
         14    1    1    2    0    0 -0.82063970391E-02 -0.44304032338E-02  0.85991618301E-02  0.12685385661E-01  0.00000000000E+00 0.  1.
     999901    1    3    3    0    0 -0.72010343147E-01 -0.98777441647E-01  0.25565020729E-01  0.88881721562E+00  0.88000000000E+00 0. -1.
        -11    1    4    4    0    0  0.30040225836E-01  0.64102173601E-01 -0.12618820212E-02  0.70805065468E-01  0.51100000000E-03 0. -1.
         11    1    4    4    0    0  0.50176514351E-01  0.39105671280E-01 -0.32902300538E-01  0.71622333251E-01  0.51100000000E-03 0.  1.
</event>
<event>
 8    1  0.2943605E+004  0.1043930E+01  0.7957747E-01            NaN
         13   -1    0    0    0    0  0.00000000000E+00  0.00000000000E+00  0.74505805969E-08  0.10566000000E+00  0.10566000000E+00 0. -1.
     999900   -1    0    0    0    0 -0.00000000000E+00 -0.00000000000E+00 -0.74505805969E-08  0.93827000000E+00  0.93827000000E+00 0.  1.
     999902    2    1    2    0    0  0.14356071515E-01  0.17434324009E-02  0.30521118661E-02  0.10291498873E+01  0.10290437497E+01 0.  0.
     999903    2    3    3    0    0 -0.99759343765E-01 -0.81808002075E-01  0.14539657856E-01  0.13778288432E+00  0.46132913299E-01 0.  0.
         14    1    1    2    0    0 -0.14356071515E-01 -0.17434324009E-02 -0.30521118661E-02  0.14780112744E-01  0.00000000000E+00 0. -1.
     999901    1    3    3    0    0  0.11411541528E+00  0.83551434476E-01 -0.11487545990E-01  0.89136700293E+00  0.88000000000E+00 0.  1.
        -11    1    4    4    0    0 -0.87606510373E-02  0.48071591458E-02  0.64222524166E-02  0.11889669161E-01  0.51100000000E-03 0.  1.
         11    1    4    4    0    0 -0.90998692728E-01 -0.86615161221E-01  0.81174054396E-02  0.12589321516E+00  0.51100000000E-03 0. -1.
</event>
<event>
 8    1  0.2943605E+004  0.1043930E+01  0.7957747E-01            NaN
         13   -1    0    0    0    0  0.00000000000E+00  0.00000000000E+00  0.74505805969E-08  0.10566000000E+00  0.10566000000E+00 0.  1.
     999900   -1    0    0    0    0 -0.00000000000E+00 -0.00000000000E+00 -0.74505805969E-08  0.93827000000E+00  0.93827000000E+00 0. -1.
     999902    2    1    2    0    0 -0.51716246288E-02  0.44092878607E-02  0.12348548519E-01  0.10298348174E+01  0.10297383537E+01 0.  0.
     999903    2    3    3    0    0 -0.67966441623E-01 -0.89634196809E-01 -0.67851431210E-01  0.13898162932E+00  0.45369043914E-01 0.  0.
         14    1    1    2    0    0  0.51716246288E-02 -0.44092878607E-02 -0.12348548519E-01  0.14095182555E-01  0.00000000000E+00 0. -1.
     999901    1    3    3    0    0  0.62794816995E-01  0.94043484670E-01  0.80199979729E-01  0.89085318813E+00  0.88000000000E+00 0. -1.
        -11    1    4    4    0    0 -0.54315273562E-01 -0.37416263040E-01 -0.47568187304E-01  0.81321087341E-01  0.51100000000E-03 0. -1.
         11    1    4    4    0    0 -0.13651168062E-01 -0.52217933769E-01 -0.20283243906E-01  0.57660541975E-01  0.51100000000E-03 0.  1.
</event>
<event>
 7    1  0.2943605E+004  0.1043930E+01  0.7957747E-01            NaN
         13   -1    0    0    0    0  0.00000000000E+00  0.00000000000E+00  0.74505805969E-08  0.10566000000E+00  0.10566000000E+00 0.  1.
     999900   -1    0    0    0    0 -0.00000000000E+00 -0.00000000000E+00 -0.74505805969E-08  0.93827000000E+00  0.93827000000E+00 0.  1.
     999903    2    1    2    0    0 -0.31862090747E-01  0.19763077913E-02  0.52144741871E-01  0.75767646331E-01  0.44750011246E-01 0.  0.
         14    1    1    2    0    0  0.25905536963E-01  0.11697255587E-01  0.73786843120E-01  0.79072250830E-01  0.00000000000E+00 0.  1.
     999901    1    1    2    0    0  0.59565537833E-02 -0.13673563378E-01 -0.12593158499E+00  0.88909010284E+00  0.88000000000E+00 0.  1.
        -11    1    3    3    0    0 -0.21711907917E-01  0.22496385391E-01  0.23613395316E-01  0.39183515162E-01  0.51100000000E-03 0. -1.
         11    1    3    3    0    0 -0.10150182830E-01 -0.20520077600E-01  0.28531346555E-01  0.36584131169E-01  0.51100000000E-03 0.  1.
</event>
<event>
 8    1  0.2943605E+004  0.1043930E+01  0.7957747E-01            NaN
         13   -1    0    0    0    0  0.00000000000E+00  0.00000000000E+00  0.74505805969E-08  0.10566000000E+00  0.10566000000E+00 0. -1.
     999900   -1    0    0    0    0 -0.00000000000E+00 -0.00000000000E+00 -0.74505805969E-08  0.93827000000E+00  0.93827000000E+00 0. -1.
     999902    2    1    2    0    0  0.13126625312E-01  0.30363781252E-02 -0.48909008967E-02  0.10295965149E+01  0.10294967385E+01 0.  0.
     999903    2    3    3    0    0  0.10533072003E+00 -0.69797165630E-01  0.37609097341E-01  0.14077000198E+00  0.49351234470E-01 0.  0.
         14    1    1    2    0    0 -0.13126625312E-01 -0.30363781252E-02  0.48909008967E-02  0.14333485123E-01  0.00000000000E+00 0.  1.
     999901    1    3    3    0    0 -0.92204094713E-01  0.72833543755E-01 -0.42499998238E-01  0.88882651290E+00  0.88000000000E+00 0. -1.
        -11    1    4    4    0    0 -0.48968263011E-02 -0.74411855755E-02  0.12454351853E-02  0.90090166163E-02  0.51100000000E-03 0.  1.
         11    1    4    4    0    0  0.11022754633E+00 -0.62355980054E-01  0.36363662156E-01  0.13176098536E+00  0.51100000000E-03 0. -1.
</event>
<event>
 8    1  0.2943605E+004  0.1043930E+01  0.7957747E-01            NaN
         13   -1    0    0    0    0  0.00000000000E+00  0.00000000000E+00  0.74505805969E-08  0.10566000000E+00  0.10566000000E+00 0.  1.
     999900   -1    0    0    0    0 -0.00000000000E+00 -0.00000000000E+00 -0.74505805969E-08  0.93827000000E+00  0.93827000000E+00 0.  1.
     999902    2    1    2    0    0 -0.11495671248E-01 -0.70052488541E-02  0.49289437364E-03  0.10304590344E+01  0.10303709792E+01 0.  0.
     999903    2    3    3    0    0  0.14981434340E-02 -0.50900117698E-01 -0.12342879823E+00  0.14059826742E+00  0.44046999369E-01 0.  0.
         14    1    1    2    0    0  0.11495671248E-01  0.70052488541E-02 -0.49289437364E-03  0.13470965586E-01  0.00000000000E+00 0.  1.
     999901    1    3    3    0    0 -0.12993814682E-01  0.43894868844E-01  0.12392169261E+00  0.88986076699E+00  0.88000000000E+00 0. -1.
        -11    1    4    4    0    0 -0.66795478889E-02 -0.14164393023E-01 -0.86363028504E-01  0.87772889910E-01  0.51100000000E-03 0. -1.
         11    1    4    4    0    0  0.81776913230E-02 -0.36735724674E-01 -0.37065769730E-01  0.52825377513E-01  0.51100000000E-03 0.  1.
</event>
<event>
 8    1  0.2943605E+004  0.1043930E+01  0.7957747E-01            NaN
         13   -1    0    0    0    0  0.00000000000E+00  0.00000000000E+00  0.74505805969E-08  0.10566000000E+00  0.10566000000E+00 0.  1.
     999900   -1    0    0    0    0 -0.00000000000E+00 -0.00000000000E+00 -0.74505805969E-08  0.93827000000E+00  0.93827000000E+00 0.  1.
     999902    2    1    2    0    0 -0.52076915154E-02 -0.51028674994E-03 -0.13607050090E-01  0.10293515139E+01  0.10292482728E+01 0.  0.
     999903    2    3    3    0    0 -0.67238929512E-01 -0.10051946834E+00  0.52575769831E-01  0.13905388026E+00  0.44119529532E-01 0.  0.
         14    1    1    2    0    0  0.52076915154E-02  0.51028674994E-03  0.13607050090E-01  0.14578486054E-01  0.00000000000E+00 0.  1.
     999901    1    3    3    0    0  0.62031237997E-01  0.10000918159E+00 -0.66182819921E-01  0.89029763368E+00  0.88000000000E+00 0.  1.
        -11    1    4    4    0    0 -0.48136430866E-01 -0.35376344319E-01  0.33703390362E-01  0.68591408768E-01  0.51100000000E-03 0. -1.
         11    1    4    4    0    0 -0.19102498646E-01 -0.65143124017E-01  0.18872379469E-01  0.70462471494E-01  0.51100000000E-03 0.  1.
</event>
<event>
 8    1  0.2943605E+004  0.1043930E+01  0.7957747E-01            NaN
         13   -1    0    0    0    0  0.00000000000E+00  0.00000000000E+00  0.74505805969E-08  0.10566000000E+00  0.10566000000E+00 0.  1.
     999900   -1    0    0    0    0 -0.00000000000E+00 -0.00000000000E+00 -0.74505805969E-08  0.93827000000E+00  0.93827000000E+00 0.  1.
     999902    2    1    2    0    0  0.11869823768E-01 -0.60481603052E-02  0.69359029806E-02  0.10289106888E+01  0.10288010623E+01 0.  0.
     999903    2    3    3    0    0  0.74090358079E-01 -0.29883115947E-01 -0.10469439276E+00  0.13935977797E+00  0.45583440642E-01 0.  0.
         14    1    1    2    0    0 -0.11869823768E-01  0.60481603052E-02 -0.69359029806E-02  0.15019311220E-01  0.00000000000E+00 0. -1.
     999901    1    3    3    0    0 -0.62220534311E-01  0.23834955641E-01  0.11163029574E+00  0.88955091081E+00  0.88000000000E+00 0. -1.
        -11    1    4    4    0    0  0.87170640589E-02 -0.19479725876E-01 -0.93914796887E-02  0.23321833928E-01  0.51100000000E-03 0.  1.
         11    1    4    4    0    0  0.65373294020E-01 -0.10403390070E-01 -0.95302913071E-01  0.11603794404E+00  0.51100000000E-03 0. -1.
</event>
<event>
 8    1  0.2943605E+004  0.1043930E+01  0.7957747E-01            NaN
         13   -1    0    0    0    0  0.00000000000E+00  0.00000000000E+00  0.74505805969E-08  0.10566000000E+00  0.10566000000E+00 0.  1.
     999900   -1    0    0    0    0 -0.00000000000E+00 -0.00000000000E+00 -0.74505805969E-08  0.93827000000E+00  0.93827000000E+00 0. -1.
     999902    2    1    2    0    0  0.12143178682E-01 -0.14209084230E-03  0.63372719223E-02  0.10302318982E+01  0.10301408282E+01 0.  0.
     999903    2    3    3    0    0 -0.12097691234E+00 -0.18790602733E-01  0.48246835084E-01  0.13903880062E+00  0.44894664643E-01 0.  0.
         14    1    1    2    0    0 -0.12143178682E-01  0.14209084230E-03 -0.63372719223E-02  0.13698101829E-01  0.00000000000E+00 0. -1.
     999901    1    3    3    0    0  0.13312009102E+00  0.18648511891E-01 -0.41909563161E-01  0.89119309755E+00  0.88000000000E+00 0.  1.
        -11    1    4    4    0    0 -0.19392617150E-01 -0.18633994469E-01  0.77970290852E-03  0.26910377318E-01  0.51100000000E-03 0. -1.
         11    1    4    4    0    0 -0.10158429519E+00 -0.15660826400E-03  0.47467132175E-01  0.11212842331E+00  0.51100000000E-03 0.  1.
</event>
<event>
 8    1  0.2943605E+004  0.1043930E+01  0.7957747E-01            NaN
         13   -1    0    0    0    0  0.00000000000E+00  0.00000000000E+00  0.74505805969E-08  0.10566000000E+00  0.10566000000E+00 0. -1.
     999900   -1    0    0    0    0 -0.00000000000E+00 -0.00000000000E+00 -0.74505805969E-08  0.93827000000E+00  0.93827000000E+00 0.  1.
     999902    2    1    2    0    0 -0.52987899031E-05 -0.12858660241E-01  0.34139260241E-02  0.10306258630E+01  0.10305399892E+01 0.  0.
     999903    2    3    3    0    0  0.10006429310E+00  0.38250227203E-01  0.78643434864E-01  0.14029697958E+00  0.44972324781E-01 0.  0.
         14    1    1    2    0    0  0.52987899031E-05  0.12858660241E-01 -0.34139260241E-02  0.13304137032E-01  0.00000000000E+00 0. -1.
     999901    1    3    3    0    0 -0.10006959189E+00 -0.51108887445E-01 -0.75229508840E-01  0.89032888339E+00  0.88000000000E+00 0.  1.
        -11    1    4    4    0    0  0.41827375364E-01  0.34392085010E-01  0.20477865733E-01  0.57896018405E-01  0.51100000000E-03 0.  1.
         11    1    4    4    0    0  0.58236917740E-01  0.38581421936E-02  0.58165569131E-01  0.82400961174E-01  0.51100000000E-03 0. -1.
</event>
<event>
 8    1  0.2943605E+004  0.1043930E+01  0.7957747E-01            NaN
         13   -1    0    0    0    0  0.00000000000E+00  0.00000000000E+00  0.74505805969E-08  0.10566000000E+00  0.10566000000E+00 0.  1.
     999900   -1    0    0    0    0 -0.00000000000E+00 -0.00000000000E+00 -0.74505805969E-08  0.93827000000E+00  0.93827000000E+00 0. -1.
     999902    2    1    2    0    0  0.15951265292E-02  0.45824637349E-02 -0.12368397003E-01  0.10306438927E+01  0.10305582531E+01 0.  0.
     999903    2    3    3    0    0 -0.58456181767E-01 -0.73931225052E-01  0.91589074479E-01  0.13902866469E+00  0.45359230787E-01 0.  0.
         14    1    1    2    0    0 -0.15951265292E-02 -0.45824637349E-02  0.12368397003E-01  0.13286107291E-01  0.00000000000E+00 0.  1.
     999901    1    3    3    0    0  0.60051308297E-01  0.78513688787E-01 -0.10395747148E+00  0.89161522802E+00  0.88000000000E+00 0. -1.
        -11    1    4    4    0    0 -0.15917400424E-01 -0.21977922966E-01  0.22031480380E-02  0.27230639296E-01  0.51100000000E-03 0.  1.
         11    1    4    4    0    0 -0.42538781344E-01 -0.51953302086E-01  0.89385926441E-01  0.11179802540E+00  0.51100000000E-03 0. -1.
</event>
<event>
 8    1  0.2943605E+004  0.1043930E+01  0.7957747E-01            NaN
         13   -1    0    0    0    0  0.00000000000E+00  0.00000000000E+00  0.74505805969E-08  0.10566000000E+00  0.10566000000E+00 0.  1.
     999900   -1    0    0    0    0 -0.00000000000E+00 -0.00000000000E+00 -0.74505805969E-08  0.93827000000E+00  0.93827000000E+00 0.  1.
     999902    2    1    2    0    0 -0.39428122613E-02  0.13304730629E-01 -0.18435037977E-02  0.10299314239E+01  0.10298362869E+01 0.  0.
     999903    2    3    3    0    0 -0.13889421533E-01  0.76615983017E-01 -0.10786449852E+00  0.14125392279E+00  0.47486795843E-01 0.  0.
         14    1    1    2    0    0  0.39428122613E-02 -0.13304730629E-01  0.18435037977E-02  0.13998576066E-01  0.00000000000E+00 0.  1.
     999901    1    3    3    0    0  0.99466092721E-02 -0.63311252389E-01  0.10602099472E+00  0.88867750114E+00  0.88000000000E+00 0. -1.
        -11    1    4    4    0    0 -0.20017585907E-01  0.49744234548E-01 -0.98482000347E-01  0.11213455368E+00  0.51100000000E-03 0. -1.
         11    1    4    4    0    0  0.61281643736E-02  0.26871748469E-01 -0.93824981699E-02  0.29119369108E-01  0.51100000000E-03 0.  1.
</event>
<event>
 8    1  0.2943605E+004  0.1043930E+01  0.7957747E-01            NaN
         13   -1    0    0    0    0  0.00000000000E+00  0.00000000000E+00  0.74505805969E-08  0.10566000000E+00  0.10566000000E+00 0. -1.
     999900   -1    0    0    0    0 -0.00000000000E+00 -0.00000000000E+00 -0.74505805969E-08  0.93827000000E+00  0.93827000000E+00 0.  1.
     999902    2    1    2    0    0  0.92955312416E-02 -0.96659241603E-02  0.52859462069E-02  0.10295154858E+01  0.10294145702E+01 0.  0.
     999903    2    3    3    0    0 -0.12153313380E+00 -0.34381974371E-01  0.38664757330E-01  0.13887461110E+00  0.42880897582E-01 0.  0.
         14    1    1    2    0    0 -0.92955312416E-02  0.96659241603E-02 -0.52859462069E-02  0.14414514152E-01  0.00000000000E+00 0. -1.
     999901    1    3    3    0    0  0.13082866504E+00  0.24716050211E-01 -0.33378811123E-01  0.89064087474E+00  0.88000000000E+00 0.  1.
        -11    1    4    4    0    0 -0.14032725589E-01 -0.82133367955E-03  0.20408100441E-01  0.24785956933E-01  0.51100000000E-03 0. -1.
         11    1    4    4    0    0 -0.10750040821E+00 -0.33560640692E-01  0.18256656889E-01  0.11408865417E+00  0.51100000000E-03 0.  1.
</event>
<event>
 8    1  0.2943605E+004  0.1043930E+01  0.7957747E-01            NaN
         13   -1    0    0    0    0  0.00000000000E+00  0.00000000000E+00  0.74505805969E-08  0.10566000000E+00  0.10566000000E+00 0. -1.
     999900   -1    0    0    0    0 -0.00000000000E+00 -0.00000000000E+00 -0.74505805969E-08  0.93827000000E+00  0.93827000000E+00 0.  1.
     999902    2    1    2    0    0 -0.36881348075E-02  0.12876723362E-01 -0.24755087045E-02  0.10303086753E+01  0.10302186302E+01 0.  0.
     999903    2    3    3    0    0  0.11209371242E-02  0.13224857352E+00 -0.25577991760E-01  0.14193572969E+00  0.44727798998E-01 0.  0.
         14    1    1    2    0    0  0.36881348075E-02 -0.12876723362E-01  0.24755087045E-02  0.13621324687E-01  0.00000000000E+00 0. -1.
     999901    1    3    3    0    0 -0.48090719318E-02 -0.11937185016E+00  0.23102483056E-01  0.88837294562E+00  0.88000000000E+00 0.  1.
        -11    1    4    4    0    0 -0.14330105533E-01  0.29491443762E-01 -0.18804446181E-01  0.37801659976E-01  0.51100000000E-03 0. -1.
         11    1    4    4    0    0  0.15451042658E-01  0.10275712976E+00 -0.67735455789E-02  0.10413406972E+00  0.51100000000E-03 0.  1.
</event>
<event>
 8    1  0.2943605E+004  0.1043930E+01  0.7957747E-01            NaN
         13   -1    0    0    0    0  0.00000000000E+00  0.00000000000E+00  0.74505805969E-08  0.10566000000E+00  0.10566000000E+00 0. -1.
     999900   -1    0    0    0    0 -0.00000000000E+00 -0.00000000000E+00 -0.74505805969E-08  0.93827000000E+00  0.93827000000E+00 0.  1.
     999902    2    1    2    0    0  0.15571432142E-01 -0.14812962710E-01 -0.28058836587E-02  0.10222559061E+01  0.10220261108E+01 0.  0.
     999903    2    3    3    0    0 -0.43354909372E-01 -0.11706947359E+00 -0.18768812506E-01  0.13423365253E+00  0.45623407745E-01 0.  0.
         14    1    1    2    0    0 -0.15571432142E-01  0.14812962710E-01  0.28058836587E-02  0.21674093898E-01  0.00000000000E+00 0. -1.
     999901    1    3    3    0    0  0.58926341514E-01  0.10225651088E+00  0.15962928847E-01  0.88802225357E+00  0.88000000000E+00 0. -1.
        -11    1    4    4    0    0 -0.29414690068E-01 -0.74152153265E-01 -0.33840808383E-01  0.86655797606E-01  0.51100000000E-03 0.  1.
         11    1    4    4    0    0 -0.13940219304E-01 -0.42917320329E-01  0.15071995876E-01  0.47577854924E-01  0.51100000000E-03 0. -1.
</event>
<event>
 8    1  0.2943605E+004  0.1043930E+01  0.7957747E-01            NaN
         13   -1    0    0    0    0  0.00000000000E+00  0.00000000000E+00  0.74505805969E-08  0.10566000000E+00  0.10566000000E+00 0. -1.
     999900   -1    0    0    0    0 -0.00000000000E+00 -0.00000000000E+00 -0.74505805969E-08  0.93827000000E+00  0.93827000000E+00 0.  1.
     999902    2    1    2    0    0 -0.70332005547E-02  0.87509268676E-02  0.82799957352E-02  0.10299799835E+01  0.10298855099E+01 0.  0.
     999903    2    3    3    0    0  0.87559853521E-01 -0.95391326368E-01  0.21993249016E-01  0.13869915901E+00  0.44581617421E-01 0.  0.
         14    1    1    2    0    0  0.70332005547E-02 -0.87509268676E-02 -0.82799957352E-02  0.13950016504E-01  0.00000000000E+00 0. -1.
     999901    1    3    3    0    0 -0.94593054076E-01  0.10414225324E+00 -0.13713253281E-01  0.89128082449E+00  0.88000000000E+00 0. -1.
        -11    1    4    4    0    0  0.50431920898E-01 -0.22678810341E-01  0.86540257799E-02  0.55971960544E-01  0.51100000000E-03 0. -1.
         11    1    4    4    0    0  0.37127932623E-01 -0.72712516027E-01  0.13339223236E-01  0.82727198462E-01  0.51100000000E-03 0.  1.
</event>
<event>
 8    1  0.2943605E+004  0.1043930E+01  0.7957747E-01            NaN
         13   -1    0    0    0    0  0.00000000000E+00  0.00000000000E+00  0.74505805969E-08  0.10566000000E+00  0.10566000000E+00 0. -1.
     999900   -1    0    0    0    0 -0.00000000000E+00 -0.00000000000E+00 -0.74505805969E-08  0.93827000000E+00  0.93827000000E+00 0.  1.
     999902    2    1    2    0    0 -0.36769593963E-02  0.36508175540E-02 -0.13272762807E-01  0.10296816762E+01  0.10295830902E+01 0.  0.
     999903    2    3    3    0    0 -0.17756490624E-01  0.12760768562E+00  0.31094369379E-01  0.13977607402E+00  0.44401313848E-01 0.  0.
         14    1    1    2    0    0  0.36769593963E-02 -0.36508175540E-02  0.13272762807E-01  0.14248323822E-01  0.00000000000E+00 0. -1.
     999901    1    3    3    0    0  0.14079531227E-01 -0.12395686807E+00 -0.44367132187E-01  0.88990560216E+00  0.88000000000E+00 0.  1.
        -11    1    4    4    0    0 -0.26386595905E-01  0.40134475802E-01  0.15727977024E-01  0.50543634353E-01  0.51100000000E-03 0. -1.
         11    1    4    4    0    0  0.86301052812E-02  0.87473209818E-01  0.15366392355E-01  0.89232439662E-01  0.51100000000E-03 0.  1.
</event>
<event>
 8    1  0.2943605E+004  0.1043930E+01  0.7957747E-01            NaN
         13   -1    0    0    0    0  0.00000000000E+00  0.00000000000E+00  0.74505805969E-08  0.10566000000E+00  0.10566000000E+00 0.  1.
     999900   -1    0    0    0    0 -0.00000000000E+00 -0.00000000000E+00 -0.74505805969E-08  0.93827000000E+00  0.93827000000E+00 0. -1.
     999902    2    1    2    0    0  0.13599138775E-01  0.16240702515E-02  0.19294168464E-02  0.10300989903E+01  0.10300061325E+01 0.  0.
     999903    2    3    3    0    0 -0.79827977557E-01  0.29317304740E-01  0.10052538594E+00  0.13924731555E+00  0.45303987814E-01 0.  0.
         14    1    1    2    0    0 -0.13599138775E-01 -0.16240702515E-02 -0.19294168464E-02  0.13831009687E-01  0.00000000000E+00 0. -1.
     999901    1    3    3    0    0  0.93427116332E-01 -0.27693234488E-01 -0.98595969095E-01  0.89085167476E+00  0.88000000000E+00 0. -1.
        -11    1    4    4    0    0 -0.15603091794E-01 -0.47832777552E-02  0.44648374255E-01  0.47540242577E-01  0.51100000000E-03 0. -1.
         11    1    4    4    0    0 -0.64224885763E-01  0.34100582495E-01  0.55877011686E-01  0.91707072976E-01  0.51100000000E-03 0.  1.
</event>
<event>
 8    1  0.2943605E+004  0.1043930E+01  0.7957747E-01            NaN
         13   -1    0    0    0    0  0.00000000000E+00  0.00000000000E+00  0.74505805969E-08  0.10566000000E+00  0.10566000000E+00 0. -1.
     999900   -1    0    0    0    0 -0.00000000000E+00 -0.00000000000E+00 -0.74505805969E-08  0.93827000000E+00  0.93827000000E+00 0.  1.
     999902    2    1    2    0    0 -0.35630446102E-02  0.12900410727E-01 -0.51523271658E-02  0.10295890670E+01  0.10294891862E+01 0.  0.
     999903    2    3    3    0    0 -0.31727505696E-02  0.10850684904E+00  0.77026846311E-01  0.14060416279E+00  0.45305550512E-01 0.  0.
         14    1    1    2    0    0  0.35630446102E-02 -0.12900410727E-01  0.51523271658E-02  0.14340932990E-01  0.00000000000E+00 0. -1.
     999901    1    3    3    0    0 -0.39029404064E-03 -0.95606438311E-01 -0.82179173477E-01  0.88898490422E+00  0.88000000000E+00 0.  1.
        -11    1    4    4    0    0  0.72924204457E-02  0.10154469037E+00  0.56244075273E-01  0.11631062145E+00  0.51100000000E-03 0. -1.
         11    1    4    4    0    0 -0.10465171015E-01  0.69621586656E-02  0.20782771038E-01  0.24293541337E-01  0.51100000000E-03 0.  1.
</event>
<event>
 8    1  0.2943605E+004  0.1043930E+01  0.7957747E-01            NaN
         13   -1    0    0    0    0  0.00000000000E+00  0.00000000000E+00  0.74505805969E-08  0.10566000000E+00  0.10566000000E+00 0. -1.
     999900   -1    0    0    0    0 -0.00000000000E+00 -0.00000000000E+00 -0.74505805969E-08  0.93827000000E+00  0.93827000000E+00 0.  1.
     999902    2    1    2    0    0 -0.19482756751E-02  0.74615702570E-02  0.11568107279E-01  0.10300270537E+01  0.10299332209E+01 0.  0.
     999903    2    3    3    0    0  0.45897051530E-01 -0.30350315056E-01  0.12200594055E+00  0.14103018702E+00  0.44456531107E-01 0.  0.
         14    1    1    2    0    0  0.19482756751E-02 -0.74615702570E-02 -0.11568107279E-01  0.13902946264E-01  0.00000000000E+00 0.  1.
     999901    1    3    3    0    0 -0.47845327205E-01  0.37811885313E-01 -0.11043783328E+00  0.88899686671E+00  0.88000000000E+00 0.  1.
        -11    1    4    4    0    0  0.33304833663E-01  0.13485501486E-02  0.39107704675E-01  0.51387782777E-01  0.51100000000E-03 0. -1.
         11    1    4    4    0    0  0.12592217867E-01 -0.31698865204E-01  0.82898235879E-01  0.89642404246E-01  0.51100000000E-03 0.  1.
</event>
<event>
 8    1  0.2943605E+004  0.1043930E+01  0.7957747E-01            NaN
         13   -1    0    0    0    0  0.00000000000E+00  0.00000000000E+00  0.74505805969E-08  0.10566000000E+00  0.10566000000E+00 0. -1.
     999900   -1    0    0    0    0 -0.00000000000E+00 -0.00000000000E+00 -0.74505805969E-08  0.93827000000E+00  0.93827000000E+00 0. -1.
     999902    2    1    2    0    0  0.43755838210E-02 -0.58434511489E-02 -0.68023377096E-02  0.10339518512E+01  0.10339037030E+01 0.  0.
     999903    2    3    3    0    0 -0.48810548978E-01 -0.28640958532E-01  0.12280626641E+00  0.14257825875E+00  0.45215114747E-01 0.  0.
         14    1    1    2    0    0 -0.43755838210E-02  0.58434511489E-02  0.68023377096E-02  0.99781487972E-02  0.00000000000E+00 0. -1.
     999901    1    3    3    0    0  0.53186132799E-01  0.22797507383E-01 -0.12960860412E+00  0.89137359245E+00  0.88000000000E+00 0. -1.
        -11    1    4    4    0    0 -0.31585204055E-01  0.33414407998E-02  0.82028779277E-01  0.87964607045E-01  0.51100000000E-03 0. -1.
         11    1    4    4    0    0 -0.17225344924E-01 -0.31982399332E-01  0.40777487130E-01  0.54613651703E-01  0.51100000000E-03 0.  1.
</event>
<event>
 8    1  0.2943605E+004  0.1043930E+01  0.7957747E-01            NaN
         13   -1    0    0    0    0  0.00000000000E+00  0.00000000000E+00  0.74505805969E-08  0.10566000000E+00  0.10566000000E+00 0. -1.
     999900   -1    0    0    0    0 -0.00000000000E+00 -0.00000000000E+00 -0.74505805969E-08  0.93827000000E+00  0.93827000000E+00 0. -1.
     999902    2    1    2    0    0  0.10801305155E-01  0.34106964236E-02 -0.70565520749E-02  0.10305847398E+01  0.10304983309E+01 0.  0.
     999903    2    3    3    0    0  0.12163327790E+00  0.48575269282E-01 -0.32842623406E-01  0.14210936798E+00  0.44296991718E-01 0.  0.
         14    1    1    2    0    0 -0.10801305155E-01 -0.34106964236E-02  0.70565520749E-02  0.13345260220E-01  0.00000000000E+00 0. -1.
     999901    1    3    3    0    0 -0.11083197275E+00 -0.45164572858E-01  0.25786071331E-01  0.88847537180E+00  0.88000000000E+00 0.  1.
        -11    1    4    4    0    0  0.39755532717E-01  0.39143553832E-01 -0.11435799544E-01  0.56954006184E-01  0.51100000000E-03 0.  1.
         11    1    4    4    0    0  0.81877745188E-01  0.94317154497E-02 -0.21406823861E-01  0.85155361793E-01  0.51100000000E-03 0. -1.
</event>
<event>
 8    1  0.2943605E+004  0.1043930E+01  0.7957747E-01            NaN
         13   -1    0    0    0    0  0.00000000000E+00  0.00000000000E+00  0.74505805969E-08  0.10566000000E+00  0.10566000000E+00 0. -1.
     999900   -1    0    0    0    0 -0.00000000000E+00 -0.00000000000E+00 -0.74505805969E-08  0.93827000000E+00  0.93827000000E+00 0. -1.
     999902    2    1    2    0    0  0.32847184471E-02 -0.72981379173E-02 -0.10503644890E-01  0.10307247454E+01  0.10306401516E+01 0.  0.
     999903    2    3    3    0    0 -0.59968945930E-01 -0.21996914726E-01 -0.11844558423E+00  0.14175424965E+00  0.44550781551E-01 0.  0.
         14    1    1    2    0    0 -0.32847184471E-02  0.72981379173E-02  0.10503644890E-01  0.13205254572E-01  0.00000000000E+00 0. -1.
     999901    1    3    3    0    0  0.63253664377E-01  0.14698776809E-01  0.10794193934E+00  0.88897049578E+00  0.88000000000E+00 0.  1.
        -11    1    4    4    0    0 -0.53506691599E-01  0.12207630898E-02 -0.86764004757E-01  0.10194464160E+00  0.51100000000E-03 0. -1.
         11    1    4    4    0    0 -0.64622543308E-02 -0.23217677816E-01 -0.31681579473E-01  0.39809608050E-01  0.51100000000E-03 0.  1.
</event>
<event>
 8    1  0.2943605E+004  0.1043930E+01  0.7957747E-01            NaN
         13   -1    0    0    0    0  0.00000000000E+00  0.00000000000E+00  0.74505805969E-08  0.10566000000E+00  0.10566000000E+00 0. -1.
     999900   -1    0    0    0    0 -0.00000000000E+00 -0.00000000000E+00 -0.74505805969E-08  0.93827000000E+00  0.93827000000E+00 0. -1.
     999902    2    1    2    0    0  0.56684615496E-02 -0.10727805196E-01  0.97538716449E-02  0.10283622361E+01  0.10282443938E+01 0.  0.
     999903    2    3    3    0    0  0.12932931205E+00 -0.29715401505E-02  0.26395835965E-01  0.13952641292E+00  0.45121821122E-01 0.  0.
         14    1    1    2    0    0 -0.56684615496E-02  0.10727805196E-01 -0.97538716449E-02  0.15567763896E-01  0.00000000000E+00 0.  1.
     999901    1    3    3    0    0 -0.12366085050E+00 -0.77562650454E-02 -0.16641964320E-01  0.88883582318E+00  0.88000000000E+00 0. -1.
        -11    1    4    4    0    0  0.48470121536E-01 -0.26793774400E-02  0.32521768474E-01  0.58433366246E-01  0.51100000000E-03 0.  1.
         11    1    4    4    0    0  0.80859190511E-01 -0.29216271052E-03 -0.61259325095E-02  0.81093046677E-01  0.51100000000E-03 0. -1.
</event>
<event>
 8    1  0.2943605E+004  0.1043930E+01  0.7957747E-01            NaN
         13   -1    0    0    0    0  0.00000000000E+00  0.00000000000E+00  0.74505805969E-08  0.10566000000E+00  0.10566000000E+00 0. -1.
     999900   -1    0    0    0    0 -0.00000000000E+00 -0.00000000000E+00 -0.74505805969E-08  0.93827000000E+00  0.93827000000E+00 0. -1.
     999902    2    1    2    0    0  0.13462769404E-01  0.23684509587E-02  0.14088758358E-02  0.10301880696E+01  0.10300964120E+01 0.  0.
     999903    2    3    3    0    0 -0.39680606123E-01 -0.72709666663E-01  0.10333811149E+00  0.13954194953E+00  0.43953887930E-01 0.  0.
         14    1    1    2    0    0 -0.13462769404E-01 -0.23684509587E-02 -0.14088758358E-02  0.13741930399E-01  0.00000000000E+00 0. -1.
     999901    1    3    3    0    0  0.53143375527E-01  0.75078117622E-01 -0.10192923566E+00  0.89064612007E+00  0.88000000000E+00 0. -1.
        -11    1    4    4    0    0 -0.37330990699E-01 -0.32858234667E-01  0.36511528129E-01  0.61697805952E-01  0.51100000000E-03 0.  1.
         11    1    4    4    0    0 -0.23496154234E-02 -0.39851431997E-01  0.66826583365E-01  0.77844143582E-01  0.51100000000E-03 0. -1.
</event>
<event>
 8    1  0.2943605E+004  0.1043930E+01  0.7957747E-01            NaN
         13   -1    0    0    0    0  0.00000000000E+00  0.00000000000E+00  0.74505805969E-08  0.10566000000E+00  0.10566000000E+00 0. -1.
     999900   -1    0    0    0    0 -0.00000000000E+00 -0.00000000000E+00 -0.74505805969E-08  0.93827000000E+00  0.93827000000E+00 0. -1.
     999902    2    1    2    0    0  0.13260991715E-01 -0.64109165081E-02  0.11758062685E-02  0.10291537937E+01  0.10290477126E+01 0.  0.
     999903    2    3    3    0    0  0.50494718243E-01  0.42053476999E-02 -0.12215612026E+00  0.13971024882E+00  0.45049244032E-01 0.  0.
         14    1    1    2    0    0 -0.13260991715E-01  0.64109165081E-02 -0.11758062685E-02  0.14776206284E-01  0.00000000000E+00 0.  1.
     999901    1    3    3    0    0 -0.37233726527E-01 -0.10616264208E-01  0.12333192653E+00  0.88944354490E+00  0.88000000000E+00 0.  1.
        -11    1    4    4    0    0  0.14675065913E-01  0.22926295109E-01 -0.53838685028E-01  0.60331067399E-01  0.51100000000E-03 0. -1.
         11    1    4    4    0    0  0.35819652330E-01 -0.18720947409E-01 -0.68317435235E-01  0.79379181421E-01  0.51100000000E-03 0.  1.
</event>
<event>
 8    1  0.2943605E+004  0.1043930E+01  0.7957747E-01            NaN
         13   -1    0    0    0    0  0.00000000000E+00  0.00000000000E+00  0.74505805969E-08  0.10566000000E+00  0.10566000000E+00 0. -1.
     999900   -1    0    0    0    0 -0.00000000000E+00 -0.00000000000E+00 -0.74505805969E-08  0.93827000000E+00  0.93827000000E+00 0.  1.
     999902    2    1    2    0    0 -0.51375287105E-02  0.36522524541E-02  0.99231455353E-02  0.10321740668E+01  0.10321071176E+01 0.  0.
     999903    2    3    3    0    0  0.11921535130E+00  0.59603977669E-01 -0.13922497585E-01  0.14135262055E+00  0.44964355394E-01 0.  0.
         14    1    1    2    0    0  0.51375287105E-02 -0.36522524541E-02 -0.99231455353E-02  0.11755933249E-01  0.00000000000E+00 0.  1.
     999901    1    3    3    0    0 -0.12435288001E+00 -0.55951725215E-01  0.23845643120E-01  0.89082144620E+00  0.88000000000E+00 0. -1.
        -11    1    4    4    0    0  0.80202352885E-01  0.54923861501E-01  0.58088945628E-02  0.97380965016E-01  0.51100000000E-03 0. -1.
         11    1    4    4    0    0  0.39012998419E-01  0.46801161671E-02 -0.19731392148E-01  0.43971655530E-01  0.51100000000E-03 0.  1.
</event>
<event>
 8    1  0.2943605E+004  0.1043930E+01  0.7957747E-01            NaN
         13   -1    0    0    0    0  0.00000000000E+00  0.00000000000E+00  0.74505805969E-08  0.10566000000E+00  0.10566000000E+00 0. -1.
     999900   -1    0    0    0    0 -0.00000000000E+00 -0.00000000000E+00 -0.74505805969E-08  0.93827000000E+00  0.93827000000E+00 0. -1.
     999902    2    1    2    0    0  0.61790591508E-02  0.48746157626E-02  0.11856523604E-01  0.10296990547E+01  0.10296007107E+01 0.  0.
     999903    2    3    3    0    0  0.49474671836E-01  0.74684259834E-01 -0.96554954961E-01  0.13924919924E+00  0.45188475763E-01 0.  0.
         14    1    1    2    0    0 -0.61790591508E-02 -0.48746157626E-02 -0.11856523604E-01  0.14230945253E-01  0.00000000000E+00 0.  1.
     999901    1    3    3    0    0 -0.43295612686E-01 -0.69809644071E-01  0.10841147857E+00  0.89044985550E+00  0.88000000000E+00 0.  1.
        -11    1    4    4    0    0  0.57602644881E-02  0.19368193888E-01 -0.52137561398E-01  0.55918637420E-01  0.51100000000E-03 0. -1.
         11    1    4    4    0    0  0.43714407348E-01  0.55316065946E-01 -0.44417393564E-01  0.83330561822E-01  0.51100000000E-03 0.  1.
</event>
<event>
 8    1  0.2943605E+004  0.1043930E+01  0.7957747E-01            NaN
         13   -1    0    0    0    0  0.00000000000E+00  0.00000000000E+00  0.74505805969E-08  0.10566000000E+00  0.10566000000E+00 0. -1.
     999900   -1    0    0    0    0 -0.00000000000E+00 -0.00000000000E+00 -0.74505805969E-08  0.93827000000E+00  0.93827000000E+00 0.  1.
     999902    2    1    2    0    0  0.10798316400E-01 -0.29343490485E-02  0.75488122149E-02  0.10304319036E+01  0.10303434909E+01 0.  0.
     999903    2    3    3    0    0 -0.12341799792E+00 -0.30005890159E-01  0.36115909556E-01  0.13938590789E+00  0.44628653791E-01 0.  0.
         14    1    1    2    0    0 -0.10798316400E-01  0.29343490485E-02 -0.75488122149E-02  0.13498096431E-01  0.00000000000E+00 0. -1.
     999901    1    3    3    0    0  0.13421631432E+00  0.27071541111E-01 -0.28567097341E-01  0.89104599568E+00  0.88000000000E+00 0.  1.
        -11    1    4    4    0    0 -0.10049880054E+00 -0.36930501643E-01  0.16303470695E-01  0.10830482510E+00  0.51100000000E-03 0. -1.
         11    1    4    4    0    0 -0.22919197383E-01  0.69246114836E-02  0.19812438860E-01  0.31081082791E-01  0.51100000000E-03 0.  1.
</event>
<event>
 8    1  0.2943605E+004  0.1043930E+01  0.7957747E-01            NaN
         13   -1    0    0    0    0  0.00000000000E+00  0.00000000000E+00  0.74505805969E-08  0.10566000000E+00  0.10566000000E+00 0.  1.
     999900   -1    0    0    0    0 -0.00000000000E+00 -0.00000000000E+00 -0.74505805969E-08  0.93827000000E+00  0.93827000000E+00 0. -1.
     999902    2    1    2    0    0  0.75184143929E-02  0.10368782819E-01  0.59681238765E-02  0.10298000066E+01  0.10297030624E+01 0.  0.
     999903    2    3    3    0    0 -0.26785757211E-01  0.13014465174E+00 -0.10992198922E-01  0.14086205174E+00  0.45455274921E-01 0.  0.
         14    1    1    2    0    0 -0.75184143929E-02 -0.10368782819E-01 -0.59681238765E-02  0.14129993444E-01  0.00000000000E+00 0.  1.
     999901    1    3    3    0    0  0.34304171604E-01 -0.11977586892E+00  0.16960322799E-01  0.88893795482E+00  0.88000000000E+00 0. -1.
        -11    1    4    4    0    0  0.28881115562E-02  0.26175264479E-01  0.14086579564E-01  0.29869357270E-01  0.51100000000E-03 0. -1.
         11    1    4    4    0    0 -0.29673868767E-01  0.10396938726E+00 -0.25078778486E-01  0.11099269447E+00  0.51100000000E-03 0.  1.
</event>
<event>
 8    1  0.2943605E+004  0.1043930E+01  0.7957747E-01            NaN
         13   -1    0    0    0    0  0.00000000000E+00  0.00000000000E+00  0.74505805969E-08  0.10566000000E+00  0.10566000000E+00 0. -1.
     999900   -1    0    0    0    0 -0.00000000000E+00 -0.00000000000E+00 -0.74505805969E-08  0.93827000000E+00  0.93827000000E+00 0.  1.
     999902    2    1    2    0    0  0.13130741485E-01 -0.62681665343E-02  0.21559014752E-02  0.10292210165E+01  0.10291159054E+01 0.  0.
     999903    2    3    3    0    0  0.18388794395E-01  0.94718122816E-01  0.89776036445E-01  0.13910688575E+00  0.44512002808E-01 0.  0.
         14    1    1    2    0    0 -0.13130741485E-01  0.62681665343E-02 -0.21559014752E-02  0.14708983474E-01  0.00000000000E+00 0. -1.
     999901    1    3    3    0    0 -0.52580529099E-02 -0.10098628935E+00 -0.87620134969E-01  0.89011413078E+00  0.88000000000E+00 0.  1.
        -11    1    4    4    0    0  0.31621954111E-01  0.48779949270E-01  0.43910873330E-01  0.72855043409E-01  0.51100000000E-03 0.  1.
         11    1    4    4    0    0 -0.13233159716E-01  0.45938173547E-01  0.45865163115E-01  0.66251842340E-01  0.51100000000E-03 0. -1.
</event>
<event>
 8    1  0.2943605E+004  0.1043930E+01  0.7957747E-01            NaN
         13   -1    0    0    0    0  0.00000000000E+00  0.00000000000E+00  0.74505805969E-08  0.10566000000E+00  0.10566000000E+00 0.  1.
     999900   -1    0    0    0    0 -0.00000000000E+00 -0.00000000000E+00 -0.74505805969E-08  0.93827000000E+00  0.93827000000E+00 0. -1.
     999902    2    1    2    0    0 -0.66016697452E-02 -0.11714588506E-01  0.28688305645E-02  0.10301806794E+01  0.10300889226E+01 0.  0.
     999903    2    3    3    0    0 -0.69527438187E-01 -0.70490596867E-01  0.90803213514E-01  0.14161626016E+00  0.44799025092E-01 0.  0.
         14    1    1    2    0    0  0.66016697452E-02  0.11714588506E-01 -0.28688305645E-02  0.13749320569E-01  0.00000000000E+00 0.  1.
     999901    1    3    3    0    0  0.62925768442E-01  0.58776008361E-01 -0.87934382949E-01  0.88856441927E+00  0.88000000000E+00 0.  1.
        -11    1    4    4    0    0  0.52624282313E-02 -0.13923946375E-01  0.12940351145E-01  0.19730262094E-01  0.51100000000E-03 0.  1.
         11    1    4    4    0    0 -0.74789866419E-01 -0.56566650493E-01  0.77862862369E-01  0.12188599806E+00  0.51100000000E-03 0. -1.
</event>
<event>
 8    1  0.2943605E+004  0.1043930E+01  0.7957747E-01            NaN
         13   -1    0    0    0    0  0.00000000000E+00  0.00000000000E+00  0.74505805969E-08  0.10566000000E+00  0.10566000000E+00 0. -1.
     999900   -1    0    0    0    0 -0.00000000000E+00 -0.00000000000E+00 -0.74505805969E-08  0.93827000000E+00  0.93827000000E+00 0. -1.
     999902    2    1    2    0    0 -0.27473858932E-02 -0.37987008875E-02 -0.14825537144E-01  0.10283808904E+01  0.10282633325E+01 0.  0.
     999903    2    3    3    0    0  0.10940163406E+00 -0.23101602721E-01 -0.70923529795E-01  0.13928191420E+00  0.43207672503E-01 0.  0.
         14    1    1    2    0    0  0.27473858932E-02  0.37987008875E-02  0.14825537144E-01  0.15549109598E-01  0.00000000000E+00 0. -1.
     999901    1    3    3    0    0 -0.11214901995E+00  0.19302901833E-01  0.56097992650E-01  0.88909897620E+00  0.88000000000E+00 0. -1.
        -11    1    4    4    0    0  0.32889794062E-01 -0.48062242097E-02  0.17570707775E-03  0.33243500697E-01  0.51100000000E-03 0.  1.
         11    1    4    4    0    0  0.76511839996E-01 -0.18295378511E-01 -0.71099236872E-01  0.10603841351E+00  0.51100000000E-03 0. -1.
</event>
<event>
 8    1  0.2943605E+004  0.1043930E+01  0.7957747E-01            NaN
         13   -1    0    0    0    0  0.00000000000E+00  0.00000000000E+00  0.74505805969E-08  0.10566000000E+00  0.10566000000E+00 0. -1.
     999900   -1    0    0    0    0 -0.00000000000E+00 -0.00000000000E+00 -0.74505805969E-08  0.93827000000E+00  0.93827000000E+00 0. -1.
     999902    2    1    2    0    0 -0.53166190186E-02  0.43786748500E-02 -0.12456107840E-01  0.10296964532E+01  0.10295980730E+01 0.  0.
     999903    2    3    3    0    0  0.25506297423E-01 -0.12413031657E+00  0.32582484705E-01  0.13868966993E+00  0.45981512995E-01 0.  0.
         14    1    1    2    0    0  0.53166190186E-02 -0.43786748500E-02  0.12456107840E-01  0.14233546773E-01  0.00000000000E+00 0.  1.
     999901    1    3    3    0    0 -0.30822916441E-01  0.12850899142E+00 -0.45038592545E-01  0.89100678329E+00  0.88000000000E+00 0.  1.
        -11    1    4    4    0    0  0.56896082358E-02 -0.47293179749E-01 -0.99378941049E-02  0.48662504589E-01  0.51100000000E-03 0.  1.
         11    1    4    4    0    0  0.19816689187E-01 -0.76837136820E-01  0.42520378810E-01  0.90027165346E-01  0.51100000000E-03 0. -1.
</event>
<event>
 8    1  0.2943605E+004  0.1043930E+01  0.7957747E-01            NaN
         13   -1    0    0    0    0  0.00000000000E+00  0.00000000000E+00  0.74505805969E-08  0.10566000000E+00  0.10566000000E+00 0.  1.
     999900   -1    0    0    0    0 -0.00000000000E+00 -0.00000000000E+00 -0.74505805969E-08  0.93827000000E+00  0.93827000000E+00 0. -1.
     999902    2    1    2    0    0  0.99078315353E-02  0.75988430814E-02  0.52433456211E-02  0.10303874664E+01  0.10302984668E+01 0.  0.
     999903    2    3    3    0    0 -0.12046299036E+00  0.46016722017E-01  0.28116415412E-01  0.13965986389E+00  0.45666990428E-01 0.  0.
         14    1    1    2    0    0 -0.99078315353E-02 -0.75988430814E-02 -0.52433456211E-02  0.13542533560E-01  0.00000000000E+00 0.  1.
     999901    1    3    3    0    0  0.13037082189E+00 -0.38417878936E-01 -0.22873069791E-01  0.89072760255E+00  0.88000000000E+00 0. -1.
        -11    1    4    4    0    0 -0.10015217526E-01  0.16828791914E-01 -0.59054472557E-02  0.20460895573E-01  0.51100000000E-03 0. -1.
         11    1    4    4    0    0 -0.11044777283E+00  0.29187930103E-01  0.34021862667E-01  0.11919896832E+00  0.51100000000E-03 0.  1.
</event>
<event>
 8    1  0.2943605E+004  0.1043930E+01  0.7957747E-01            NaN
         13   -1    0    0    0    0  0.00000000000E+00  0.00000000000E+00  0.74505805969E-08  0.10566000000E+00  0.10566000000E+00 0.  1.
     999900   -1    0    0    0    0 -0.00000000000E+00 -0.00000000000E+00 -0.74505805969E-08  0.93827000000E+00  0.93827000000E+00 0.  1.
     999902    2    1    2    0    0  0.34733200176E-02  0.45410271242E-02 -0.12593428708E-01  0.10300996231E+01  0.10300067738E+01 0.  0.
     999903    2    3    3    0    0  0.10876241018E+00  0.57285749913E-01 -0.53291104886E-01  0.14132287994E+00  0.44958820304E-01 0.  0.
         14    1    1    2    0    0 -0.34733200176E-02 -0.45410271242E-02  0.12593428708E-01  0.13830376926E-01  0.00000000000E+00 0.  1.
     999901    1    3    3    0    0 -0.10528909016E+00 -0.52744722789E-01  0.40697676177E-01  0.88877674313E+00  0.88000000000E+00 0. -1.
        -11    1    4    4    0    0  0.10705275644E+00  0.47993105876E-01 -0.57864077146E-01  0.13081339159E+00  0.51100000000E-03 0. -1.
         11    1    4    4    0    0  0.17096537358E-02  0.92926440374E-02  0.45729722605E-02  0.10509488351E-01  0.51100000000E-03 0.  1.
</event>
<event>
 8    1  0.2943605E+004  0.1043930E+01  0.7957747E-01            NaN
         13   -1    0    0    0    0  0.00000000000E+00  0.00000000000E+00  0.74505805969E-08  0.10566000000E+00  0.10566000000E+00 0. -1.
     999900   -1    0    0    0    0 -0.00000000000E+00 -0.00000000000E+00 -0.74505805969E-08  0.93827000000E+00  0.93827000000E+00 0.  1.
     999902    2    1    2    0    0 -0.11748831164E-01 -0.25009551197E-02  0.16165754946E-01  0.10237899542E+01  0.10235918371E+01 0.  0.
     999903    2    3    3    0    0  0.64209203033E-01  0.91676147623E-01 -0.55645534003E-01  0.13261331021E+00  0.44300415280E-01 0.  0.
         14    1    1    2    0    0  0.11748831164E-01  0.25009551197E-02 -0.16165754946E-01  0.20140045760E-01  0.00000000000E+00 0.  1.
     999901    1    3    3    0    0 -0.75958034197E-01 -0.94177102743E-01  0.71811288948E-01  0.89117664403E+00  0.88000000000E+00 0.  1.
        -11    1    4    4    0    0  0.12180864787E-01  0.55900592355E-01 -0.25380698257E-01  0.62591458344E-01  0.51100000000E-03 0. -1.
         11    1    4    4    0    0  0.52028338247E-01  0.35775555268E-01 -0.30264835745E-01  0.70021851869E-01  0.51100000000E-03 0.  1.
</event>
<event>
 8    1  0.2943605E+004  0.1043930E+01  0.7957747E-01            NaN
         13   -1    0    0    0    0  0.00000000000E+00  0.00000000000E+00  0.74505805969E-08  0.10566000000E+00  0.10566000000E+00 0. -1.
     999900   -1    0    0    0    0 -0.00000000000E+00 -0.00000000000E+00 -0.74505805969E-08  0.93827000000E+00  0.93827000000E+00 0.  1.
     999902    2    1    2    0    0  0.72801991170E-02  0.40896497077E-02 -0.10421141025E-01  0.10305760974E+01  0.10304895758E+01 0.  0.
     999903    2    3    3    0    0 -0.27828983946E-01 -0.10801804574E+00  0.70602197545E-01  0.13907984308E+00  0.43774215011E-01 0.  0.
         14    1    1    2    0    0 -0.72801991170E-02 -0.40896497077E-02  0.10421141025E-01  0.13353902582E-01  0.00000000000E+00 0. -1.
     999901    1    3    3    0    0  0.35109183063E-01  0.11210769544E+00 -0.81023338570E-01  0.89149625434E+00  0.88000000000E+00 0.  1.
        -11    1    4    4    0    0 -0.24401856470E-01 -0.77164875684E-01  0.26530701529E-01  0.85170463678E-01  0.51100000000E-03 0.  1.
         11    1    4    4    0    0 -0.34271274754E-02 -0.30853170052E-01  0.44071496016E-01  0.53909379398E-01  0.51100000000E-03 0. -1.
</event>
<event>
 8    1  0.2943605E+004  0.1043930E+01  0.7957747E-01            NaN
         13   -1    0    0    0    0  0.00000000000E+00  0.00000000000E+00  0.74505805969E-08  0.10566000000E+00  0.10566000000E+00 0.  1.
     999900   -1    0    0    0    0 -0.00000000000E+00 -0.00000000000E+00 -0.74505805969E-08  0.93827000000E+00  0.93827000000E+00 0. -1.
     999902    2    1    2    0    0  0.68034485035E-02  0.34462847623E-02  0.11825150922E-01  0.10298588243E+01  0.10297626911E+01 0.  0.
     999903    2    3    3    0    0  0.90884213962E-01 -0.57465894388E-01  0.79602723220E-01  0.14116671343E+00  0.45046399082E-01 0.  0.
         14    1    1    2    0    0 -0.68034485035E-02 -0.34462847623E-02 -0.11825150922E-01  0.14071175663E-01  0.00000000000E+00 0.  1.
     999901    1    3    3    0    0 -0.84080765459E-01  0.60912179150E-01 -0.67777572298E-01  0.88869211091E+00  0.88000000000E+00 0.  1.
        -11    1    4    4    0    0  0.12571570546E-01 -0.26558943779E-01  0.75278322049E-02  0.30337291563E-01  0.51100000000E-03 0. -1.
         11    1    4    4    0    0  0.78312643416E-01 -0.30906950609E-01  0.72074891015E-01  0.11082942186E+00  0.51100000000E-03 0.  1.
</event>
<event>
 8    1  0.2943605E+004  0.1043930E+01  0.7957747E-01            NaN
         13   -1    0    0    0    0  0.00000000000E+00  0.00000000000E+00  0.74505805969E-08  0.10566000000E+00  0.10566000000E+00 0. -1.
     999900   -1    0    0    0    0 -0.00000000000E+00 -0.00000000000E+00 -0.74505805969E-08  0.93827000000E+00  0.93827000000E+00 0.  1.
     999902    2    1    2    0    0  0.20492147743E-02  0.12663554196E-01  0.30368354740E-02  0.10307471606E+01  0.10306628555E+01 0.  0.
     999903    2    3    3    0    0  0.55030507064E-02  0.87395408147E-01 -0.10134483252E+00  0.14142589600E+00  0.45412201551E-01 0.  0.
         14    1    1    2    0    0 -0.20492147743E-02 -0.12663554196E-01 -0.30368354740E-02  0.13182839442E-01  0.00000000000E+00 0.  1.
     999901    1    3    3    0    0 -0.34538359322E-02 -0.74731853952E-01  0.10438166799E+00  0.88932126456E+00  0.88000000000E+00 0. -1.
        -11    1    4    4    0    0 -0.11040181489E-01  0.20492629802E-02 -0.16377587968E-01  0.19863826286E-01  0.51100000000E-03 0. -1.
         11    1    4    4    0    0  0.16543232195E-01  0.85346145167E-01 -0.84967244550E-01  0.12156206972E+00  0.51100000000E-03 0.  1.
</event>
<event>
 8    1  0.2943605E+004  0.1043930E+01  0.7957747E-01            NaN
         13   -1    0    0    0    0  0.00000000000E+00  0.00000000000E+00  0.74505805969E-08  0.10566000000E+00  0.10566000000E+00 0. -1.
     999900   -1    0    0    0    0 -0.00000000000E+00 -0.00000000000E+00 -0.74505805969E-08  0.93827000000E+00  0.93827000000E+00 0. -1.
     999902    2    1    2    0    0 -0.22831467978E-02  0.92363029822E-02 -0.68562365418E-02  0.10322026801E+01  0.10321360583E+01 0.  0.
     999903    2    3    3    0    0  0.92464728567E-01 -0.95820398527E-01  0.72613051246E-02  0.14079178979E+00  0.45147831806E-01 0.  0.
         14    1    1    2    0    0  0.22831467978E-02 -0.92363029822E-02  0.68562365418E-02  0.11727319881E-01  0.00000000000E+00 0. -1.
     999901    1    3    3    0    0 -0.94747875365E-01  0.10505670151E+00 -0.14117541666E-01  0.89141089033E+00  0.88000000000E+00 0. -1.
        -11    1    4    4    0    0  0.33031194244E-01 -0.14713931049E-01  0.16628520408E-01  0.39803622600E-01  0.51100000000E-03 0. -1.
         11    1    4    4    0    0  0.59433534323E-01 -0.81106467478E-01 -0.93672152838E-02  0.10098816719E+00  0.51100000000E-03 0.  1.
</event>
<event>
 8    1  0.2943605E+004  0.1043930E+01  0.7957747E-01            NaN
         13   -1    0    0    0    0  0.00000000000E+00  0.00000000000E+00  0.74505805969E-08  0.10566000000E+00  0.10566000000E+00 0. -1.
     999900   -1    0    0    0    0 -0.00000000000E+00 -0.00000000000E+00 -0.74505805969E-08  0.93827000000E+00  0.93827000000E+00 0.  1.
     999902    2    1    2    0    0  0.98481346591E-02  0.87273109765E-02  0.31522375005E-02  0.10303989869E+01  0.10303101397E+01 0.  0.
     999903    2    3    3    0    0  0.95197741685E-01  0.54848009456E-01  0.77852353057E-01  0.14192176072E+00  0.44831720091E-01 0.  0.
         14    1    1    2    0    0 -0.98481346591E-02 -0.87273109765E-02 -0.31522375005E-02  0.13531013059E-01  0.00000000000E+00 0.  1.
     999901    1    3    3    0    0 -0.85349607026E-01 -0.46120698480E-01 -0.74700115557E-01  0.88847722622E+00  0.88000000000E+00 0.  1.
        -11    1    4    4    0    0  0.88987587982E-01  0.31519064364E-01  0.64411185491E-01  0.11428606289E+00  0.51100000000E-03 0.  1.
         11    1    4    4    0    0  0.62101537034E-02  0.23328945092E-01  0.13441167566E-01  0.27635697833E-01  0.51100000000E-03 0. -1.
</event>
<event>
 8    1  0.2943605E+004  0.1043930E+01  0.7957747E-01            NaN
         13   -1    0    0    0    0  0.00000000000E+00  0.00000000000E+00  0.74505805969E-08  0.10566000000E+00  0.10566000000E+00 0. -1.
     999900   -1    0    0    0    0 -0.00000000000E+00 -0.00000000000E+00 -0.74505805969E-08  0.93827000000E+00  0.93827000000E+00 0. -1.
     999902    2    1    2    0    0 -0.79106383887E-02  0.48639147930E-02 -0.10544365437E-01  0.10298793947E+01  0.10297835443E+01 0.  0.
     999903    2    3    3    0    0  0.12142911068E+00 -0.12805619680E-01 -0.51663737572E-01  0.13929992834E+00  0.42735412004E-01 0.  0.
         14    1    1    2    0    0  0.79106383887E-02 -0.48639147930E-02  0.10544365437E-01  0.14050605300E-01  0.00000000000E+00 0. -1.
     999901    1    3    3    0    0 -0.12933974907E+00  0.17669534473E-01  0.41119372136E-01  0.89057946636E+00  0.88000000000E+00 0. -1.
        -11    1    4    4    0    0  0.47346038889E-01  0.14556657813E-01 -0.12216725989E-01  0.51020125442E-01  0.51100000000E-03 0.  1.
         11    1    4    4    0    0  0.74083071792E-01 -0.27362277493E-01 -0.39447011583E-01  0.88279802898E-01  0.51100000000E-03 0. -1.
</event>
<event>
 8    1  0.2943605E+004  0.1043930E+01  0.7957747E-01            NaN
         13   -1    0    0    0    0  0.00000000000E+00  0.00000000000E+00  0.74505805969E-08  0.10566000000E+00  0.10566000000E+00 0. -1.
     999900   -1    0    0    0    0 -0.00000000000E+00 -0.00000000000E+00 -0.74505805969E-08  0.93827000000E+00  0.93827000000E+00 0. -1.
     999902    2    1    2    0    0 -0.15019293396E-01  0.20106940040E-02  0.19235425590E-02  0.10286551160E+01  0.10285416985E+01 0.  0.
     999903    2    3    3    0    0 -0.63633490767E-01 -0.21350194459E-01  0.11486599343E+00  0.13979907115E+00  0.42948013893E-01 0.  0.
         14    1    1    2    0    0  0.15019293396E-01 -0.20106940040E-02 -0.19235425590E-02  0.15274883975E-01  0.00000000000E+00 0. -1.
     999901    1    3    3    0    0  0.48614197371E-01  0.23360888463E-01 -0.11294245087E+00  0.88885604487E+00  0.88000000000E+00 0. -1.
        -11    1    4    4    0    0 -0.33267375615E-01 -0.28376922752E-01  0.89493431246E-01  0.99605739706E-01  0.51100000000E-03 0. -1.
         11    1    4    4    0    0 -0.30366115152E-01  0.70267282928E-02  0.25372562187E-01  0.40193331447E-01  0.51100000000E-03 0.  1.
</event>
<event>
 8    1  0.2943605E+004  0.1043930E+01  0.7957747E-01            NaN
         13   -1    0    0    0    0  0.00000000000E+00  0.00000000000E+00  0.74505805969E-08  0.10566000000E+00  0.10566000000E+00 0.  1.
     999900   -1    0    0    0    0 -0.00000000000E+00 -0.00000000000E+00 -0.74505805969E-08  0.93827000000E+00  0.93827000000E+00 0. -1.
     999902    2    1    2    0    0 -0.97775630354E-02  0.77511923470E-02  0.63727094670E-02  0.10299195344E+01  0.10298242346E+01 0.  0.
     999903    2    3    3    0    0  0.96811039181E-01 -0.87028391574E-01  0.11180690612E-01  0.13842224533E+00  0.45709866688E-01 0.  0.
         14    1    1    2    0    0  0.97775630354E-02 -0.77511923470E-02 -0.63727094670E-02  0.14010465648E-01  0.00000000000E+00 0. -1.
     999901    1    3    3    0    0 -0.10658860222E+00  0.94779583921E-01 -0.48079811448E-02  0.89149728902E+00  0.88000000000E+00 0.  1.
        -11    1    4    4    0    0  0.28837752110E-01 -0.37919241836E-01 -0.16018257901E-01  0.50262615883E-01  0.51100000000E-03 0. -1.
         11    1    4    4    0    0  0.67973287070E-01 -0.49109149737E-01  0.27198948513E-01  0.88159629447E-01  0.51100000000E-03 0.  1.
</event>
<event>
 8    1  0.2943605E+004  0.1043930E+01  0.7957747E-01            NaN
         13   -1    0    0    0    0  0.00000000000E+00  0.00000000000E+00  0.74505805969E-08  0.10566000000E+00  0.10566000000E+00 0. -1.
     999900   -1    0    0    0    0 -0.00000000000E+00 -0.00000000000E+00 -0.74505805969E-08  0.93827000000E+00  0.93827000000E+00 0.  1.
     999902    2    1    2    0    0  0.18633021957E-02 -0.95286067246E-02 -0.61588173063E-02  0.10324322928E+01  0.10323682685E+01 0.  0.
     999903    2    3    3    0    0 -0.10074613467E+00 -0.86340192439E-01 -0.33349638376E-01  0.14273118734E+00  0.40688831111E-01 0.  0.
         14    1    1    2    0    0 -0.18633021957E-02  0.95286067246E-02  0.61588173063E-02  0.11497707241E-01  0.00000000000E+00 0. -1.
     999901    1    3    3    0    0  0.10260943687E+00  0.76811585715E-01  0.27190821070E-01  0.88970110542E+00  0.88000000000E+00 0. -1.
        -11    1    4    4    0    0 -0.31667880404E-01 -0.21027581850E-01 -0.28548755897E-01  0.47542680110E-01  0.51100000000E-03 0.  1.
         11    1    4    4    0    0 -0.69078254270E-01 -0.65312610590E-01 -0.48008824795E-02  0.95188507230E-01  0.51100000000E-03 0. -1.
</event>
<event>
 8    1  0.2943605E+004  0.1043930E+01  0.7957747E-01            NaN
         13   -1    0    0    0    0  0.00000000000E+00  0.00000000000E+00  0.74505805969E-08  0.10566000000E+00  0.10566000000E+00 0.  1.
     999900   -1    0    0    0    0 -0.00000000000E+00 -0.00000000000E+00 -0.74505805969E-08  0.93827000000E+00  0.93827000000E+00 0. -1.
     999902    2    1    2    0    0  0.28618370550E-02  0.10406848141E-01  0.81249835555E-02  0.10304204494E+01  0.10303318857E+01 0.  0.
     999903    2    3    3    0    0 -0.10751131912E+00 -0.76156084188E-01  0.28776340472E-03  0.13927691614E+00  0.45161307156E-01 0.  0.
         14    1    1    2    0    0 -0.28618370550E-02 -0.10406848141E-01 -0.81249835555E-02  0.13509550597E-01  0.00000000000E+00 0. -1.
     999901    1    3    3    0    0  0.11037315617E+00  0.86562932329E-01  0.78372201508E-02  0.89114353326E+00  0.88000000000E+00 0. -1.
        -11    1    4    4    0    0  0.84949529844E-03 -0.14161347713E-01 -0.24418271509E-02  0.14404480280E-01  0.51100000000E-03 0.  1.
         11    1    4    4    0    0 -0.10836081442E+00 -0.61994736475E-01  0.27295905557E-02  0.12487243586E+00  0.51100000000E-03 0. -1.
</event>
<event>
 8    1  0.2943605E+004  0.1043930E+01  0.7957747E-01            NaN
         13   -1    0    0    0    0  0.00000000000E+00  0.00000000000E+00  0.74505805969E-08  0.10566000000E+00  0.10566000000E+00 0. -1.
     999900   -1    0    0    0    0 -0.00000000000E+00 -0.00000000000E+00 -0.74505805969E-08  0.93827000000E+00  0.93827000000E+00 0. -1.
     999902    2    1    2    0    0 -0.12013104161E-01 -0.16185242736E-01 -0.54298008994E-02  0.10230551469E+01  0.10228421550E+01 0.  0.
     999903    2    3    3    0    0  0.33216344605E-01  0.68009072479E-01 -0.99214136529E-01  0.13292600607E+00  0.45796492381E-01 0.  0.
         14    1    1    2    0    0  0.12013104161E-01  0.16185242736E-01  0.54298008994E-02  0.20874853096E-01  0.00000000000E+00 0. -1.
     999901    1    3    3    0    0 -0.45229448765E-01 -0.84194315215E-01  0.93784335630E-01  0.89012914083E+00  0.88000000000E+00 0. -1.
        -11    1    4    4    0    0  0.23616837682E-01  0.43274374644E-01 -0.27485624543E-01  0.56445967088E-01  0.51100000000E-03 0. -1.
         11    1    4    4    0    0  0.95995069224E-02  0.24734697835E-01 -0.71728511986E-01  0.76480038983E-01  0.51100000000E-03 0.  1.
</event>
<event>
 8    1  0.2943605E+004  0.1043930E+01  0.7957747E-01            NaN
         13   -1    0    0    0    0  0.00000000000E+00  0.00000000000E+00  0.74505805969E-08  0.10566000000E+00  0.10566000000E+00 0.  1.
     999900   -1    0    0    0    0 -0.00000000000E+00 -0.00000000000E+00 -0.74505805969E-08  0.93827000000E+00  0.93827000000E+00 0.  1.
     999902    2    1    2    0    0 -0.21398434397E-02  0.10556957085E-01 -0.78873891312E-02  0.10305793753E+01  0.10304928964E+01 0.  0.
     999903    2    3    3    0    0 -0.84473541146E-01  0.41331174061E-01  0.94030366552E-01  0.14034731614E+00  0.44851022416E-01 0.  0.
         14    1    1    2    0    0  0.21398434397E-02 -0.10556957085E-01  0.78873891312E-02  0.13350624710E-01  0.00000000000E+00 0.  1.
     999901    1    3    3    0    0  0.82333697706E-01 -0.30774216975E-01 -0.10191775568E+00  0.89023205915E+00  0.88000000000E+00 0.  1.
        -11    1    4    4    0    0 -0.77281828821E-01  0.40145280071E-01  0.60526230158E-01  0.10605569403E+00  0.51100000000E-03 0.  1.
         11    1    4    4    0    0 -0.71917123251E-02  0.11858939896E-02  0.33504136393E-01  0.34291622114E-01  0.51100000000E-03 0. -1.
</event>
<event>
 8    1  0.2943605E+004  0.1043930E+01  0.7957747E-01            NaN
         13   -1    0    0    0    0  0.00000000000E+00  0.00000000000E+00  0.74505805969E-08  0.10566000000E+00  0.10566000000E+00 0. -1.
     999900   -1    0    0    0    0 -0.00000000000E+00 -0.00000000000E+00 -0.74505805969E-08  0.93827000000E+00  0.93827000000E+00 0. -1.
     999902    2    1    2    0    0  0.53200876731E-03 -0.94601668257E-02 -0.10469785334E-01  0.10298092991E+01  0.10297124833E+01 0.  0.
     999903    2    3    3    0    0 -0.87678673352E-01 -0.68338173601E-02 -0.10027918848E+00  0.14084712269E+00  0.45252022141E-01 0.  0.
         14    1    1    2    0    0 -0.53200876731E-03  0.94601668257E-02  0.10469785334E-01  0.14120700926E-01  0.00000000000E+00 0. -1.
     999901    1    3    3    0    0  0.88210682119E-01 -0.26263494656E-02  0.89809403142E-01  0.88896217639E+00  0.88000000000E+00 0.  1.
        -11    1    4    4    0    0 -0.61274177743E-01  0.20752805674E-02 -0.36772398483E-01  0.71493370732E-01  0.51100000000E-03 0. -1.
         11    1    4    4    0    0 -0.26404495609E-01 -0.89090979274E-02 -0.63506789993E-01  0.69353751956E-01  0.51100000000E-03 0.  1.
</event>
<event>
 8    1  0.2943605E+004  0.1043930E+01  0.7957747E-01            NaN
         13   -1    0    0    0    0  0.00000000000E+00  0.00000000000E+00  0.74505805969E-08  0.10566000000E+00  0.10566000000E+00 0.  1.
     999900   -1    0    0    0    0 -0.00000000000E+00 -0.00000000000E+00 -0.74505805969E-08  0.93827000000E+00  0.93827000000E+00 0. -1.
     999902    2    1    2    0    0  0.10654004865E-02  0.14113758364E-01 -0.47410755527E-02  0.10290031433E+01  0.10288948721E+01 0.  0.
     999903    2    3    3    0    0  0.82476200736E-01 -0.83867446035E-01 -0.57696594525E-01  0.13825496239E+00  0.44152750923E-01 0.  0.
         14    1    1    2    0    0 -0.10654004865E-02 -0.14113758364E-01  0.47410755527E-02  0.14926856693E-01  0.00000000000E+00 0.  1.
     999901    1    3    3    0    0 -0.81410800249E-01  0.97981204399E-01  0.52955518972E-01  0.89074818091E+00  0.88000000000E+00 0.  1.
        -11    1    4    4    0    0  0.85304779439E-01 -0.72300108319E-01 -0.58699518427E-01  0.12629372764E+00  0.51100000000E-03 0. -1.
         11    1    4    4    0    0 -0.28285787028E-02 -0.11567337717E-01  0.10029239019E-02  0.11961234747E-01  0.51100000000E-03 0.  1.
</event>
<event>
 8    1  0.2943605E+004  0.1043930E+01  0.7957747E-01            NaN
         13   -1    0    0    0    0  0.00000000000E+00  0.00000000000E+00  0.74505805969E-08  0.10566000000E+00  0.10566000000E+00 0.  1.
     999900   -1    0    0    0    0 -0.00000000000E+00 -0.00000000000E+00 -0.74505805969E-08  0.93827000000E+00  0.93827000000E+00 0. -1.
     999902    2    1    2    0    0  0.77648478894E-02 -0.67588720931E-02  0.88977786115E-02  0.10303231753E+01  0.10302333230E+01 0.  0.
     999903    2    3    3    0    0 -0.98137702022E-01 -0.51576117435E-01 -0.72324735888E-01  0.13913238066E+00  0.42846790764E-01 0.  0.
         14    1    1    2    0    0 -0.77648478894E-02  0.67588720931E-02 -0.88977786115E-02  0.13606824719E-01  0.00000000000E+00 0. -1.
     999901    1    3    3    0    0  0.10590254991E+00  0.44817245341E-01  0.81222514499E-01  0.89119079462E+00  0.88000000000E+00 0.  1.
        -11    1    4    4    0    0 -0.36797713680E-01  0.27145262232E-02 -0.20821340040E-01  0.42370151130E-01  0.51100000000E-03 0.  1.
         11    1    4    4    0    0 -0.61339988342E-01 -0.54290643658E-01 -0.51503395848E-01  0.96762229529E-01  0.51100000000E-03 0. -1.
</event>
<event>
 8    1  0.2943605E+004  0.1043930E+01  0.7957747E-01            NaN
         13   -1    0    0    0    0  0.00000000000E+00  0.00000000000E+00  0.74505805969E-08  0.10566000000E+00  0.10566000000E+00 0. -1.
     999900   -1    0    0    0    0 -0.00000000000E+00 -0.00000000000E+00 -0.74505805969E-08  0.93827000000E+00  0.93827000000E+00 0. -1.
     999902    2    1    2    0    0  0.89883819804E-02 -0.11069572310E-01  0.17693190963E-01  0.10212061040E+01  0.10209532465E+01 0.  0.
     999903    2    3    3    0    0 -0.67303579025E-01  0.22579536046E-01 -0.98821327313E-01  0.12961855433E+00  0.44673344365E-01 0.  0.
         14    1    1    2    0    0 -0.89883819804E-02  0.11069572310E-01 -0.17693190963E-01  0.22723895973E-01  0.00000000000E+00 0.  1.
     999901    1    3    3    0    0  0.76291961005E-01 -0.33649108357E-01  0.11651451828E+00  0.89158754970E+00  0.88000000000E+00 0.  1.
        -11    1    4    4    0    0 -0.48773931684E-01  0.22139981179E-02 -0.34899093237E-01  0.60016714583E-01  0.51100000000E-03 0. -1.
         11    1    4    4    0    0 -0.18529647341E-01  0.20365537928E-01 -0.63922234076E-01  0.69601839745E-01  0.51100000000E-03 0.  1.
</event>
<event>
 7    1  0.2943605E+004  0.1043930E+01  0.7957747E-01            NaN
         13   -1    0    0    0    0  0.00000000000E+00  0.00000000000E+00  0.74505805969E-08  0.10566000000E+00  0.10566000000E+00 0. -1.
     999900   -1    0    0    0    0 -0.00000000000E+00 -0.00000000000E+00 -0.74505805969E-08  0.93827000000E+00  0.93827000000E+00 0.  1.
     999903    2    1    2    0    0  0.17933152608E-01 -0.27176492346E-01 -0.62520677738E-01  0.83010267953E-01  0.43837309932E-01 0.  0.
         14    1    1    2    0    0  0.73626925445E-01 -0.16082157680E-02  0.64833934541E-02  0.73929323675E-01  0.00000000000E+00 0. -1.
     999901    1    1    2    0    0 -0.91560078052E-01  0.28784708114E-01  0.56037284284E-01  0.88699040837E+00  0.88000000000E+00 0.  1.
        -11    1    3    3    0    0  0.27323055888E-01 -0.35037358051E-02 -0.22502771143E-01  0.35573323963E-01  0.51100000000E-03 0. -1.
         11    1    3    3    0    0 -0.93899032803E-02 -0.23672756541E-01 -0.40017906595E-01  0.47436943990E-01  0.51100000000E-03 0.  1.
</event>
<event>
 8    1  0.2943605E+004  0.1043930E+01  0.7957747E-01            NaN
         13   -1    0    0    0    0  0.00000000000E+00  0.00000000000E+00  0.74505805969E-08  0.10566000000E+00  0.10566000000E+00 0. -1.
     999900   -1    0    0    0    0 -0.00000000000E+00 -0.00000000000E+00 -0.74505805969E-08  0.93827000000E+00  0.93827000000E+00 0.  1.
     999902    2    1    2    0    0  0.90511797735E-02  0.57164121191E-02  0.92129187684E-02  0.10298062932E+01  0.10297094359E+01 0.  0.
     999903    2    3    3    0    0  0.12617184482E-01 -0.76933483499E-02 -0.13007419936E+00  0.13874319811E+00  0.45956465595E-01 0.  0.
         14    1    1    2    0    0 -0.90511797735E-02 -0.57164121191E-02 -0.92129187684E-02  0.14123706845E-01  0.00000000000E+00 0.  1.
     999901    1    3    3    0    0 -0.35660047080E-02  0.13409760469E-01  0.13928711813E+00  0.89106309504E+00  0.88000000000E+00 0. -1.
        -11    1    4    4    0    0  0.56999972112E-02 -0.25802686451E-01 -0.52441594452E-01  0.58725212183E-01  0.51100000000E-03 0.  1.
         11    1    4    4    0    0  0.69171872704E-02  0.18109338101E-01 -0.77632604912E-01  0.80017985932E-01  0.51100000000E-03 0. -1.
</event>
<event>
 8    1  0.2943605E+004  0.1043930E+01  0.7957747E-01            NaN
         13   -1    0    0    0    0  0.00000000000E+00  0.00000000000E+00  0.74505805969E-08  0.10566000000E+00  0.10566000000E+00 0.  1.
     999900   -1    0    0    0    0 -0.00000000000E+00 -0.00000000000E+00 -0.74505805969E-08  0.93827000000E+00  0.93827000000E+00 0.  1.
     999902    2    1    2    0    0  0.13255878990E-01 -0.58283176855E-02 -0.50516468588E-02  0.10285935483E+01  0.10284792078E+01 0.  0.
     999903    2    3    3    0    0 -0.44721719901E-01 -0.25712679994E-01  0.11959371353E+00  0.13769891047E+00  0.44689590358E-01 0.  0.
         14    1    1    2    0    0 -0.13255878990E-01  0.58283176855E-02  0.50516468588E-02  0.15336451703E-01  0.00000000000E+00 0. -1.
     999901    1    3    3    0    0  0.57977598891E-01  0.19884362309E-01 -0.12464536039E+00  0.89089463782E+00  0.88000000000E+00 0.  1.
        -11    1    4    4    0    0 -0.72100299029E-02 -0.12952055726E-01  0.81131045977E-01  0.82475742016E-01  0.51100000000E-03 0. -1.
         11    1    4    4    0    0 -0.37511689998E-01 -0.12760624268E-01  0.38462667552E-01  0.55223168457E-01  0.51100000000E-03 0.  1.
</event>
<event>
 8    1  0.2943605E+004  0.1043930E+01  0.7957747E-01            NaN
         13   -1    0    0    0    0  0.00000000000E+00  0.00000000000E+00  0.74505805969E-08  0.10566000000E+00  0.10566000000E+00 0.  1.
     999900   -1    0    0    0    0 -0.00000000000E+00 -0.00000000000E+00 -0.74505805969E-08  0.93827000000E+00  0.93827000000E+00 0.  1.
     999902    2    1    2    0    0  0.52560541843E-02 -0.12321360992E-01  0.71106064179E-02  0.10287641579E+01  0.10286523659E+01 0.  0.
     999903    2    3    3    0    0 -0.97092741282E-01 -0.66594670543E-01 -0.59529329119E-01  0.13867329230E+00  0.42716395176E-01 0.  0.
         14    1    1    2    0    0 -0.52560541843E-02  0.12321360992E-01 -0.71106064179E-02  0.15165842077E-01  0.00000000000E+00 0.  1.
     999901    1    3    3    0    0  0.10234879547E+00  0.54273309551E-01  0.66639935536E-01  0.89009086563E+00  0.88000000000E+00 0.  1.
        -11    1    4    4    0    0 -0.26883652769E-01 -0.31966471457E-01 -0.25540628058E-02  0.41849378029E-01  0.51100000000E-03 0.  1.
         11    1    4    4    0    0 -0.70209088513E-01 -0.34628199086E-01 -0.56975266313E-01  0.96823914268E-01  0.51100000000E-03 0. -1.
</event>
<event>
 8    1  0.2943605E+004  0.1043930E+01  0.7957747E-01            NaN
         13   -1    0    0    0    0  0.00000000000E+00  0.00000000000E+00  0.74505805969E-08  0.10566000000E+00  0.10566000000E+00 0. -1.
     999900   -1    0    0    0    0 -0.00000000000E+00 -0.00000000000E+00 -0.74505805969E-08  0.93827000000E+00  0.93827000000E+00 0.  1.
     999902    2    1    2    0    0  0.11074895632E-01  0.57329251423E-02  0.12421581564E-01  0.10263284253E+01  0.10261774803E+01 0.  0.
     999903    2    3    3    0    0  0.41639652910E-01 -0.11530515747E+00  0.41177324586E-01  0.13705270056E+00  0.45373237006E-01 0.  0.
         14    1    1    2    0    0 -0.11074895632E-01 -0.57329251423E-02 -0.12421581564E-01  0.17601574716E-01  0.00000000000E+00 0.  1.
     999901    1    3    3    0    0 -0.30564757278E-01  0.12103808261E+00 -0.28755743022E-01  0.88927572473E+00  0.88000000000E+00 0. -1.
        -11    1    4    4    0    0  0.50786428367E-01 -0.85087344024E-01  0.29565875613E-01  0.10340947510E+00  0.51100000000E-03 0.  1.
         11    1    4    4    0    0 -0.91467754572E-02 -0.30217813447E-01  0.11611448973E-01  0.33643225455E-01  0.51100000000E-03 0. -1.
</event>
<event>
 8    1  0.2943605E+004  0.1043930E+01  0.7957747E-01            NaN
         13   -1    0    0    0    0  0.00000000000E+00  0.00000000000E+00  0.74505805969E-08  0.10566000000E+00  0.10566000000E+00 0.  1.
     999900   -1    0    0    0    0 -0.00000000000E+00 -0.00000000000E+00 -0.74505805969E-08  0.93827000000E+00  0.93827000000E+00 0.  1.
     999902    2    1    2    0    0 -0.10921059644E-01 -0.77647796736E-02  0.15711800179E-01  0.10232800118E+01  0.10230716302E+01 0.  0.
     999903    2    3    3    0    0 -0.92600311165E-01 -0.66385237540E-01 -0.57350711491E-01  0.13454721236E+00  0.42802229564E-01 0.  0.
         14    1    1    2    0    0  0.10921059644E-01  0.77647796736E-02 -0.15711800179E-01  0.20649988184E-01  0.00000000000E+00 0. -1.
     999901    1    3    3    0    0  0.81679251520E-01  0.58620457866E-01  0.73062511670E-01  0.88873279945E+00  0.88000000000E+00 0. -1.
        -11    1    4    4    0    0 -0.85976901514E-01 -0.71352782229E-01 -0.46822758532E-01  0.12114404221E+00  0.51100000000E-03 0.  1.
         11    1    4    4    0    0 -0.66234096504E-02  0.49675446897E-02 -0.10527952959E-01  0.13403170153E-01  0.51100000000E-03 0. -1.
</event>
<event>
 8    1  0.2943605E+004  0.1043930E+01  0.7957747E-01            NaN
         13   -1    0    0    0    0  0.00000000000E+00  0.00000000000E+00  0.74505805969E-08  0.10566000000E+00  0.10566000000E+00 0.  1.
     999900   -1    0    0    0    0 -0.00000000000E+00 -0.00000000000E+00 -0.74505805969E-08  0.93827000000E+00  0.93827000000E+00 0. -1.
     999902    2    1    2    0    0  0.56028359318E-02 -0.78488467128E-02  0.10076659647E-01  0.10299824111E+01  0.10298879706E+01 0.  0.
     999903    2    3    3    0    0 -0.10779372383E-01 -0.12592604184E+00 -0.42992204359E-01  0.14036063472E+00  0.43349916512E-01 0.  0.
         14    1    1    2    0    0 -0.56028359318E-02  0.78488467128E-02 -0.10076659647E-01  0.13947588854E-01  0.00000000000E+00 0. -1.
     999901    1    3    3    0    0  0.16382208315E-01  0.11807719513E+00  0.53068864006E-01  0.88962177642E+00  0.88000000000E+00 0.  1.
        -11    1    4    4    0    0 -0.21754789828E-01 -0.30073350251E-01 -0.11058759556E-01  0.38732861496E-01  0.51100000000E-03 0.  1.
         11    1    4    4    0    0  0.10975417444E-01 -0.95852691590E-01 -0.31933444803E-01  0.10162777323E+00  0.51100000000E-03 0. -1.
</event>
<event>
 8    1  0.2943605E+004  0.1043930E+01  0.7957747E-01            NaN
         13   -1    0    0    0    0  0.00000000000E+00  0.00000000000E+00  0.74505805969E-08  0.10566000000E+00  0.10566000000E+00 0. -1.
     999900   -1    0    0    0    0 -0.00000000000E+00 -0.00000000000E+00 -0.74505805969E-08  0.93827000000E+00  0.93827000000E+00 0.  1.
     999902    2    1    2    0    0 -0.22527056699E-02 -0.13084465216E-01 -0.42479484500E-03  0.10306462368E+01  0.10305606276E+01 0.  0.
     999903    2    3    3    0    0 -0.12496897351E+00  0.31937103687E-01 -0.31575004186E-01  0.14044594500E+00  0.45725918758E-01 0.  0.
         14    1    1    2    0    0  0.22527056699E-02  0.13084465216E-01  0.42479484500E-03  0.13283763152E-01  0.00000000000E+00 0. -1.
     999901    1    3    3    0    0  0.12271626784E+00 -0.45021568903E-01  0.31150209341E-01  0.89020029185E+00  0.88000000000E+00 0.  1.
        -11    1    4    4    0    0 -0.97595360377E-01  0.12977958791E-01 -0.39713993268E-01  0.10616376107E+00  0.51100000000E-03 0.  1.
         11    1    4    4    0    0 -0.27373613133E-01  0.18959144896E-01  0.81389890820E-02  0.34282183936E-01  0.51100000000E-03 0. -1.
</event>
<event>
 8    1  0.2943605E+004  0.1043930E+01  0.7957747E-01            NaN
         13   -1    0    0    0    0  0.00000000000E+00  0.00000000000E+00  0.74505805969E-08  0.10566000000E+00  0.10566000000E+00 0.  1.
     999900   -1    0    0    0    0 -0.00000000000E+00 -0.00000000000E+00 -0.74505805969E-08  0.93827000000E+00  0.93827000000E+00 0.  1.
     999902    2    1    2    0    0  0.10159766869E-01 -0.15830174731E-01 -0.94835786813E-03  0.10250961295E+01  0.10249230996E+01 0.  0.
     999903    2    3    3    0    0 -0.14298178170E-01  0.11691113288E-01  0.12467873287E+00  0.13541204047E+00  0.49502669061E-01 0.  0.
         14    1    1    2    0    0 -0.10159766869E-01  0.15830174731E-01  0.94835786813E-03  0.18833870486E-01  0.00000000000E+00 0. -1.
     999901    1    3    3    0    0  0.24457945038E-01 -0.27521288019E-01 -0.12562709074E+00  0.88968408904E+00  0.88000000000E+00 0.  1.
        -11    1    4    4    0    0 -0.31294042673E-02 -0.15536301826E-01  0.14909751900E-01  0.21765377741E-01  0.51100000000E-03 0. -1.
         11    1    4    4    0    0 -0.11168773903E-01  0.27227415114E-01  0.10976898097E+00  0.11364666273E+00  0.51100000000E-03 0.  1.
</event>
<event>
 7    1  0.2943605E+004  0.1043930E+01  0.7957747E-01            NaN
         13   -1    0    0    0    0  0.00000000000E+00  0.00000000000E+00  0.74505805969E-08  0.10566000000E+00  0.10566000000E+00 0.  1.
     999900   -1    0    0    0    0 -0.00000000000E+00 -0.00000000000E+00 -0.74505805969E-08  0.93827000000E+00  0.93827000000E+00 0.  1.
     999902    2    1    2    0    0  0.20666594250E-02 -0.34675110502E-02  0.11073315731E-01  0.10321438626E+01  0.10320765669E+01 0.  0.
         14    1    1    2    0    0 -0.20666594250E-02  0.34675110502E-02 -0.11073315731E-01  0.11786137422E-01  0.00000000000E+00 0. -1.
     999901    1    3    3    0    0  0.70760397960E-01 -0.38017461462E-01  0.10495293049E+00  0.88986936059E+00  0.88000000000E+00 0. -1.
        -11    1    3    3    0    0 -0.38539117207E-01  0.55936802610E-01 -0.47160132852E-01  0.82695397048E-01  0.51100000000E-03 0. -1.
         11    1    3    3    0    0 -0.30154621328E-01 -0.21386852198E-01 -0.46719481912E-01  0.59579104941E-01  0.51100000000E-03 0.  1.
</event>
<event>
 8    1  0.2943605E+004  0.1043930E+01  0.7957747E-01            NaN
         13   -1    0    0    0    0  0.00000000000E+00  0.00000000000E+00  0.74505805969E-08  0.10566000000E+00  0.10566000000E+00 0.  1.
     999900   -1    0    0    0    0 -0.00000000000E+00 -0.00000000000E+00 -0.74505805969E-08  0.93827000000E+00  0.93827000000E+00 0. -1.
     999902    2    1    2    0    0 -0.49739812515E-02  0.71021112983E-02 -0.10678972393E-01  0.10301742403E+01  0.10300823969E+01 0.  0.
     999903    2    3    3    0    0  0.19084511452E-01  0.90297625380E-01  0.92106261519E-01  0.13996914652E+00  0.50891245207E-01 0.  0.
         14    1    1    2    0    0  0.49739812515E-02 -0.71021112983E-02  0.10678972393E-01  0.13755759730E-01  0.00000000000E+00 0.  1.
     999901    1    3    3    0    0 -0.24058492704E-01 -0.83195514082E-01 -0.10278523391E+00  0.89020509375E+00  0.88000000000E+00 0. -1.
        -11    1    4    4    0    0 -0.93329971079E-02  0.44996191735E-02  0.25993242813E-01  0.27986804045E-01  0.51100000000E-03 0.  1.
         11    1    4    4    0    0  0.28417508560E-01  0.85798006207E-01  0.66113018706E-01  0.11198234247E+00  0.51100000000E-03 0. -1.
</event>
<event>
 8    1  0.2943605E+004  0.1043930E+01  0.7957747E-01            NaN
         13   -1    0    0    0    0  0.00000000000E+00  0.00000000000E+00  0.74505805969E-08  0.10566000000E+00  0.10566000000E+00 0. -1.
     999900   -1    0    0    0    0 -0.00000000000E+00 -0.00000000000E+00 -0.74505805969E-08  0.93827000000E+00  0.93827000000E+00 0.  1.
     999902    2    1    2    0    0 -0.19386638120E-02  0.15877095572E-02 -0.13591061963E-01  0.10301098624E+01  0.10300171515E+01 0.  0.
     999903    2    3    3    0    0 -0.97818426515E-01 -0.16757731621E-01  0.86430049984E-01  0.13908028544E+00  0.44987844182E-01 0.  0.
         14    1    1    2    0    0  0.19386638120E-02 -0.15877095572E-02  0.13591061963E-01  0.13820137637E-01  0.00000000000E+00 0. -1.
     999901    1    3    3    0    0  0.95879762703E-01  0.18345441179E-01 -0.10002111195E+00  0.89102957692E+00  0.88000000000E+00 0. -1.
        -11    1    4    4    0    0 -0.33263247617E-01 -0.26679239638E-01  0.43524284887E-01  0.60933159820E-01  0.51100000000E-03 0. -1.
         11    1    4    4    0    0 -0.64555178898E-01  0.99215080169E-02  0.42905765098E-01  0.78147125625E-01  0.51100000000E-03 0.  1.
</event>
<event>
 8    1  0.2943605E+004  0.1043930E+01  0.7957747E-01            NaN
         13   -1    0    0    0    0  0.00000000000E+00  0.00000000000E+00  0.74505805969E-08  0.10566000000E+00  0.10566000000E+00 0.  1.
     999900   -1    0    0    0    0 -0.00000000000E+00 -0.00000000000E+00 -0.74505805969E-08  0.93827000000E+00  0.93827000000E+00 0.  1.
     999902    2    1    2    0    0  0.57764616796E-02 -0.22314795210E-04 -0.11945711041E-01  0.10306609375E+01  0.10305755189E+01 0.  0.
     999903    2    3    3    0    0  0.54437575011E-01 -0.91053676013E-01 -0.82510077960E-01  0.14182240179E+00  0.45293036946E-01 0.  0.
         14    1    1    2    0    0 -0.57764616796E-02  0.22314795210E-04  0.11945711041E-01  0.13269062505E-01  0.00000000000E+00 0.  1.
     999901    1    3    3    0    0 -0.48661113331E-01  0.91031361218E-01  0.70564366920E-01  0.88883853571E+00  0.88000000000E+00 0. -1.
        -11    1    4    4    0    0  0.43571588425E-01 -0.94376844319E-01 -0.73470983417E-01  0.12729382776E+00  0.51100000000E-03 0.  1.
         11    1    4    4    0    0  0.10865986586E-01  0.33231683055E-02 -0.90390945434E-02  0.14528574026E-01  0.51100000000E-03 0. -1.
</event>
<event>
 8    1  0.2943605E+004  0.1043930E+01  0.7957747E-01            NaN
         13   -1    0    0    0    0  0.00000000000E+00  0.00000000000E+00  0.74505805969E-08  0.10566000000E+00  0.10566000000E+00 0.  1.
     999900   -1    0    0    0    0 -0.00000000000E+00 -0.00000000000E+00 -0.74505805969E-08  0.93827000000E+00  0.93827000000E+00 0. -1.
     999902    2    1    2    0    0  0.73314157719E-02 -0.10830585774E-01 -0.45840761191E-02  0.10300712483E+01  0.10299780151E+01 0.  0.
     999903    2    3    3    0    0  0.52487373284E-02  0.13076521070E+00  0.16786257483E-01  0.13849377083E+00  0.42091050682E-01 0.  0.
         14    1    1    2    0    0 -0.73314157719E-02  0.10830585774E-01  0.45840761191E-02  0.13858751722E-01  0.00000000000E+00 0.  1.
     999901    1    3    3    0    0  0.20826784435E-02 -0.14159579647E+00 -0.21370333602E-01  0.89157747744E+00  0.88000000000E+00 0.  1.
        -11    1    4    4    0    0 -0.10673949100E-01  0.80725303002E-01  0.25352818617E-01  0.85285017834E-01  0.51100000000E-03 0. -1.
         11    1    4    4    0    0  0.15922686428E-01  0.50039907695E-01 -0.85665611339E-02  0.53208753000E-01  0.51100000000E-03 0.  1.
</event>
<event>
 8    1  0.2943605E+004  0.1043930E+01  0.7957747E-01            NaN
         13   -1    0    0    0    0  0.00000000000E+00  0.00000000000E+00  0.74505805969E-08  0.10566000000E+00  0.10566000000E+00 0.  1.
     999900   -1    0    0    0    0 -0.00000000000E+00 -0.00000000000E+00 -0.74505805969E-08  0.93827000000E+00  0.93827000000E+00 0.  1.
     999902    2    1    2    0    0 -0.86913197242E-02 -0.44450164509E-02  0.83947366930E-02  0.10310548762E+01  0.10309744851E+01 0.  0.
     999903    2    3    3    0    0 -0.32599586366E-01  0.12797930730E+00  0.21398907174E-01  0.14073082550E+00  0.43655651275E-01 0.  0.
         14    1    1    2    0    0  0.86913197242E-02  0.44450164509E-02 -0.83947366930E-02  0.12875123842E-01  0.00000000000E+00 0. -1.
     999901    1    3    3    0    0  0.23908266642E-01 -0.13242432375E+00 -0.13004170481E-01  0.89032405066E+00  0.88000000000E+00 0. -1.
        -11    1    4    4    0    0 -0.17246954840E-01  0.94101484112E-01  0.33884347231E-01  0.10149362971E+00  0.51100000000E-03 0.  1.
         11    1    4    4    0    0 -0.15352631525E-01  0.33877823190E-01 -0.12485440058E-01  0.39237195787E-01  0.51100000000E-03 0. -1.
</event>
<event>
 8    1  0.2943605E+004  0.1043930E+01  0.7957747E-01            NaN
         13   -1    0    0    0    0  0.00000000000E+00  0.00000000000E+00  0.74505805969E-08  0.10566000000E+00  0.10566000000E+00 0. -1.
     999900   -1    0    0    0    0 -0.00000000000E+00 -0.00000000000E+00 -0.74505805969E-08  0.93827000000E+00  0.93827000000E+00 0.  1.
     999902    2    1    2    0    0  0.11766449540E-01  0.54983697687E-03  0.94609520840E-02  0.10288216821E+01  0.10287107428E+01 0.  0.
     999903    2    3    3    0    0  0.54325602100E-01 -0.45256512436E-01 -0.11059060201E+00  0.13847238056E+00  0.44100974622E-01 0.  0.
         14    1    1    2    0    0 -0.11766449540E-01 -0.54983697687E-03 -0.94609520840E-02  0.15108317901E-01  0.00000000000E+00 0.  1.
     999901    1    3    3    0    0 -0.42559152561E-01  0.45806349412E-01  0.12005155410E+00  0.89034930154E+00  0.88000000000E+00 0. -1.
        -11    1    4    4    0    0  0.46660305600E-01 -0.41785708087E-01 -0.11343116749E+00  0.12957669697E+00  0.51100000000E-03 0. -1.
         11    1    4    4    0    0  0.76652965005E-02 -0.34708043483E-02  0.28405654761E-02  0.88956835875E-02  0.51100000000E-03 0.  1.
</event>
<event>
 8    1  0.2943605E+004  0.1043930E+01  0.7957747E-01            NaN
         13   -1    0    0    0    0  0.00000000000E+00  0.00000000000E+00  0.74505805969E-08  0.10566000000E+00  0.10566000000E+00 0.  1.
     999900   -1    0    0    0    0 -0.00000000000E+00 -0.00000000000E+00 -0.74505805969E-08  0.93827000000E+00  0.93827000000E+00 0.  1.
     999902    2    1    2    0    0  0.98380822917E-03  0.71575126113E-02 -0.11779906382E-01  0.10301110254E+01  0.10300183302E+01 0.  0.
     999903    2    3    3    0    0  0.74352515669E-01  0.26495249634E-01 -0.10861524437E+00  0.14155376892E+00  0.44831945597E-01 0.  0.
         14    1    1    2    0    0 -0.98380822917E-03 -0.71575126113E-02  0.11779906382E-01  0.13818974629E-01  0.00000000000E+00 0.  1.
     999901    1    3    3    0    0 -0.73368707440E-01 -0.19337737023E-01  0.96835337992E-01  0.88855725645E+00  0.88000000000E+00 0. -1.
        -11    1    4    4    0    0  0.22561291455E-01  0.30983034824E-01 -0.53192717175E-01  0.65564369901E-01  0.51100000000E-03 0.  1.
         11    1    4    4    0    0  0.51791224214E-01 -0.44877851895E-02 -0.55422527199E-01  0.75989399021E-01  0.51100000000E-03 0. -1.
</event>
<event>
 8    1  0.2943605E+004  0.1043930E+01  0.7957747E-01            NaN
         13   -1    0    0    0    0  0.00000000000E+00  0.00000000000E+00  0.74505805969E-08  0.10566000000E+00  0.10566000000E+00 0.  1.
     999900   -1    0    0    0    0 -0.00000000000E+00 -0.00000000000E+00 -0.74505805969E-08  0.93827000000E+00  0.93827000000E+00 0. -1.
     999902    2    1    2    0    0 -0.86944401989E-02 -0.16782166425E-03 -0.11014165033E-01  0.10298967079E+01  0.10298010952E+01 0.  0.
     999903    2    3    3    0    0 -0.93335214517E-01 -0.11932520344E-01  0.93009943629E-01  0.13965882738E+00  0.44720142451E-01 0.  0.
         14    1    1    2    0    0  0.86944401989E-02  0.16782166425E-03  0.11014165033E-01  0.14033292054E-01  0.00000000000E+00 0.  1.
     999901    1    3    3    0    0  0.84640774318E-01  0.11764698680E-01 -0.10402410866E+00  0.89023788057E+00  0.88000000000E+00 0. -1.
        -11    1    4    4    0    0 -0.43589338667E-01  0.47668951691E-02  0.69450489706E-01  0.82136382781E-01  0.51100000000E-03 0.  1.
         11    1    4    4    0    0 -0.49745875849E-01 -0.16699415514E-01  0.23559453923E-01  0.57522444599E-01  0.51100000000E-03 0. -1.
</event>
<event>
 8    1  0.2943605E+004  0.1043930E+01  0.7957747E-01            NaN
         13   -1    0    0    0    0  0.00000000000E+00  0.00000000000E+00  0.74505805969E-08  0.10566000000E+00  0.10566000000E+00 0. -1.
     999900   -1    0    0    0    0 -0.00000000000E+00 -0.00000000000E+00 -0.74505805969E-08  0.93827000000E+00  0.93827000000E+00 0. -1.
     999902    2    1    2    0    0  0.12134469428E-01  0.17590507218E-02  0.72796408506E-02  0.10296705197E+01  0.10295717781E+01 0.  0.
     999903    2    3    3    0    0  0.69801902584E-01 -0.51180681863E-01  0.10263673602E+00  0.14106423807E+00  0.43278769423E-01 0.  0.
         14    1    1    2    0    0 -0.12134469428E-01 -0.17590507218E-02 -0.72796408506E-02  0.14259480308E-01  0.00000000000E+00 0.  1.
     999901    1    3    3    0    0 -0.57667433155E-01  0.52939732584E-01 -0.95357095166E-01  0.88860628162E+00  0.88000000000E+00 0. -1.
        -11    1    4    4    0    0  0.23473762812E-01 -0.35330734776E-01  0.71184885435E-01  0.82866322446E-01  0.51100000000E-03 0.  1.
         11    1    4    4    0    0  0.46328139771E-01 -0.15849947087E-01  0.31451850582E-01  0.58197915627E-01  0.51100000000E-03 0. -1.
</event>
<event>
 8    1  0.2943605E+004  0.1043930E+01  0.7957747E-01            NaN
         13   -1    0    0    0    0  0.00000000000E+00  0.00000000000E+00  0.74505805969E-08  0.10566000000E+00  0.10566000000E+00 0. -1.
     999900   -1    0    0    0    0 -0.00000000000E+00 -0.00000000000E+00 -0.74505805969E-08  0.93827000000E+00  0.93827000000E+00 0. -1.
     999902    2    1    2    0    0 -0.58206699303E-02  0.32992503057E-02 -0.82262505609E-02  0.10333263945E+01  0.10332719880E+01 0.  0.
     999903    2    3    3    0    0  0.10809476574E+00  0.69194202526E-01 -0.43761465923E-01  0.14283123858E+00  0.44870711721E-01 0.  0.
         14    1    1    2    0    0  0.58206699303E-02 -0.32992503057E-02  0.82262505609E-02  0.10603605486E-01  0.00000000000E+00 0. -1.
     999901    1    3    3    0    0 -0.11391543567E+00 -0.65894952220E-01  0.35535215362E-01  0.89049515593E+00  0.88000000000E+00 0.  1.
        -11    1    4    4    0    0  0.29949612474E-01  0.34404941438E-01 -0.33669515331E-01  0.56697236849E-01  0.51100000000E-03 0. -1.
         11    1    4    4    0    0  0.78145153268E-01  0.34789261088E-01 -0.10091950592E-01  0.86134001730E-01  0.51100000000E-03 0.  1.
</event>
<event>
 8    1  0.2943605E+004  0.1043930E+01  0.7957747E-01            NaN
         13   -1    0    0    0    0  0.00000000000E+00  0.00000000000E+00  0.74505805969E-08  0.10566000000E+00  0.10566000000E+00 0. -1.
     999900   -1    0    0    0    0 -0.00000000000E+00 -0.00000000000E+00 -0.74505805969E-08  0.93827000000E+00  0.93827000000E+00 0. -1.
     999902    2    1    2    0    0  0.10304019325E-02 -0.13221550603E-01 -0.10509325430E-02  0.10306267828E+01  0.10305409210E+01 0.  0.
     999903    2    3    3    0    0 -0.42635003888E-01  0.12252274137E+00  0.19153088866E-01  0.13891977770E+00  0.45850824593E-01 0.  0.
         14    1    1    2    0    0 -0.10304019325E-02  0.13221550603E-01  0.10509325430E-02  0.13303217194E-01  0.00000000000E+00 0. -1.
     999901    1    3    3    0    0  0.43665405820E-01 -0.13574429197E+00 -0.20204021409E-01  0.89170700510E+00  0.88000000000E+00 0. -1.
        -11    1    4    4    0    0 -0.37828636157E-01  0.58168215925E-01 -0.60171753575E-02  0.69649225248E-01  0.51100000000E-03 0.  1.
         11    1    4    4    0    0 -0.48063677314E-02  0.64354525441E-01  0.25170264223E-01  0.69270552456E-01  0.51100000000E-03 0. -1.
</event>
<event>
 8    1  0.2943605E+004  0.1043930E+01  0.7957747E-01            NaN
         13   -1    0    0    0    0  0.00000000000E+00  0.00000000000E+00  0.74505805969E-08  0.10566000000E+00  0.10566000000E+00 0.  1.
     999900   -1    0    0    0    0 -0.00000000000E+00 -0.00000000000E+00 -0.74505805969E-08  0.93827000000E+00  0.93827000000E+00 0.  1.
     999902    2    1    2    0    0  0.11959439967E-01  0.80560340468E-02  0.33193231197E-02  0.10291331829E+01  0.10290268036E+01 0.  0.
     999903    2    3    3    0    0 -0.36641007631E-02 -0.12986769359E+00 -0.12145603037E-01  0.13811903401E+00  0.45280331375E-01 0.  0.
         14    1    1    2    0    0 -0.11959439967E-01 -0.80560340468E-02 -0.33193231197E-02  0.14796817052E-01  0.00000000000E+00 0. -1.
     999901    1    3    3    0    0  0.15623540730E-01  0.13792372764E+00  0.15464926157E-01  0.89101414894E+00  0.88000000000E+00 0.  1.
        -11    1    4    4    0    0 -0.34071029576E-02 -0.67695754353E-01 -0.28960395040E-01  0.73710847980E-01  0.51100000000E-03 0.  1.
         11    1    4    4    0    0 -0.25699780550E-03 -0.62171939237E-01  0.16814792003E-01  0.64408186028E-01  0.51100000000E-03 0. -1.
</event>
<event>
 8    1  0.2943605E+004  0.1043930E+01  0.7957747E-01            NaN
         13   -1    0    0    0    0  0.00000000000E+00  0.00000000000E+00  0.74505805969E-08  0.10566000000E+00  0.10566000000E+00 0. -1.
     999900   -1    0    0    0    0 -0.00000000000E+00 -0.00000000000E+00 -0.74505805969E-08  0.93827000000E+00  0.93827000000E+00 0.  1.
     999902    2    1    2    0    0  0.24108125983E-02  0.15402017615E-01  0.56188557503E-02  0.10273587688E+01  0.10272251136E+01 0.  0.
     999903    2    3    3    0    0  0.51828111717E-02  0.77803356180E-01 -0.10483338002E+00  0.13825736432E+00  0.45219879033E-01 0.  0.
         14    1    1    2    0    0 -0.24108125983E-02 -0.15402017615E-01 -0.56188557503E-02  0.16571231214E-01  0.00000000000E+00 0. -1.
     999901    1    3    3    0    0 -0.27719985733E-02 -0.62401338565E-01  0.11045223577E+00  0.88910140446E+00  0.88000000000E+00 0. -1.
        -11    1    4    4    0    0 -0.13675731745E-01  0.23837620224E-01 -0.13786397701E-01  0.30750344052E-01  0.51100000000E-03 0. -1.
         11    1    4    4    0    0  0.18858542917E-01  0.53965735956E-01 -0.91046982314E-01  0.10750702027E+00  0.51100000000E-03 0.  1.
</event>
<event>
 8    1  0.2943605E+004  0.1043930E+01  0.7957747E-01            NaN
         13   -1    0    0    0    0  0.00000000000E+00  0.00000000000E+00  0.74505805969E-08  0.10566000000E+00  0.10566000000E+00 0. -1.
     999900   -1    0    0    0    0 -0.00000000000E+00 -0.00000000000E+00 -0.74505805969E-08  0.93827000000E+00  0.93827000000E+00 0.  1.
     999902    2    1    2    0    0 -0.92943693168E-02  0.81836222927E-02 -0.57446197642E-02  0.10302787132E+01  0.10301882688E+01 0.  0.
     999903    2    3    3    0    0 -0.12276533096E+00 -0.14168798173E-03  0.52566062245E-01  0.14104021564E+00  0.45363035229E-01 0.  0.
         14    1    1    2    0    0  0.92943693168E-02 -0.81836222927E-02  0.57446197642E-02  0.13651286791E-01  0.00000000000E+00 0. -1.
     999901    1    3    3    0    0  0.11347096164E+00  0.83253102744E-02 -0.58310682009E-01  0.88923849757E+00  0.88000000000E+00 0.  1.
        -11    1    4    4    0    0 -0.47897675484E-01 -0.17521452245E-01  0.64601930522E-02  0.51411903494E-01  0.51100000000E-03 0.  1.
         11    1    4    4    0    0 -0.74867655477E-01  0.17379764263E-01  0.46105869193E-01  0.89628312143E-01  0.51100000000E-03 0. -1.
</event>
<event>
 8    1  0.2943605E+004  0.1043930E+01  0.7957747E-01            NaN
         13   -1    0    0    0    0  0.00000000000E+00  0.00000000000E+00  0.74505805969E-08  0.10566000000E+00  0.10566000000E+00 0.  1.
     999900   -1    0    0    0    0 -0.00000000000E+00 -0.00000000000E+00 -0.74505805969E-08  0.93827000000E+00  0.93827000000E+00 0. -1.
     999902    2    1    2    0    0  0.73495438626E-02  0.27532933856E-02 -0.11463863613E-01  0.10300369590E+01  0.10299432607E+01 0.  0.
     999903    2    3    3    0    0  0.11888236654E+00 -0.33476709647E-01  0.47021884795E-01  0.14033320694E+00  0.47208517856E-01 0.  0.
         14    1    1    2    0    0 -0.73495438626E-02 -0.27532933856E-02  0.11463863613E-01  0.13893041006E-01  0.00000000000E+00 0.  1.
     999901    1    3    3    0    0 -0.11153282267E+00  0.36230003032E-01 -0.58485748408E-01  0.88970375205E+00  0.88000000000E+00 0. -1.
        -11    1    4    4    0    0  0.75161070378E-01 -0.27047328685E-01  0.52812535723E-01  0.95761002187E-01  0.51100000000E-03 0. -1.
         11    1    4    4    0    0  0.43721296159E-01 -0.64293809612E-02 -0.57906509278E-02  0.44572204753E-01  0.51100000000E-03 0.  1.
</event>
<event>
 8    1  0.2943605E+004  0.1043930E+01  0.7957747E-01            NaN
         13   -1    0    0    0    0  0.00000000000E+00  0.00000000000E+00  0.74505805969E-08  0.10566000000E+00  0.10566000000E+00 0.  1.
     999900   -1    0    0    0    0 -0.00000000000E+00 -0.00000000000E+00 -0.74505805969E-08  0.93827000000E+00  0.93827000000E+00 0.  1.
     999902    2    1    2    0    0 -0.31583783535E-02  0.10466699567E-01 -0.83042818373E-02  0.10302008977E+01  0.10301094123E+01 0.  0.
     999903    2    3    3    0    0  0.11958917183E+00 -0.58766175249E-02  0.54543977736E-01  0.13931147198E+00  0.45787946724E-01 0.  0.
         14    1    1    2    0    0  0.31583783535E-02 -0.10466699567E-01  0.83042818373E-02  0.13729102319E-01  0.00000000000E+00 0.  1.
     999901    1    3    3    0    0 -0.12274755019E+00  0.16343317092E-01 -0.62848259573E-01  0.89088942570E+00  0.88000000000E+00 0.  1.
        -11    1    4    4    0    0  0.37695223803E-01  0.89966427163E-02  0.38333856727E-01  0.54512523060E-01  0.51100000000E-03 0.  1.
         11    1    4    4    0    0  0.81893948031E-01 -0.14873260241E-01  0.16210121008E-01  0.84798948923E-01  0.51100000000E-03 0. -1.
</event>
<event>
 8    1  0.2943605E+004  0.1043930E+01  0.7957747E-01            NaN
         13   -1    0    0    0    0  0.00000000000E+00  0.00000000000E+00  0.74505805969E-08  0.10566000000E+00  0.10566000000E+00 0.  1.
     999900   -1    0    0    0    0 -0.00000000000E+00 -0.00000000000E+00 -0.74505805969E-08  0.93827000000E+00  0.93827000000E+00 0.  1.
     999902    2    1    2    0    0 -0.81933354957E-02 -0.78852846756E-02 -0.66768205611E-02  0.10307433251E+01  0.10306589707E+01 0.  0.
     999903    2    3    3    0    0 -0.21733568792E-01 -0.13261350950E+00 -0.43117287401E-02  0.14184172111E+00  0.45186191802E-01 0.  0.
         14    1    1    2    0    0  0.81933354957E-02  0.78852846756E-02  0.66768205611E-02  0.13186674856E-01  0.00000000000E+00 0.  1.
     999901    1    3    3    0    0  0.13540233296E-01  0.12472822483E+00 -0.23650918209E-02  0.88890160403E+00  0.88000000000E+00 0.  1.
        -11    1    4    4    0    0 -0.11387726364E-01 -0.49324253556E-01  0.20044550043E-01  0.54448208492E-01  0.51100000000E-03 0.  1.
         11    1    4    4    0    0 -0.10345842428E-01 -0.83289255945E-01 -0.24356278783E-01  0.87393512623E-01  0.51100000000E-03 0. -1.
</event>
<event>
 8    1  0.2943605E+004  0.1043930E+01  0.7957747E-01            NaN
         13   -1    0    0    0    0  0.00000000000E+00  0.00000000000E+00  0.74505805969E-08  0.10566000000E+00  0.10566000000E+00 0. -1.
     999900   -1    0    0    0    0 -0.00000000000E+00 -0.00000000000E+00 -0.74505805969E-08  0.93827000000E+00  0.93827000000E+00 0. -1.
     999902    2    1    2    0    0  0.13514349322E-01 -0.95419020931E-02  0.22282411442E-02  0.10272371695E+01  0.10271015294E+01 0.  0.
     999903    2    3    3    0    0 -0.10700267661E+00 -0.72704385079E-01 -0.92542181790E-02  0.13670603599E+00  0.43213415863E-01 0.  0.
         14    1    1    2    0    0 -0.13514349322E-01  0.95419020931E-02 -0.22282411442E-02  0.16692830549E-01  0.00000000000E+00 0. -1.
     999901    1    3    3    0    0  0.12051702593E+00  0.63162482986E-01  0.11482459323E-01  0.89053113346E+00  0.88000000000E+00 0.  1.
        -11    1    4    4    0    0 -0.78403819703E-01 -0.45757144988E-01 -0.25328501824E-01  0.94247914497E-01  0.51100000000E-03 0. -1.
         11    1    4    4    0    0 -0.28598856904E-01 -0.26947240091E-01  0.16074283646E-01  0.42458121490E-01  0.51100000000E-03 0.  1.
</event>
<event>
 8    1  0.2943605E+004  0.1043930E+01  0.7957747E-01            NaN
         13   -1    0    0    0    0  0.00000000000E+00  0.00000000000E+00  0.74505805969E-08  0.10566000000E+00  0.10566000000E+00 0.  1.
     999900   -1    0    0    0    0 -0.00000000000E+00 -0.00000000000E+00 -0.74505805969E-08  0.93827000000E+00  0.93827000000E+00 0.  1.
     999902    2    1    2    0    0  0.83651530842E-02  0.16560387100E-02  0.49707818941E-02  0.10340594923E+01  0.10340123822E+01 0.  0.
     999903    2    3    3    0    0  0.10706729823E+00 -0.67080923058E-01 -0.52371455464E-01  0.14402858519E+00  0.45146510548E-01 0.  0.
         14    1    1    2    0    0 -0.83651530842E-02 -0.16560387100E-02 -0.49707818941E-02  0.98705077362E-02  0.00000000000E+00 0. -1.
     999901    1    3    3    0    0 -0.98702145145E-01  0.68736961768E-01  0.57342237358E-01  0.89003090708E+00  0.88000000000E+00 0. -1.
        -11    1    4    4    0    0  0.12784922101E-01 -0.26901578078E-01 -0.22326151466E-01  0.37227238637E-01  0.51100000000E-03 0.  1.
         11    1    4    4    0    0  0.94282376128E-01 -0.40179344980E-01 -0.30045303998E-01  0.10680134655E+00  0.51100000000E-03 0. -1.
</event>
<event>
 8    1  0.2943605E+004  0.1043930E+01  0.7957747E-01            NaN
         13   -1    0    0    0    0  0.00000000000E+00  0.00000000000E+00  0.74505805969E-08  0.10566000000E+00  0.10566000000E+00 0. -1.
     999900   -1    0    0    0    0 -0.00000000000E+00 -0.00000000000E+00 -0.74505805969E-08  0.93827000000E+00  0.93827000000E+00 0. -1.
     999902    2    1    2    0    0 -0.10122410472E-01  0.12818308193E-01 -0.10622733605E-03  0.10275964914E+01  0.10274666737E+01 0.  0.
     999903    2    3    3    0    0 -0.84193907329E-01  0.61140613350E-02 -0.10008064639E+00  0.13881844373E+00  0.46134897422E-01 0.  0.
         14    1    1    2    0    0  0.10122410472E-01 -0.12818308193E-01  0.10622733605E-03  0.16333508593E-01  0.00000000000E+00 0.  1.
     999901    1    3    3    0    0  0.74071496857E-01  0.67042468584E-02  0.99974419052E-01  0.88877804768E+00  0.88000000000E+00 0.  1.
        -11    1    4    4    0    0 -0.18321712502E-01 -0.15092903340E-01 -0.42965640634E-01  0.49089594379E-01  0.51100000000E-03 0.  1.
         11    1    4    4    0    0 -0.65872194827E-01  0.21206964675E-01 -0.57115005754E-01  0.89728849348E-01  0.51100000000E-03 0. -1.
</event>
<event>
 8    1  0.2943605E+004  0.1043930E+01  0.7957747E-01            NaN
         13   -1    0    0    0    0  0.00000000000E+00  0.00000000000E+00  0.74505805969E-08  0.10566000000E+00  0.10566000000E+00 0.  1.
     999900   -1    0    0    0    0 -0.00000000000E+00 -0.00000000000E+00 -0.74505805969E-08  0.93827000000E+00  0.93827000000E+00 0. -1.
     999902    2    1    2    0    0  0.10820688818E-01 -0.44616779183E-02  0.88370107320E-02  0.10292641678E+01  0.10291596768E+01 0.  0.
     999903    2    3    3    0    0 -0.46540427548E-01  0.11286594937E+00 -0.45114159220E-01  0.13799159524E+00  0.45843855337E-01 0.  0.
         14    1    1    2    0    0 -0.10820688818E-01  0.44616779183E-02 -0.88370107320E-02  0.14665832231E-01  0.00000000000E+00 0.  1.
     999901    1    3    3    0    0  0.57361116366E-01 -0.11732762729E+00  0.53951169952E-01  0.89127257252E+00  0.88000000000E+00 0. -1.
        -11    1    4    4    0    0 -0.34810701720E-01  0.78822409152E-01 -0.52950743983E-01  0.10113752789E+00  0.51100000000E-03 0. -1.
         11    1    4    4    0    0 -0.11729725828E-01  0.34043540219E-01  0.78365847633E-02  0.36854067352E-01  0.51100000000E-03 0.  1.
</event>
<event>
 8    1  0.2943605E+004  0.1043930E+01  0.7957747E-01            NaN
         13   -1    0    0    0    0  0.00000000000E+00  0.00000000000E+00  0.74505805969E-08  0.10566000000E+00  0.10566000000E+00 0. -1.
     999900   -1    0    0    0    0 -0.00000000000E+00 -0.00000000000E+00 -0.74505805969E-08  0.93827000000E+00  0.93827000000E+00 0.  1.
     999902    2    1    2    0    0 -0.36867575697E-02 -0.13732371451E-01  0.35248638028E-04  0.10297112993E+01  0.10296131256E+01 0.  0.
     999903    2    3    3    0    0 -0.11220658134E-01  0.66020609775E-01 -0.11290065823E+00  0.13888481972E+00  0.45363095509E-01 0.  0.
         14    1    1    2    0    0  0.36867575697E-02  0.13732371451E-01 -0.35248638028E-04  0.14218700697E-01  0.00000000000E+00 0. -1.
     999901    1    3    3    0    0  0.75339005648E-02 -0.79752981227E-01  0.11293590687E+00  0.89082647959E+00  0.88000000000E+00 0. -1.
        -11    1    4    4    0    0 -0.16174589888E-01  0.61449631930E-01 -0.66443507991E-01  0.91938433191E-01  0.51100000000E-03 0. -1.
         11    1    4    4    0    0  0.49539317539E-02  0.45709778459E-02 -0.46457150241E-01  0.46946386525E-01  0.51100000000E-03 0.  1.
</event>
<event>
 8    1  0.2943605E+004  0.1043930E+01  0.7957747E-01            NaN
         13   -1    0    0    0    0  0.00000000000E+00  0.00000000000E+00  0.74505805969E-08  0.10566000000E+00  0.10566000000E+00 0. -1.
     999900   -1    0    0    0    0 -0.00000000000E+00 -0.00000000000E+00 -0.74505805969E-08  0.93827000000E+00  0.93827000000E+00 0.  1.
     999902    2    1    2    0    0 -0.39205528501E-02  0.39228150609E-02 -0.12896154763E-01  0.10298918370E+01  0.10297961575E+01 0.  0.
     999903    2    3    3    0    0 -0.77653143040E-01  0.77574876962E-01  0.74022756581E-01  0.13948967044E+00  0.43933216439E-01 0.  0.
         14    1    1    2    0    0  0.39205528501E-02 -0.39228150609E-02  0.12896154763E-01  0.14038162997E-01  0.00000000000E+00 0. -1.
     999901    1    3    3    0    0  0.73732590190E-01 -0.73652061901E-01 -0.86918911344E-01  0.89040216657E+00  0.88000000000E+00 0.  1.
        -11    1    4    4    0    0 -0.24977829486E-01  0.45577632249E-01  0.53345158674E-01  0.74479390453E-01  0.51100000000E-03 0.  1.
         11    1    4    4    0    0 -0.52675313554E-01  0.31997244713E-01  0.20677597907E-01  0.65010279983E-01  0.51100000000E-03 0. -1.
</event>
<event>
 8    1  0.2943605E+004  0.1043930E+01  0.7957747E-01            NaN
         13   -1    0    0    0    0  0.00000000000E+00  0.00000000000E+00  0.74505805969E-08  0.10566000000E+00  0.10566000000E+00 0.  1.
     999900   -1    0    0    0    0 -0.00000000000E+00 -0.00000000000E+00 -0.74505805969E-08  0.93827000000E+00  0.93827000000E+00 0. -1.
     999902    2    1    2    0    0 -0.10916191250E-02  0.10974222210E-01 -0.74916327684E-02  0.10305977179E+01  0.10305114780E+01 0.  0.
     999903    2    3    3    0    0 -0.27868315536E-01 -0.12108194638E+00 -0.43568623972E-01  0.13961097698E+00  0.46427568846E-01 0.  0.
         14    1    1    2    0    0  0.10916191250E-02 -0.10974222210E-01  0.74916327684E-02  0.13332282137E-01  0.00000000000E+00 0.  1.
     999901    1    3    3    0    0  0.26776696411E-01  0.13205616859E+00  0.36076991203E-01  0.89098674088E+00  0.88000000000E+00 0.  1.
        -11    1    4    4    0    0 -0.20081651596E-01 -0.31649370182E-01  0.45406179154E-02  0.37760213132E-01  0.51100000000E-03 0. -1.
         11    1    4    4    0    0 -0.77866639399E-02 -0.89432576198E-01 -0.48109241887E-01  0.10185076385E+00  0.51100000000E-03 0.  1.
</event>
<event>
 8    1  0.2943605E+004  0.1043930E+01  0.7957747E-01            NaN
         13   -1    0    0    0    0  0.00000000000E+00  0.00000000000E+00  0.74505805969E-08  0.10566000000E+00  0.10566000000E+00 0.  1.
     999900   -1    0    0    0    0 -0.00000000000E+00 -0.00000000000E+00 -0.74505805969E-08  0.93827000000E+00  0.93827000000E+00 0. -1.
     999902    2    1    2    0    0 -0.30013186718E-02 -0.41432429503E-02 -0.13190557259E-01  0.10297820257E+01  0.10296848330E+01 0.  0.
     999903    2    3    3    0    0  0.32583320022E-01  0.11544189705E+00  0.52625180005E-01  0.13854772234E+00  0.45139311653E-01 0.  0.
         14    1    1    2    0    0  0.30013186718E-02  0.41432429503E-02  0.13190557259E-01  0.14147974297E-01  0.00000000000E+00 0.  1.
     999901    1    3    3    0    0 -0.35584638694E-01 -0.11958514000E+00 -0.65815737263E-01  0.89123430336E+00  0.88000000000E+00 0. -1.
        -11    1    4    4    0    0  0.22203923326E-01  0.29962959798E-01  0.33956205827E-01  0.50438856115E-01  0.51100000000E-03 0.  1.
         11    1    4    4    0    0  0.10379396695E-01  0.85478937253E-01  0.18668974178E-01  0.88108866225E-01  0.51100000000E-03 0. -1.
</event>
<event>
 8    1  0.2943605E+004  0.1043930E+01  0.7957747E-01            NaN
         13   -1    0    0    0    0  0.00000000000E+00  0.00000000000E+00  0.74505805969E-08  0.10566000000E+00  0.10566000000E+00 0. -1.
     999900   -1    0    0    0    0 -0.00000000000E+00 -0.00000000000E+00 -0.74505805969E-08  0.93827000000E+00  0.93827000000E+00 0. -1.
     999902    2    1    2    0    0 -0.62030998307E-02  0.47334628697E-02 -0.11279162148E-01  0.10302149128E+01  0.10301236154E+01 0.  0.
     999903    2    3    3    0    0 -0.42900716569E-01 -0.12108471527E+00  0.27957541628E-01  0.13964405770E+00  0.47083531757E-01 0.  0.
         14    1    1    2    0    0  0.62030998307E-02 -0.47334628697E-02  0.11279162148E-01  0.13715087204E-01  0.00000000000E+00 0. -1.
     999901    1    3    3    0    0  0.36697616739E-01  0.12581817814E+00 -0.39236703777E-01  0.89057085510E+00  0.88000000000E+00 0. -1.
        -11    1    4    4    0    0  0.36982779158E-02 -0.56686525475E-01  0.17646016906E-01  0.59486825967E-01  0.51100000000E-03 0. -1.
         11    1    4    4    0    0 -0.46598994485E-01 -0.64398189794E-01  0.10311524722E-01  0.80157231732E-01  0.51100000000E-03 0.  1.
</event>
<event>
 8    1  0.2943605E+004  0.1043930E+01  0.7957747E-01            NaN
         13   -1    0    0    0    0  0.00000000000E+00  0.00000000000E+00  0.74505805969E-08  0.10566000000E+00  0.10566000000E+00 0. -1.
     999900   -1    0    0    0    0 -0.00000000000E+00 -0.00000000000E+00 -0.74505805969E-08  0.93827000000E+00  0.93827000000E+00 0.  1.
     999902    2    1    2    0    0  0.28196755300E-02  0.79771202737E-02 -0.95775930665E-02  0.10311505123E+01  0.10310713184E+01 0.  0.
     999903    2    3    3    0    0  0.12737698416E+00 -0.31152429820E-01  0.32512383457E-01  0.14052308682E+00  0.38656343269E-01 0.  0.
         14    1    1    2    0    0 -0.28196755300E-02 -0.79771202737E-02  0.95775930665E-02  0.12779487740E-01  0.00000000000E+00 0. -1.
     999901    1    3    3    0    0 -0.12455730863E+00  0.39129550093E-01 -0.42089976523E-01  0.89062742544E+00  0.88000000000E+00 0.  1.
        -11    1    4    4    0    0  0.43489357428E-01 -0.29959495624E-01  0.12484515856E-01  0.54268037045E-01  0.51100000000E-03 0. -1.
         11    1    4    4    0    0  0.83887626728E-01 -0.11929341960E-02  0.20027867601E-01  0.86255049775E-01  0.51100000000E-03 0.  1.
</event>
<event>
 8    1  0.2943605E+004  0.1043930E+01  0.7957747E-01            NaN
         13   -1    0    0    0    0  0.00000000000E+00  0.00000000000E+00  0.74505805969E-08  0.10566000000E+00  0.10566000000E+00 0. -1.
     999900   -1    0    0    0    0 -0.00000000000E+00 -0.00000000000E+00 -0.74505805969E-08  0.93827000000E+00  0.93827000000E+00 0. -1.
     999902    2    1    2    0    0 -0.13735287078E-01  0.36557627405E-02  0.20581238669E-02  0.10295682945E+01  0.10294681221E+01 0.  0.
     999903    2    3    3    0    0 -0.23541855439E-01 -0.13030929740E+00 -0.31891472027E-02  0.13936026260E+00  0.43317204260E-01 0.  0.
         14    1    1    2    0    0  0.13735287078E-01 -0.36557627405E-02 -0.20581238669E-02  0.14361705545E-01  0.00000000000E+00 0.  1.
     999901    1    3    3    0    0  0.98065683609E-02  0.13396506014E+00  0.52472710696E-02  0.89020803185E+00  0.88000000000E+00 0.  1.
        -11    1    4    4    0    0  0.40828978723E-02 -0.90847317832E-01  0.15592807696E-02  0.90953821744E-01  0.51100000000E-03 0. -1.
         11    1    4    4    0    0 -0.27624753311E-01 -0.39461979573E-01 -0.47484279723E-02  0.48406440857E-01  0.51100000000E-03 0.  1.
</event>
<event>
 8    1  0.2943605E+004  0.1043930E+01  0.7957747E-01            NaN
         13   -1    0    0    0    0  0.00000000000E+00  0.00000000000E+00  0.74505805969E-08  0.10566000000E+00  0.10566000000E+00 0. -1.
     999900   -1    0    0    0    0 -0.00000000000E+00 -0.00000000000E+00 -0.74505805969E-08  0.93827000000E+00  0.93827000000E+00 0. -1.
     999902    2    1    2    0    0  0.58333935788E-02  0.11929064861E-01 -0.51419179994E-02  0.10296902532E+01  0.10295917866E+01 0.  0.
     999903    2    3    3    0    0  0.11190437835E-01  0.11297206172E+00  0.69974780485E-01  0.14071280490E+00  0.44896669475E-01 0.  0.
         14    1    1    2    0    0 -0.58333935788E-02 -0.11929064861E-01  0.51419179994E-02  0.14239746831E-01  0.00000000000E+00 0. -1.
     999901    1    3    3    0    0 -0.53570442565E-02 -0.10104299686E+00 -0.75116698485E-01  0.88897744827E+00  0.88000000000E+00 0. -1.
        -11    1    4    4    0    0  0.15075624886E-01  0.39127207369E-01  0.49206029685E-02  0.42221869650E-01  0.51100000000E-03 0.  1.
         11    1    4    4    0    0 -0.38851870505E-02  0.73844854355E-01  0.65054177517E-01  0.98490935251E-01  0.51100000000E-03 0. -1.
</event>
<event>
 8    1  0.2943605E+004  0.1043930E+01  0.7957747E-01            NaN
         13   -1    0    0    0    0  0.00000000000E+00  0.00000000000E+00  0.74505805969E-08  0.10566000000E+00  0.10566000000E+00 0.  1.
     999900   -1    0    0    0    0 -0.00000000000E+00 -0.00000000000E+00 -0.74505805969E-08  0.93827000000E+00  0.93827000000E+00 0. -1.
     999902    2    1    2    0    0 -0.50155873382E-02  0.11857296657E-01 -0.61281686048E-02  0.10296714569E+01  0.10295727284E+01 0.  0.
     999903    2    3    3    0    0  0.37992810251E-01  0.23497071660E-01 -0.12536013494E+00  0.14051372714E+00  0.45092993648E-01 0.  0.
         14    1    1    2    0    0  0.50155873382E-02 -0.11857296657E-01  0.61281686048E-02  0.14258543082E-01  0.00000000000E+00 0. -1.
     999901    1    3    3    0    0 -0.43008397589E-01 -0.11639775003E-01  0.11923196633E+00  0.88915772978E+00  0.88000000000E+00 0.  1.
        -11    1    4    4    0    0  0.31083758640E-01  0.26496434582E-01 -0.49050637672E-01  0.63831710566E-01  0.51100000000E-03 0. -1.
         11    1    4    4    0    0  0.69090516106E-02 -0.29993629214E-02 -0.76309497266E-01  0.76682016576E-01  0.51100000000E-03 0.  1.
</event>
<event>
 8    1  0.2943605E+004  0.1043930E+01  0.7957747E-01            NaN
         13   -1    0    0    0    0  0.00000000000E+00  0.00000000000E+00  0.74505805969E-08  0.10566000000E+00  0.10566000000E+00 0.  1.
     999900   -1    0    0    0    0 -0.00000000000E+00 -0.00000000000E+00 -0.74505805969E-08  0.93827000000E+00  0.93827000000E+00 0.  1.
     999902    2    1    2    0    0 -0.27207428242E-02  0.12587154300E-01 -0.48461931261E-02  0.10301704767E+01  0.10300785827E+01 0.  0.
     999903    2    3    3    0    0 -0.91451251224E-01 -0.24407017562E-01  0.92809029779E-01  0.13956494420E+00  0.43655741720E-01 0.  0.
         14    1    1    2    0    0  0.27207428242E-02 -0.12587154300E-01  0.48461931261E-02  0.13759523345E-01  0.00000000000E+00 0. -1.
     999901    1    3    3    0    0  0.88730508400E-01  0.36994171861E-01 -0.97655222905E-01  0.89060553245E+00  0.88000000000E+00 0.  1.
        -11    1    4    4    0    0 -0.13646221418E-02  0.82176024250E-03  0.22434780988E-01  0.22497066530E-01  0.51100000000E-03 0. -1.
         11    1    4    4    0    0 -0.90086629082E-01 -0.25228777804E-01  0.70374248792E-01  0.11706787767E+00  0.51100000000E-03 0.  1.
</event>
<event>
 8    1  0.2943605E+004  0.1043930E+01  0.7957747E-01            NaN
         13   -1    0    0    0    0  0.00000000000E+00  0.00000000000E+00  0.74505805969E-08  0.10566000000E+00  0.10566000000E+00 0. -1.
     999900   -1    0    0    0    0 -0.00000000000E+00 -0.00000000000E+00 -0.74505805969E-08  0.93827000000E+00  0.93827000000E+00 0.  1.
     999902    2    1    2    0    0  0.89797227902E-02  0.99864267016E-02  0.65376355590E-03  0.10304841253E+01  0.10303963999E+01 0.  0.
     999903    2    3    3    0    0  0.12499279296E+00 -0.35262049921E-01 -0.31444333410E-01  0.14113787950E+00  0.45437258619E-01 0.  0.
         14    1    1    2    0    0 -0.89797227902E-02 -0.99864267016E-02 -0.65376355590E-03  0.13445874700E-01  0.00000000000E+00 0.  1.
     999901    1    3    3    0    0 -0.11601307017E+00  0.45248476622E-01  0.32098096965E-01  0.88934624580E+00  0.88000000000E+00 0. -1.
        -11    1    4    4    0    0  0.83984686962E-01 -0.46271773715E-02 -0.31862288437E-01  0.89946122540E-01  0.51100000000E-03 0.  1.
         11    1    4    4    0    0  0.41008105996E-01 -0.30634872549E-01  0.41795502765E-03  0.51191756962E-01  0.51100000000E-03 0. -1.
</event>
<event>
 8    1  0.2943605E+004  0.1043930E+01  0.7957747E-01            NaN
         13   -1    0    0    0    0  0.00000000000E+00  0.00000000000E+00  0.74505805969E-08  0.10566000000E+00  0.10566000000E+00 0.  1.
     999900   -1    0    0    0    0 -0.00000000000E+00 -0.00000000000E+00 -0.74505805969E-08  0.93827000000E+00  0.93827000000E+00 0. -1.
     999902    2    1    2    0    0 -0.80148320832E-02 -0.13850230839E-01 -0.11317632993E-01  0.10243301213E+01  0.10241425888E+01 0.  0.
     999903    2    3    3    0    0 -0.15579388466E-01  0.68321957729E-01 -0.10677689901E+00  0.13532957995E+00  0.44745746109E-01 0.  0.
         14    1    1    2    0    0  0.80148320832E-02  0.13850230839E-01  0.11317632993E-01  0.19599878678E-01  0.00000000000E+00 0.  1.
     999901    1    3    3    0    0  0.75645563826E-02 -0.82172188568E-01  0.95459266018E-01  0.88900054137E+00  0.88000000000E+00 0.  1.
        -11    1    4    4    0    0 -0.27172588672E-01  0.52398517621E-01 -0.58135100301E-01  0.82848688777E-01  0.51100000000E-03 0. -1.
         11    1    4    4    0    0  0.11593200206E-01  0.15923440108E-01 -0.48641798710E-01  0.52480891176E-01  0.51100000000E-03 0.  1.
</event>
<event>
 8    1  0.2943605E+004  0.1043930E+01  0.7957747E-01            NaN
         13   -1    0    0    0    0  0.00000000000E+00  0.00000000000E+00  0.74505805969E-08  0.10566000000E+00  0.10566000000E+00 0.  1.
     999900   -1    0    0    0    0 -0.00000000000E+00 -0.00000000000E+00 -0.74505805969E-08  0.93827000000E+00  0.93827000000E+00 0.  1.
     999902    2    1    2    0    0  0.40742815020E-02 -0.96509402951E-02  0.11379368065E-01  0.10284629241E+01  0.10283466127E+01 0.  0.
     999903    2    3    3    0    0 -0.54152273591E-01 -0.11685551439E+00 -0.27701087270E-01  0.13918769429E+00  0.44924203135E-01 0.  0.
         14    1    1    2    0    0 -0.40742815020E-02  0.96509402951E-02 -0.11379368065E-01  0.15467075868E-01  0.00000000000E+00 0. -1.
     999901    1    3    3    0    0  0.58226555093E-01  0.10720457409E+00  0.39080455335E-01  0.88927522984E+00  0.88000000000E+00 0. -1.
        -11    1    4    4    0    0 -0.13567687461E-01 -0.80657225564E-01 -0.12699978363E-01  0.82772101279E-01  0.51100000000E-03 0. -1.
         11    1    4    4    0    0 -0.40584586130E-01 -0.36198288824E-01 -0.15001108906E-01  0.56415593009E-01  0.51100000000E-03 0.  1.
</event>
<event>
 7    1  0.2943605E+004  0.1043930E+01  0.7957747E-01            NaN
         13   -1    0    0    0    0  0.00000000000E+00  0.00000000000E+00  0.74505805969E-08  0.10566000000E+00  0.10566000000E+00 0. -1.
     999900   -1    0    0    0    0 -0.00000000000E+00 -0.00000000000E+00 -0.74505805969E-08  0.93827000000E+00  0.93827000000E+00 0.  1.
     999902    2    1    2    0    0  0.52557170050E-02  0.13166009498E-01 -0.18150224570E-02  0.10296380206E+01  0.10295388253E+01 0.  0.
         14    1    1    2    0    0 -0.52557170050E-02 -0.13166009498E-01  0.18150224570E-02  0.14291979354E-01  0.00000000000E+00 0.  1.
     999901    1    3    3    0    0 -0.12675317071E+00  0.47653336345E-01 -0.22808709027E-01  0.89065001205E+00  0.88000000000E+00 0.  1.
        -11    1    3    3    0    0  0.80899622804E-01 -0.27078957997E-01  0.77062865290E-02  0.85660182752E-01  0.51100000000E-03 0.  1.
         11    1    3    3    0    0  0.51109264912E-01 -0.74083688505E-02  0.13287400041E-01  0.53327825849E-01  0.51100000000E-03 0. -1.
</event>
<event>
 8    1  0.2943605E+004  0.1043930E+01  0.7957747E-01            NaN
         13   -1    0    0    0    0  0.00000000000E+00  0.00000000000E+00  0.74505805969E-08  0.10566000000E+00  0.10566000000E+00 0.  1.
     999900   -1    0    0    0    0 -0.00000000000E+00 -0.00000000000E+00 -0.74505805969E-08  0.93827000000E+00  0.93827000000E+00 0. -1.
     999902    2    1    2    0    0  0.52390877460E-02  0.12661554517E-01 -0.19528894500E-02  0.10300888736E+01  0.10299958790E+01 0.  0.
     999903    2    3    3    0    0 -0.19421379996E-01  0.20871195548E-01  0.12976913194E+00  0.13990561841E+00  0.43826449263E-01 0.  0.
         14    1    1    2    0    0 -0.52390877460E-02 -0.12661554517E-01  0.19528894500E-02  0.13841126414E-01  0.00000000000E+00 0. -1.
     999901    1    3    3    0    0  0.24660467742E-01 -0.82096410313E-02 -0.13172202139E+00  0.89018325517E+00  0.88000000000E+00 0. -1.
        -11    1    4    4    0    0 -0.21682236852E-01  0.13446881625E-01  0.28172439909E-01  0.38011649685E-01  0.51100000000E-03 0. -1.
         11    1    4    4    0    0  0.22608568561E-02  0.74243139233E-02  0.10159669203E+00  0.10189396873E+00  0.51100000000E-03 0.  1.
</event>
<event>
 8    1  0.2943605E+004  0.1043930E+01  0.7957747E-01            NaN
         13   -1    0    0    0    0  0.00000000000E+00  0.00000000000E+00  0.74505805969E-08  0.10566000000E+00  0.10566000000E+00 0. -1.
     999900   -1    0    0    0    0 -0.00000000000E+00 -0.00000000000E+00 -0.74505805969E-08  0.93827000000E+00  0.93827000000E+00 0.  1.
     999902    2    1    2    0    0 -0.24237857477E-02  0.73823817028E-02 -0.10695245347E-01  0.10307102205E+01  0.10306254393E+01 0.  0.
     999903    2    3    3    0    0  0.40391346296E-01  0.58947079309E-01  0.11182896056E+00  0.13969718210E+00  0.43627597375E-01 0.  0.
         14    1    1    2    0    0  0.24237857477E-02 -0.73823817028E-02  0.10695245347E-01  0.13219779499E-01  0.00000000000E+00 0. -1.
     999901    1    3    3    0    0 -0.42815132043E-01 -0.51564697606E-01 -0.12252420590E+00  0.89101303840E+00  0.88000000000E+00 0.  1.
        -11    1    4    4    0    0  0.45455670383E-01  0.40767255310E-01  0.10074511170E+00  0.11780503270E+00  0.51100000000E-03 0. -1.
         11    1    4    4    0    0 -0.50643240869E-02  0.18179823999E-01  0.11083848853E-01  0.21892149403E-01  0.51100000000E-03 0.  1.
</event>
<event>
 8    1  0.2943605E+004  0.1043930E+01  0.7957747E-01            NaN
         13   -1    0    0    0    0  0.00000000000E+00  0.00000000000E+00  0.74505805969E-08  0.10566000000E+00  0.10566000000E+00 0. -1.
     999900   -1    0    0    0    0 -0.00000000000E+00 -0.00000000000E+00 -0.74505805969E-08  0.93827000000E+00  0.93827000000E+00 0.  1.
     999902    2    1    2    0    0  0.88171784729E-02 -0.10092226103E-01  0.32057070972E-02  0.10301505870E+01  0.10300584254E+01 0.  0.
     999903    2    3    3    0    0 -0.40398682890E-01  0.16191556227E-01 -0.12435747178E+00  0.13920423464E+00  0.44931259531E-01 0.  0.
         14    1    1    2    0    0 -0.88171784729E-02  0.10092226103E-01 -0.32057070972E-02  0.13779412975E-01  0.00000000000E+00 0.  1.
     999901    1    3    3    0    0  0.49215861363E-01 -0.26283782330E-01  0.12756317887E+00  0.89094635238E+00  0.88000000000E+00 0. -1.
        -11    1    4    4    0    0 -0.30925448949E-01 -0.49335425258E-02 -0.35330540700E-01  0.47214737759E-01  0.51100000000E-03 0. -1.
         11    1    4    4    0    0 -0.94732339415E-02  0.21125098753E-01 -0.89026931076E-01  0.91989496881E-01  0.51100000000E-03 0.  1.
</event>
<event>
 8    1  0.2943605E+004  0.1043930E+01  0.7957747E-01            NaN
         13   -1    0    0    0    0  0.00000000000E+00  0.00000000000E+00  0.74505805969E-08  0.10566000000E+00  0.10566000000E+00 0.  1.
     999900   -1    0    0    0    0 -0.00000000000E+00 -0.00000000000E+00 -0.74505805969E-08  0.93827000000E+00  0.93827000000E+00 0. -1.
     999902    2    1    2    0    0 -0.49998446654E-02  0.11749661379E-01  0.44326727862E-02  0.10304132853E+01  0.10303246269E+01 0.  0.
     999903    2    3    3    0    0 -0.10396876941E-01  0.10339948040E+00  0.85440963682E-01  0.14193640854E+00  0.45235364441E-01 0.  0.
         14    1    1    2    0    0  0.49998446654E-02 -0.11749661379E-01 -0.44326727862E-02  0.13516714735E-01  0.00000000000E+00 0. -1.
     999901    1    3    3    0    0  0.53970322759E-02 -0.91649819024E-01 -0.81008290896E-01  0.88847687673E+00  0.88000000000E+00 0. -1.
        -11    1    4    4    0    0  0.60126774283E-02  0.63406153744E-01  0.73145962705E-01  0.96990131474E-01  0.51100000000E-03 0. -1.
         11    1    4    4    0    0 -0.16409554370E-01  0.39993326659E-01  0.12295000978E-01  0.44946277064E-01  0.51100000000E-03 0.  1.
</event>
<event>
 8    1  0.2943605E+004  0.1043930E+01  0.7957747E-01            NaN
         13   -1    0    0    0    0  0.00000000000E+00  0.00000000000E+00  0.74505805969E-08  0.10566000000E+00  0.10566000000E+00 0. -1.
     999900   -1    0    0    0    0 -0.00000000000E+00 -0.00000000000E+00 -0.74505805969E-08  0.93827000000E+00  0.93827000000E+00 0. -1.
     999902    2    1    2    0    0 -0.90491006354E-02 -0.34320306055E-03 -0.98234198936E-02  0.10305694765E+01  0.10304828685E+01 0.  0.
     999903    2    3    3    0    0 -0.13309009396E+00  0.12185802338E-01 -0.14592669022E-01  0.14176922347E+00  0.44989997163E-01 0.  0.
         14    1    1    2    0    0  0.90491006354E-02  0.34320306055E-03  0.98234198936E-02  0.13360523532E-01  0.00000000000E+00 0. -1.
     999901    1    3    3    0    0  0.12404099332E+00 -0.12529005398E-01  0.47692491280E-02  0.88880025300E+00  0.88000000000E+00 0. -1.
        -11    1    4    4    0    0 -0.69008658142E-01  0.28034625484E-01 -0.16949307931E-02  0.74506838854E-01  0.51100000000E-03 0. -1.
         11    1    4    4    0    0 -0.64081435815E-01 -0.15848823146E-01 -0.12897738228E-01  0.67262384611E-01  0.51100000000E-03 0.  1.
</event>
<event>
 8    1  0.2943605E+004  0.1043930E+01  0.7957747E-01            NaN
         13   -1    0    0    0    0  0.00000000000E+00  0.00000000000E+00  0.74505805969E-08  0.10566000000E+00  0.10566000000E+00 0.  1.
     999900   -1    0    0    0    0 -0.00000000000E+00 -0.00000000000E+00 -0.74505805969E-08  0.93827000000E+00  0.93827000000E+00 0. -1.
     999902    2    1    2    0    0  0.80431207978E-03 -0.12189727725E-01 -0.62089045843E-02  0.10302264648E+01  0.10301353222E+01 0.  0.
     999903    2    3    3    0    0  0.11552811054E+00  0.10796258692E-01 -0.65100834822E-01  0.14053091862E+00  0.45249495773E-01 0.  0.
         14    1    1    2    0    0 -0.80431207978E-03  0.12189727725E-01  0.62089045843E-02  0.13703535166E-01  0.00000000000E+00 0.  1.
     999901    1    3    3    0    0 -0.11472379846E+00 -0.22985986417E-01  0.58891930238E-01  0.88969554621E+00  0.88000000000E+00 0.  1.
        -11    1    4    4    0    0  0.48484773979E-01 -0.13337946388E-01 -0.42305565690E-01  0.65716787284E-01  0.51100000000E-03 0. -1.
         11    1    4    4    0    0  0.67043336559E-01  0.24134205080E-01 -0.22795269132E-01  0.74814131336E-01  0.51100000000E-03 0.  1.
</event>
<event>
 8    1  0.2943605E+004  0.1043930E+01  0.7957747E-01            NaN
         13   -1    0    0    0    0  0.00000000000E+00  0.00000000000E+00  0.74505805969E-08  0.10566000000E+00  0.10566000000E+00 0.  1.
     999900   -1    0    0    0    0 -0.00000000000E+00 -0.00000000000E+00 -0.74505805969E-08  0.93827000000E+00  0.93827000000E+00 0.  1.
     999902    2    1    2    0    0 -0.12151843420E-02  0.92214023797E-04  0.14490665527E-01  0.10293881788E+01  0.10292854600E+01 0.  0.
     999903    2    3    3    0    0  0.11189439322E+00 -0.46716162442E-01  0.53753407676E-01  0.14004776953E+00  0.44957689511E-01 0.  0.
         14    1    1    2    0    0  0.12151843420E-02 -0.92214023797E-04 -0.14490665527E-01  0.14541821201E-01  0.00000000000E+00 0. -1.
     999901    1    3    3    0    0 -0.11310957756E+00  0.46808376466E-01 -0.39262742149E-01  0.88934040927E+00  0.88000000000E+00 0.  1.
        -11    1    4    4    0    0  0.73200861213E-01 -0.47775371819E-01  0.51081151587E-01  0.10124424627E+00  0.51100000000E-03 0. -1.
         11    1    4    4    0    0  0.38693532003E-01  0.10592093773E-02  0.26722560896E-02  0.38803523255E-01  0.51100000000E-03 0.  1.
</event>
<event>
 8    1  0.2943605E+004  0.1043930E+01  0.7957747E-01            NaN
         13   -1    0    0    0    0  0.00000000000E+00  0.00000000000E+00  0.74505805969E-08  0.10566000000E+00  0.10566000000E+00 0.  1.
     999900   -1    0    0    0    0 -0.00000000000E+00 -0.00000000000E+00 -0.74505805969E-08  0.93827000000E+00  0.93827000000E+00 0.  1.
     999902    2    1    2    0    0 -0.10499510659E-01  0.18799583051E-02  0.86376579974E-02  0.10302047276E+01  0.10301132936E+01 0.  0.
     999903    2    3    3    0    0  0.45656688910E-01 -0.11040782679E+00 -0.55699821105E-01  0.13896885720E+00  0.43993769361E-01 0.  0.
         14    1    1    2    0    0  0.10499510659E-01 -0.18799583051E-02 -0.86376579974E-02  0.13725272419E-01  0.00000000000E+00 0. -1.
     999901    1    3    3    0    0 -0.56156199569E-01  0.11228778509E+00  0.64337479102E-01  0.89123587038E+00  0.88000000000E+00 0. -1.
        -11    1    4    4    0    0 -0.41359655541E-02 -0.37983723713E-01 -0.25905438943E-01  0.46165163988E-01  0.51100000000E-03 0.  1.
         11    1    4    4    0    0  0.49792654464E-01 -0.72424103075E-01 -0.29794382161E-01  0.92803693214E-01  0.51100000000E-03 0. -1.
</event>
<event>
 8    1  0.2943605E+004  0.1043930E+01  0.7957747E-01            NaN
         13   -1    0    0    0    0  0.00000000000E+00  0.00000000000E+00  0.74505805969E-08  0.10566000000E+00  0.10566000000E+00 0. -1.
     999900   -1    0    0    0    0 -0.00000000000E+00 -0.00000000000E+00 -0.74505805969E-08  0.93827000000E+00  0.93827000000E+00 0.  1.
     999902    2    1    2    0    0  0.12597495324E-01 -0.19274944508E-03 -0.67232661539E-02  0.10296493716E+01  0.10295503349E+01 0.  0.
     999903    2    3    3    0    0 -0.11245856932E+00 -0.62958199090E-01  0.19966709269E-01  0.13819501168E+00  0.45700406197E-01 0.  0.
         14    1    1    2    0    0 -0.12597495324E-01  0.19274944508E-03  0.67232661539E-02  0.14280628437E-01  0.00000000000E+00 0. -1.
     999901    1    3    3    0    0  0.12505606465E+00  0.62765449645E-01 -0.26689975423E-01  0.89145435989E+00  0.88000000000E+00 0. -1.
        -11    1    4    4    0    0 -0.40642248049E-01 -0.39723182715E-01 -0.86141803376E-02  0.57482073687E-01  0.51100000000E-03 0. -1.
         11    1    4    4    0    0 -0.71816321272E-01 -0.23235016375E-01  0.28580889606E-01  0.80712937988E-01  0.51100000000E-03 0.  1.
</event>
<event>
 8    1  0.2943605E+004  0.1043930E+01  0.7957747E-01            NaN
         13   -1    0    0    0    0  0.00000000000E+00  0.00000000000E+00  0.74505805969E-08  0.10566000000E+00  0.10566000000E+00 0.  1.
     999900   -1    0    0    0    0 -0.00000000000E+00 -0.00000000000E+00 -0.74505805969E-08  0.93827000000E+00  0.93827000000E+00 0.  1.
     999902    2    1    2    0    0  0.84536878090E-02  0.71045136138E-02  0.91661712641E-02  0.10295787754E+01  0.10294787502E+01 0.  0.
     999903    2    3    3    0    0 -0.10740632853E+00 -0.74849519961E-01 -0.49568879913E-02  0.13809716158E+00  0.43677056355E-01 0.  0.
         14    1    1    2    0    0 -0.84536878090E-02 -0.71045136138E-02 -0.91661712641E-02  0.14351224579E-01  0.00000000000E+00 0. -1.
     999901    1    3    3    0    0  0.11586001634E+00  0.81954033575E-01  0.14123059255E-01  0.89148161384E+00  0.88000000000E+00 0.  1.
        -11    1    4    4    0    0 -0.97486210412E-01 -0.64161508028E-01 -0.18530116334E-01  0.11816889043E+00  0.51100000000E-03 0. -1.
         11    1    4    4    0    0 -0.99201181205E-02 -0.10688011933E-01  0.13573228342E-01  0.19928271155E-01  0.51100000000E-03 0.  1.
</event>
<event>
 8    1  0.2943605E+004  0.1043930E+01  0.7957747E-01            NaN
         13   -1    0    0    0    0  0.00000000000E+00  0.00000000000E+00  0.74505805969E-08  0.10566000000E+00  0.10566000000E+00 0.  1.
     999900   -1    0    0    0    0 -0.00000000000E+00 -0.00000000000E+00 -0.74505805969E-08  0.93827000000E+00  0.93827000000E+00 0.  1.
     999902    2    1    2    0    0  0.27875742354E-02  0.37380832800E-02 -0.13048014834E-01  0.10300737910E+01  0.10299805922E+01 0.  0.
     999903    2    3    3    0    0 -0.76885749788E-01 -0.88135947896E-01 -0.62632545297E-01  0.14032815217E+00  0.45714228944E-01 0.  0.
         14    1    1    2    0    0 -0.27875742354E-02 -0.37380832800E-02  0.13048014834E-01  0.13856208999E-01  0.00000000000E+00 0.  1.
     999901    1    3    3    0    0  0.79673324023E-01  0.91874031176E-01  0.49584530463E-01  0.88974563884E+00  0.88000000000E+00 0.  1.
        -11    1    4    4    0    0 -0.25630268365E-01 -0.31434632389E-02 -0.80276310480E-02  0.27046182704E-01  0.51100000000E-03 0.  1.
         11    1    4    4    0    0 -0.51255481422E-01 -0.84992484657E-01 -0.54604914249E-01  0.11328196946E+00  0.51100000000E-03 0. -1.
</event>
<event>
 8    1  0.2943605E+004  0.1043930E+01  0.7957747E-01            NaN
         13   -1    0    0    0    0  0.00000000000E+00  0.00000000000E+00  0.74505805969E-08  0.10566000000E+00  0.10566000000E+00 0. -1.
     999900   -1    0    0    0    0 -0.00000000000E+00 -0.00000000000E+00 -0.74505805969E-08  0.93827000000E+00  0.93827000000E+00 0. -1.
     999902    2    1    2    0    0 -0.12095187366E-02 -0.42180726713E-02 -0.12825823617E-01  0.10303743066E+01  0.10302851328E+01 0.  0.
     999903    2    3    3    0    0 -0.78047355783E-01  0.10488551269E+00 -0.23462250316E-01  0.14025028201E+00  0.45025591593E-01 0.  0.
         14    1    1    2    0    0  0.12095187366E-02  0.42180726713E-02  0.12825823617E-01  0.13555693419E-01  0.00000000000E+00 0. -1.
     999901    1    3    3    0    0  0.76837837046E-01 -0.10910358536E+00  0.10636426699E-01  0.89012402457E+00  0.88000000000E+00 0. -1.
        -11    1    4    4    0    0 -0.10949225229E-01  0.44705476294E-01 -0.19614793040E-01  0.50034651701E-01  0.51100000000E-03 0.  1.
         11    1    4    4    0    0 -0.67098130553E-01  0.60180036394E-01 -0.38474572756E-02  0.90215630312E-01  0.51100000000E-03 0. -1.
</event>
<event>
 8    1  0.2943605E+004  0.1043930E+01  0.7957747E-01            NaN
         13   -1    0    0    0    0  0.00000000000E+00  0.00000000000E+00  0.74505805969E-08  0.10566000000E+00  0.10566000000E+00 0. -1.
     999900   -1    0    0    0    0 -0.00000000000E+00 -0.00000000000E+00 -0.74505805969E-08  0.93827000000E+00  0.93827000000E+00 0.  1.
     999902    2    1    2    0    0  0.36885207616E-02  0.12563532676E-01  0.37053843299E-02  0.10303220093E+01  0.10302321415E+01 0.  0.
     999903    2    3    3    0    0 -0.11223761259E+00  0.68924494275E-01 -0.19340883310E-01  0.14063298672E+00  0.45339823510E-01 0.  0.
         14    1    1    2    0    0 -0.36885207616E-02 -0.12563532676E-01 -0.37053843299E-02  0.13607990731E-01  0.00000000000E+00 0.  1.
     999901    1    3    3    0    0  0.11592613335E+00 -0.56360961599E-01  0.23046267640E-01  0.88968902255E+00  0.88000000000E+00 0.  1.
        -11    1    4    4    0    0 -0.18381820167E-01  0.26975122992E-01 -0.19107787200E-01  0.37827466552E-01  0.51100000000E-03 0.  1.
         11    1    4    4    0    0 -0.93855792425E-01  0.41949371284E-01 -0.23309610973E-03  0.10280552017E+00  0.51100000000E-03 0. -1.
</event>
<event>
 8    1  0.2943605E+004  0.1043930E+01  0.7957747E-01            NaN
         13   -1    0    0    0    0  0.00000000000E+00  0.00000000000E+00  0.74505805969E-08  0.10566000000E+00  0.10566000000E+00 0.  1.
     999900   -1    0    0    0    0 -0.00000000000E+00 -0.00000000000E+00 -0.74505805969E-08  0.93827000000E+00  0.93827000000E+00 0. -1.
     999902    2    1    2    0    0  0.10517404765E-01 -0.97520066936E-02 -0.19600190140E-02  0.10294538433E+01  0.10293520566E+01 0.  0.
     999903    2    3    3    0    0  0.38110302988E-01 -0.12812427030E+00 -0.16212182505E-02  0.14109947957E+00  0.45146549732E-01 0.  0.
         14    1    1    2    0    0 -0.10517404765E-01  0.97520066936E-02  0.19600190140E-02  0.14476156675E-01  0.00000000000E+00 0. -1.
     999901    1    3    3    0    0 -0.27592898223E-01  0.11837226360E+00 -0.33880076350E-03  0.88835436376E+00  0.88000000000E+00 0.  1.
        -11    1    4    4    0    0  0.11422596901E-01 -0.77780170859E-01  0.18330551573E-01  0.80724847109E-01  0.51100000000E-03 0. -1.
         11    1    4    4    0    0  0.26687706087E-01 -0.50344099437E-01 -0.19951769824E-01  0.60374632458E-01  0.51100000000E-03 0.  1.
</event>
<event>
 8    1  0.2943605E+004  0.1043930E+01  0.7957747E-01            NaN
         13   -1    0    0    0    0  0.00000000000E+00  0.00000000000E+00  0.74505805969E-08  0.10566000000E+00  0.10566000000E+00 0.  1.
     999900   -1    0    0    0    0 -0.00000000000E+00 -0.00000000000E+00 -0.74505805969E-08  0.93827000000E+00  0.93827000000E+00 0. -1.
     999902    2    1    2    0    0  0.46046704388E-02  0.11237004894E-01  0.70383856268E-02  0.10298938987E+01  0.10297982474E+01 0.  0.
     999903    2    3    3    0    0 -0.12162783072E+00  0.64332963665E-02 -0.49824431287E-01  0.13905659593E+00  0.44939363737E-01 0.  0.
         14    1    1    2    0    0 -0.46046704388E-02 -0.11237004894E-01 -0.70383856268E-02  0.14036101349E-01  0.00000000000E+00 0.  1.
     999901    1    3    3    0    0  0.12623250115E+00  0.48037085280E-02  0.56862816914E-01  0.89083730272E+00  0.88000000000E+00 0. -1.
        -11    1    4    4    0    0 -0.35416130159E-01 -0.15352217402E-01 -0.34238492148E-02  0.38755344393E-01  0.51100000000E-03 0.  1.
         11    1    4    4    0    0 -0.86211700557E-01  0.21785513769E-01 -0.46400582072E-01  0.10030125154E+00  0.51100000000E-03 0. -1.
</event>
<event>
 8    1  0.2943605E+004  0.1043930E+01  0.7957747E-01            NaN
         13   -1    0    0    0    0  0.00000000000E+00  0.00000000000E+00  0.74505805969E-08  0.10566000000E+00  0.10566000000E+00 0.  1.
     999900   -1    0    0    0    0 -0.00000000000E+00 -0.00000000000E+00 -0.74505805969E-08  0.93827000000E+00  0.93827000000E+00 0. -1.
     999902    2    1    2    0    0  0.27468684870E-02 -0.78407483287E-02 -0.99047620514E-02  0.10310022418E+01  0.10309211879E+01 0.  0.
     999903    2    3    3    0    0 -0.90560486111E-01  0.58112962452E-01  0.76627980346E-01  0.13940588139E+00  0.44540255323E-01 0.  0.
         14    1    1    2    0    0 -0.27468684870E-02  0.78407483287E-02  0.99047620514E-02  0.12927758202E-01  0.00000000000E+00 0.  1.
     999901    1    3    3    0    0  0.93307354598E-01 -0.65953710781E-01 -0.86532742398E-01  0.89159636041E+00  0.88000000000E+00 0. -1.
        -11    1    4    4    0    0 -0.12785637215E-01  0.22044663925E-01  0.37068225859E-01  0.44986155825E-01  0.51100000000E-03 0. -1.
         11    1    4    4    0    0 -0.77774848896E-01  0.36068298527E-01  0.39559754487E-01  0.94419725563E-01  0.51100000000E-03 0.  1.
</event>
<event>
 8    1  0.2943605E+004  0.1043930E+01  0.7957747E-01            NaN
         13   -1    0    0    0    0  0.00000000000E+00  0.00000000000E+00  0.74505805969E-08  0.10566000000E+00  0.10566000000E+00 0.  1.
     999900   -1    0    0    0    0 -0.00000000000E+00 -0.00000000000E+00 -0.74505805969E-08  0.93827000000E+00  0.93827000000E+00 0. -1.
     999902    2    1    2    0    0 -0.16815067492E-03 -0.13112477967E-01  0.34222347751E-02  0.10303772496E+01  0.10302881148E+01 0.  0.
     999903    2    3    3    0    0  0.67108989467E-01 -0.85157407655E-01 -0.77813893641E-01  0.14115512095E+00  0.45982231154E-01 0.  0.
         14    1    1    2    0    0  0.16815067492E-03  0.13112477967E-01 -0.34222347751E-02  0.13552750420E-01  0.00000000000E+00 0. -1.
     999901    1    3    3    0    0 -0.67277140142E-01  0.72044929689E-01  0.81236128416E-01  0.88922212863E+00  0.88000000000E+00 0.  1.
        -11    1    4    4    0    0  0.15971000984E-01 -0.33506319614E-01 -0.52272525476E-01  0.64112591331E-01  0.51100000000E-03 0. -1.
         11    1    4    4    0    0  0.51137988483E-01 -0.51651088041E-01 -0.25541368166E-01  0.77042529623E-01  0.51100000000E-03 0.  1.
</event>
<event>
 8    1  0.2943605E+004  0.1043930E+01  0.7957747E-01            NaN
         13   -1    0    0    0    0  0.00000000000E+00  0.00000000000E+00  0.74505805969E-08  0.10566000000E+00  0.10566000000E+00 0. -1.
     999900   -1    0    0    0    0 -0.00000000000E+00 -0.00000000000E+00 -0.74505805969E-08  0.93827000000E+00  0.93827000000E+00 0.  1.
     999902    2    1    2    0    0 -0.74673310463E-02  0.47848779912E-02 -0.10410824075E-01  0.10302536939E+01  0.10301629155E+01 0.  0.
     999903    2    3    3    0    0  0.72947648577E-01  0.36581584750E-01  0.10280932804E+00  0.13879623427E+00  0.45111694046E-01 0.  0.
         14    1    1    2    0    0  0.74673310463E-02 -0.47848779912E-02  0.10410824075E-01  0.13676306090E-01  0.00000000000E+00 0. -1.
     999901    1    3    3    0    0 -0.80414979623E-01 -0.31796706758E-01 -0.11322015211E+00  0.89145745964E+00  0.88000000000E+00 0.  1.
        -11    1    4    4    0    0  0.23100746537E-02  0.10806846881E-01  0.37832830567E-01  0.39417110170E-01  0.51100000000E-03 0. -1.
         11    1    4    4    0    0  0.70637573923E-01  0.25774737868E-01  0.64976497470E-01  0.99379124098E-01  0.51100000000E-03 0.  1.
</event>
<event>
 8    1  0.2943605E+004  0.1043930E+01  0.7957747E-01            NaN
         13   -1    0    0    0    0  0.00000000000E+00  0.00000000000E+00  0.74505805969E-08  0.10566000000E+00  0.10566000000E+00 0.  1.
     999900   -1    0    0    0    0 -0.00000000000E+00 -0.00000000000E+00 -0.74505805969E-08  0.93827000000E+00  0.93827000000E+00 0. -1.
     999902    2    1    2    0    0 -0.99837298912E-02  0.77759952647E-02  0.51556419410E-02  0.10302653885E+01  0.10301747663E+01 0.  0.
     999903    2    3    3    0    0 -0.11444892578E-01 -0.72837663863E-01 -0.10915536411E+00  0.13921673482E+00  0.45056574401E-01 0.  0.
         14    1    1    2    0    0  0.99837298912E-02 -0.77759952647E-02 -0.51556419410E-02  0.13664611547E-01  0.00000000000E+00 0.  1.
     999901    1    3    3    0    0  0.14611626871E-02  0.80613659128E-01  0.11431100605E+00  0.89104865363E+00  0.88000000000E+00 0.  1.
        -11    1    4    4    0    0 -0.14378631072E-01 -0.58650163342E-01 -0.50273345368E-01  0.78576440916E-01  0.51100000000E-03 0. -1.
         11    1    4    4    0    0  0.29337384938E-02 -0.14187500522E-01 -0.58882018744E-01  0.60640293906E-01  0.51100000000E-03 0.  1.
</event>
<event>
 8    1  0.2943605E+004  0.1043930E+01  0.7957747E-01            NaN
         13   -1    0    0    0    0  0.00000000000E+00  0.00000000000E+00  0.74505805969E-08  0.10566000000E+00  0.10566000000E+00 0. -1.
     999900   -1    0    0    0    0 -0.00000000000E+00 -0.00000000000E+00 -0.74505805969E-08  0.93827000000E+00  0.93827000000E+00 0. -1.
     999902    2    1    2    0    0 -0.10692498821E-01 -0.88346511708E-02 -0.13627117820E-02  0.10299930859E+01  0.10298987908E+01 0.  0.
     999903    2    3    3    0    0  0.73722193276E-01  0.10319912700E+00 -0.34366131303E-01  0.13827192238E+00  0.43047322141E-01 0.  0.
         14    1    1    2    0    0  0.10692498821E-01  0.88346511708E-02  0.13627117820E-02  0.13936914140E-01  0.00000000000E+00 0. -1.
     999901    1    3    3    0    0 -0.84414692096E-01 -0.11203377817E+00  0.33003419521E-01  0.89172116348E+00  0.88000000000E+00 0. -1.
        -11    1    4    4    0    0  0.34093045788E-01  0.27768297923E-01  0.52834667720E-02  0.44289844014E-01  0.51100000000E-03 0.  1.
         11    1    4    4    0    0  0.39629147488E-01  0.75430829079E-01 -0.39649598075E-01  0.93982078369E-01  0.51100000000E-03 0. -1.
</event>
<event>
 8    1  0.2943605E+004  0.1043930E+01  0.7957747E-01            NaN
         13   -1    0    0    0    0  0.00000000000E+00  0.00000000000E+00  0.74505805969E-08  0.10566000000E+00  0.10566000000E+00 0. -1.
     999900   -1    0    0    0    0 -0.00000000000E+00 -0.00000000000E+00 -0.74505805969E-08  0.93827000000E+00  0.93827000000E+00 0. -1.
     999902    2    1    2    0    0  0.96165023779E-02 -0.15058910988E-03 -0.10409394191E-01  0.10297576578E+01  0.10296601277E+01 0.  0.
     999903    2    3    3    0    0 -0.43291772392E-01  0.36779249464E-01  0.11728120397E+00  0.13820396490E+00  0.46027865061E-01 0.  0.
         14    1    1    2    0    0 -0.96165023779E-02  0.15058910988E-03  0.10409394191E-01  0.14172342167E-01  0.00000000000E+00 0. -1.
     999901    1    3    3    0    0  0.52908274770E-01 -0.36929838574E-01 -0.12769059816E+00  0.89155369293E+00  0.88000000000E+00 0. -1.
        -11    1    4    4    0    0 -0.18675941258E-01  0.13770961685E-01  0.95027138908E-01  0.97820490787E-01  0.51100000000E-03 0.  1.
         11    1    4    4    0    0 -0.24615831134E-01  0.23008287779E-01  0.22254065064E-01  0.40383474118E-01  0.51100000000E-03 0. -1.
</event>
<event>
 8    1  0.2943605E+004  0.1043930E+01  0.7957747E-01            NaN
         13   -1    0    0    0    0  0.00000000000E+00  0.00000000000E+00  0.74505805969E-08  0.10566000000E+00  0.10566000000E+00 0.  1.
     999900   -1    0    0    0    0 -0.00000000000E+00 -0.00000000000E+00 -0.74505805969E-08  0.93827000000E+00  0.93827000000E+00 0.  1.
     999902    2    1    2    0    0  0.43964368049E-02  0.75312518321E-02 -0.10851075839E-01  0.10300089994E+01  0.10299149210E+01 0.  0.
     999903    2    3    3    0    0 -0.90619318499E-01  0.55705944511E-01 -0.79360273265E-01  0.14094077654E+00  0.47447195708E-01 0.  0.
         14    1    1    2    0    0 -0.43964368049E-02 -0.75312518321E-02  0.10851075839E-01  0.13921000596E-01  0.00000000000E+00 0.  1.
     999901    1    3    3    0    0  0.95015755304E-01 -0.48174692679E-01  0.68509197426E-01  0.88906822286E+00  0.88000000000E+00 0.  1.
        -11    1    4    4    0    0 -0.67396702030E-01  0.54559586971E-01 -0.40621434130E-01  0.95757119875E-01  0.51100000000E-03 0. -1.
         11    1    4    4    0    0 -0.23222616469E-01  0.11463575398E-02 -0.38738839135E-01  0.45183656667E-01  0.51100000000E-03 0.  1.
</event>
<event>
 8    1  0.2943605E+004  0.1043930E+01  0.7957747E-01            NaN
         13   -1    0    0    0    0  0.00000000000E+00  0.00000000000E+00  0.74505805969E-08  0.10566000000E+00  0.10566000000E+00 0. -1.
     999900   -1    0    0    0    0 -0.00000000000E+00 -0.00000000000E+00 -0.74505805969E-08  0.93827000000E+00  0.93827000000E+00 0. -1.
     999902    2    1    2    0    0 -0.12625488770E-01 -0.92320161119E-03  0.38655830881E-02  0.10306937618E+01  0.10306087680E+01 0.  0.
     999903    2    3    3    0    0  0.10166470083E+00 -0.15211819234E-01  0.83314460359E-01  0.13963902944E+00  0.44616682970E-01 0.  0.
         14    1    1    2    0    0  0.12625488770E-01  0.92320161119E-03 -0.38655830881E-02  0.13236238155E-01  0.00000000000E+00 0.  1.
     999901    1    3    3    0    0 -0.11429018960E+00  0.14288617623E-01 -0.79448877271E-01  0.89105473240E+00  0.88000000000E+00 0.  1.
        -11    1    4    4    0    0  0.82515469183E-01 -0.55974034386E-02  0.41236407199E-01  0.92416643411E-01  0.51100000000E-03 0. -1.
         11    1    4    4    0    0  0.19149231651E-01 -0.96144157953E-02  0.42078053160E-01  0.47222386033E-01  0.51100000000E-03 0.  1.
</event>
<event>
 8    1  0.2943605E+004  0.1043930E+01  0.7957747E-01            NaN
         13   -1    0    0    0    0  0.00000000000E+00  0.00000000000E+00  0.74505805969E-08  0.10566000000E+00  0.10566000000E+00 0.  1.
     999900   -1    0    0    0    0 -0.00000000000E+00 -0.00000000000E+00 -0.74505805969E-08  0.93827000000E+00  0.93827000000E+00 0. -1.
     999902    2    1    2    0    0  0.42089393080E-02  0.73758130135E-02  0.10292257300E-01  0.10305865241E+01  0.10305001385E+01 0.  0.
     999903    2    3    3    0    0 -0.82816434086E-01 -0.14340643041E-01 -0.10070049766E+00  0.13909092026E+00  0.46276106939E-01 0.  0.
         14    1    1    2    0    0 -0.42089393080E-02 -0.73758130135E-02 -0.10292257300E-01  0.13343475861E-01  0.00000000000E+00 0. -1.
     999901    1    3    3    0    0  0.87025373394E-01  0.21716456054E-01  0.11099275496E+00  0.89149560388E+00  0.88000000000E+00 0.  1.
        -11    1    4    4    0    0 -0.47932506372E-02 -0.13818098493E-01 -0.31765914299E-01  0.34974984345E-01  0.51100000000E-03 0. -1.
         11    1    4    4    0    0 -0.78023183448E-01 -0.52254454750E-03 -0.68934583359E-01  0.10411593592E+00  0.51100000000E-03 0.  1.
</event>
<event>
 8    1  0.2943605E+004  0.1043930E+01  0.7957747E-01            NaN
         13   -1    0    0    0    0  0.00000000000E+00  0.00000000000E+00  0.74505805969E-08  0.10566000000E+00  0.10566000000E+00 0.  1.
     999900   -1    0    0    0    0 -0.00000000000E+00 -0.00000000000E+00 -0.74505805969E-08  0.93827000000E+00  0.93827000000E+00 0. -1.
     999902    2    1    2    0    0  0.46571010346E-03  0.13163792437E-01 -0.51886354855E-02  0.10297728726E+01  0.10296755532E+01 0.  0.
     999903    2    3    3    0    0 -0.31681214838E-01  0.10434825486E+00 -0.78420967086E-01  0.14145367022E+00  0.44351269157E-01 0.  0.
         14    1    1    2    0    0 -0.46571010346E-03 -0.13163792437E-01  0.51886354855E-02  0.14157127372E-01  0.00000000000E+00 0.  1.
     999901    1    3    3    0    0  0.32146924942E-01 -0.91184462419E-01  0.73232331601E-01  0.88831920241E+00  0.88000000000E+00 0.  1.
        -11    1    4    4    0    0 -0.34459576638E-01  0.56830513432E-01 -0.62570255809E-01  0.91282351591E-01  0.51100000000E-03 0.  1.
         11    1    4    4    0    0  0.27783617994E-02  0.47517741424E-01 -0.15850711277E-01  0.50171318632E-01  0.51100000000E-03 0. -1.
</event>
<event>
 8    1  0.2943605E+004  0.1043930E+01  0.7957747E-01            NaN
         13   -1    0    0    0    0  0.00000000000E+00  0.00000000000E+00  0.74505805969E-08  0.10566000000E+00  0.10566000000E+00 0. -1.
     999900   -1    0    0    0    0 -0.00000000000E+00 -0.00000000000E+00 -0.74505805969E-08  0.93827000000E+00  0.93827000000E+00 0.  1.
     999902    2    1    2    0    0  0.10761835635E-03 -0.13678382343E-01 -0.34822250604E-03  0.10302467627E+01  0.10301558916E+01 0.  0.
     999903    2    3    3    0    0  0.60858489747E-01 -0.57129080736E-01  0.10366013838E+00  0.14097944025E+00  0.46500437026E-01 0.  0.
         14    1    1    2    0    0 -0.10761835635E-03  0.13678382343E-01  0.34822250604E-03  0.13683237342E-01  0.00000000000E+00 0. -1.
     999901    1    3    3    0    0 -0.60750871391E-01  0.43450698392E-01 -0.10400836089E+00  0.88926732241E+00  0.88000000000E+00 0.  1.
        -11    1    4    4    0    0 -0.17923256714E-02 -0.11225489052E-01  0.36724340333E-01  0.38446876722E-01  0.51100000000E-03 0.  1.
         11    1    4    4    0    0  0.62650815419E-01 -0.45903591684E-01  0.66935798051E-01  0.10253256353E+00  0.51100000000E-03 0. -1.
</event>
<event>
 8    1  0.2943605E+004  0.1043930E+01  0.7957747E-01            NaN
         13   -1    0    0    0    0  0.00000000000E+00  0.00000000000E+00  0.74505805969E-08  0.10566000000E+00  0.10566000000E+00 0.  1.
     999900   -1    0    0    0    0 -0.00000000000E+00 -0.00000000000E+00 -0.74505805969E-08  0.93827000000E+00  0.93827000000E+00 0.  1.
     999902    2    1    2    0    0 -0.13330152085E-01 -0.40509111027E-02 -0.19734128767E-03  0.10299965231E+01  0.10299022749E+01 0.  0.
     999903    2    3    3    0    0 -0.35951698721E-01  0.50179173780E-01  0.11778697604E+00  0.14018028609E+00  0.44342606615E-01 0.  0.
         14    1    1    2    0    0  0.13330152085E-01  0.40509111027E-02  0.19734128767E-03  0.13933476916E-01  0.00000000000E+00 0. -1.
     999901    1    3    3    0    0  0.22621546636E-01 -0.54230084883E-01 -0.11798431733E+00  0.88981623699E+00  0.88000000000E+00 0.  1.
        -11    1    4    4    0    0 -0.44032994808E-01  0.47305040247E-01  0.88027384796E-01  0.10920509631E+00  0.51100000000E-03 0. -1.
         11    1    4    4    0    0  0.80812960869E-02  0.28741335327E-02  0.29759591247E-01  0.30975189784E-01  0.51100000000E-03 0.  1.
</event>
<event>
 8    1  0.2943605E+004  0.1043930E+01  0.7957747E-01            NaN
         13   -1    0    0    0    0  0.00000000000E+00  0.00000000000E+00  0.74505805969E-08  0.10566000000E+00  0.10566000000E+00 0.  1.
     999900   -1    0    0    0    0 -0.00000000000E+00 -0.00000000000E+00 -0.74505805969E-08  0.93827000000E+00  0.93827000000E+00 0.  1.
     999902    2    1    2    0    0 -0.72713367818E-02 -0.11794924806E-01  0.17785561231E-02  0.10299601807E+01  0.10298654368E+01 0.  0.
     999903    2    3    3    0    0 -0.14136945755E-02 -0.13268160691E+00 -0.22605278909E-01  0.14134188620E+00  0.43129141145E-01 0.  0.
         14    1    1    2    0    0  0.72713367818E-02  0.11794924806E-01 -0.17785561231E-02  0.13969819314E-01  0.00000000000E+00 0. -1.
     999901    1    3    3    0    0 -0.58576422063E-02  0.12088668210E+00  0.24383835033E-01  0.88861829448E+00  0.88000000000E+00 0. -1.
        -11    1    4    4    0    0  0.12648953903E-01 -0.37006968355E-01  0.79767862501E-02  0.39917439567E-01  0.51100000000E-03 0. -1.
         11    1    4    4    0    0 -0.14062648478E-01 -0.95674638554E-01 -0.30582065160E-01  0.10142444663E+00  0.51100000000E-03 0.  1.
</event>
<event>
 8    1  0.2943605E+004  0.1043930E+01  0.7957747E-01            NaN
         13   -1    0    0    0    0  0.00000000000E+00  0.00000000000E+00  0.74505805969E-08  0.10566000000E+00  0.10566000000E+00 0. -1.
     999900   -1    0    0    0    0 -0.00000000000E+00 -0.00000000000E+00 -0.74505805969E-08  0.93827000000E+00  0.93827000000E+00 0.  1.
     999902    2    1    2    0    0 -0.61157327209E-03  0.13581614982E-01  0.19882297455E-02  0.10301900093E+01  0.10300983778E+01 0.  0.
     999903    2    3    3    0    0 -0.12591000199E+00 -0.15654100585E-02  0.42010662638E-01  0.14028500101E+00  0.45378481965E-01 0.  0.
         14    1    1    2    0    0  0.61157327209E-03 -0.13581614982E-01 -0.19882297455E-02  0.13739990717E-01  0.00000000000E+00 0.  1.
     999901    1    3    3    0    0  0.12529842871E+00  0.15147025040E-01 -0.40022432892E-01  0.88990500827E+00  0.88000000000E+00 0.  1.
        -11    1    4    4    0    0 -0.34256644141E-01  0.12785011706E-02  0.33922380540E-01  0.48230086622E-01  0.51100000000E-03 0. -1.
         11    1    4    4    0    0 -0.91653357846E-01 -0.28439112291E-02  0.80882820974E-02  0.92054914393E-01  0.51100000000E-03 0.  1.
</event>
<event>
 8    1  0.2943605E+004  0.1043930E+01  0.7957747E-01            NaN
         13   -1    0    0    0    0  0.00000000000E+00  0.00000000000E+00  0.74505805969E-08  0.10566000000E+00  0.10566000000E+00 0. -1.
     999900   -1    0    0    0    0 -0.00000000000E+00 -0.00000000000E+00 -0.74505805969E-08  0.93827000000E+00  0.93827000000E+00 0.  1.
     999902    2    1    2    0    0  0.17514119221E-02 -0.12226522929E-01  0.94736240219E-02  0.10283638554E+01  0.10282460378E+01 0.  0.
     999903    2    3    3    0    0  0.87938238856E-01 -0.13552317907E-01  0.97983995778E-01  0.13973344131E+00  0.44808169114E-01 0.  0.
         14    1    1    2    0    0 -0.17514119221E-02  0.12226522929E-01 -0.94736240219E-02  0.15566144634E-01  0.00000000000E+00 0. -1.
     999901    1    3    3    0    0 -0.86186826934E-01  0.13257949782E-02 -0.88510371756E-01  0.88863041405E+00  0.88000000000E+00 0.  1.
        -11    1    4    4    0    0  0.57637801598E-01 -0.23422426200E-01  0.84955981345E-01  0.10530197581E+00  0.51100000000E-03 0.  1.
         11    1    4    4    0    0  0.30300437258E-01  0.98701082933E-02  0.13028014433E-01  0.34431465505E-01  0.51100000000E-03 0. -1.
</event>
<event>
 7    1  0.2943605E+004  0.1043930E+01  0.7957747E-01            NaN
         13   -1    0    0    0    0  0.00000000000E+00  0.00000000000E+00  0.74505805969E-08  0.10566000000E+00  0.10566000000E+00 0.  1.
     999900   -1    0    0    0    0 -0.00000000000E+00 -0.00000000000E+00 -0.74505805969E-08  0.93827000000E+00  0.93827000000E+00 0.  1.
     999903    2    1    2    0    0  0.83656942962E-01 -0.40463650694E-01  0.57138851766E-01  0.11793237819E+00  0.44804088112E-01 0.  0.
         14    1    1    2    0    0 -0.19176303977E-01 -0.27936405989E-01  0.16964631723E-01  0.37894223086E-01  0.00000000000E+00 0. -1.
     999901    1    1    2    0    0 -0.64480638985E-01  0.68400056682E-01 -0.74103483489E-01  0.88810339872E+00  0.88000000000E+00 0. -1.
        -11    1    3    3    0    0  0.40728776957E-01 -0.40630015608E-02  0.44072694085E-01  0.60149852360E-01  0.51100000000E-03 0.  1.
         11    1    3    3    0    0  0.42928166005E-01 -0.36400649133E-01  0.13066157682E-01  0.57782525831E-01  0.51100000000E-03 0. -1.
</event>
<event>
 8    1  0.2943605E+004  0.1043930E+01  0.7957747E-01            NaN
         13   -1    0    0    0    0  0.00000000000E+00  0.00000000000E+00  0.74505805969E-08  0.10566000000E+00  0.10566000000E+00 0. -1.
     999900   -1    0    0    0    0 -0.00000000000E+00 -0.00000000000E+00 -0.74505805969E-08  0.93827000000E+00  0.93827000000E+00 0. -1.
     999902    2    1    2    0    0 -0.76475432779E-02 -0.11216726462E-01 -0.25303500272E-02  0.10301204909E+01  0.10300279235E+01 0.  0.
     999903    2    3    3    0    0 -0.10954397373E+00 -0.33208220925E-01  0.69067378351E-01  0.14108014136E+00  0.45062572236E-01 0.  0.
         14    1    1    2    0    0  0.76475432779E-02  0.11216726462E-01  0.25303500272E-02  0.13809509114E-01  0.00000000000E+00 0. -1.
     999901    1    3    3    0    0  0.10189643046E+00  0.21991494464E-01 -0.71597728378E-01  0.88904034952E+00  0.88000000000E+00 0. -1.
        -11    1    4    4    0    0 -0.68212011723E-01  0.14995879905E-02  0.46550120394E-01  0.82597228387E-01  0.51100000000E-03 0.  1.
         11    1    4    4    0    0 -0.41331962012E-01 -0.34707808916E-01  0.22517257956E-01  0.58482912978E-01  0.51100000000E-03 0. -1.
</event>
<event>
 8    1  0.2943605E+004  0.1043930E+01  0.7957747E-01            NaN
         13   -1    0    0    0    0  0.00000000000E+00  0.00000000000E+00  0.74505805969E-08  0.10566000000E+00  0.10566000000E+00 0.  1.
     999900   -1    0    0    0    0 -0.00000000000E+00 -0.00000000000E+00 -0.74505805969E-08  0.93827000000E+00  0.93827000000E+00 0. -1.
     999902    2    1    2    0    0  0.97451519855E-02  0.81217273569E-04  0.98410829387E-02  0.10300800362E+01  0.10299869220E+01 0.  0.
     999903    2    3    3    0    0  0.23999714990E-01  0.38395335077E-01  0.12627941103E+00  0.14146929554E+00  0.44909730079E-01 0.  0.
         14    1    1    2    0    0 -0.97451519855E-02 -0.81217273569E-04 -0.98410829387E-02  0.13849963786E-01  0.00000000000E+00 0. -1.
     999901    1    3    3    0    0 -0.14254563004E-01 -0.38314117804E-01 -0.11643832809E+00  0.88861074067E+00  0.88000000000E+00 0. -1.
        -11    1    4    4    0    0  0.26745471978E-01  0.73894206488E-02  0.87176185453E-01  0.91487005854E-01  0.51100000000E-03 0. -1.
         11    1    4    4    0    0 -0.27457569884E-02  0.31005914429E-01  0.39103225576E-01  0.49982289688E-01  0.51100000000E-03 0.  1.
</event>
<event>
 8    1  0.2943605E+004  0.1043930E+01  0.7957747E-01            NaN
         13   -1    0    0    0    0  0.00000000000E+00  0.00000000000E+00  0.74505805969E-08  0.10566000000E+00  0.10566000000E+00 0.  1.
     999900   -1    0    0    0    0 -0.00000000000E+00 -0.00000000000E+00 -0.74505805969E-08  0.93827000000E+00  0.93827000000E+00 0. -1.
     999902    2    1    2    0    0 -0.12248913737E-01 -0.62202556571E-02 -0.17651342579E-02  0.10300792539E+01  0.10299861291E+01 0.  0.
     999903    2    3    3    0    0  0.20154611037E-02  0.11053537157E+00  0.71585432356E-01  0.13922816956E+00  0.45142869006E-01 0.  0.
         14    1    1    2    0    0  0.12248913737E-01  0.62202556571E-02  0.17651342579E-02  0.13850746086E-01  0.00000000000E+00 0.  1.
     999901    1    3    3    0    0 -0.14264374841E-01 -0.11675562722E+00 -0.73350566614E-01  0.89085108436E+00  0.88000000000E+00 0. -1.
        -11    1    4    4    0    0  0.27105160323E-02  0.42546645575E-01  0.54360509625E-01  0.69086106234E-01  0.51100000000E-03 0.  1.
         11    1    4    4    0    0 -0.69505492863E-03  0.67988725990E-01  0.17224922731E-01  0.70142063323E-01  0.51100000000E-03 0. -1.
</event>
<event>
 8    1  0.2943605E+004  0.1043930E+01  0.7957747E-01            NaN
         13   -1    0    0    0    0  0.00000000000E+00  0.00000000000E+00  0.74505805969E-08  0.10566000000E+00  0.10566000000E+00 0. -1.
     999900   -1    0    0    0    0 -0.00000000000E+00 -0.00000000000E+00 -0.74505805969E-08  0.93827000000E+00  0.93827000000E+00 0. -1.
     999902    2    1    2    0    0  0.10381275127E-01 -0.18676032916E-01 -0.14124543621E-01  0.10183161793E+01  0.10179939947E+01 0.  0.
     999903    2    3    3    0    0  0.93457092065E-02  0.11318848902E+00 -0.37004183311E-01  0.12819663538E+00  0.46541287190E-01 0.  0.
         14    1    1    2    0    0 -0.10381275127E-01  0.18676032916E-01  0.14124543621E-01  0.25613820708E-01  0.00000000000E+00 0. -1.
     999901    1    3    3    0    0  0.10355659205E-02 -0.13186452193E+00  0.22879639690E-01  0.89011954391E+00  0.88000000000E+00 0.  1.
        -11    1    4    4    0    0  0.36404352224E-02  0.21766463190E-01  0.11126485083E-01  0.24720264556E-01  0.51100000000E-03 0. -1.
         11    1    4    4    0    0  0.57052739841E-02  0.91422025828E-01 -0.48130668394E-01  0.10347637082E+00  0.51100000000E-03 0.  1.
</event>
<event>
 8    1  0.2943605E+004  0.1043930E+01  0.7957747E-01            NaN
         13   -1    0    0    0    0  0.00000000000E+00  0.00000000000E+00  0.74505805969E-08  0.10566000000E+00  0.10566000000E+00 0. -1.
     999900   -1    0    0    0    0 -0.00000000000E+00 -0.00000000000E+00 -0.74505805969E-08  0.93827000000E+00  0.93827000000E+00 0.  1.
     999902    2    1    2    0    0 -0.16519077006E-02 -0.48806889460E-02  0.13618869704E-01  0.10293689720E+01  0.10292659797E+01 0.  0.
     999903    2    3    3    0    0  0.39486986792E-01 -0.46345737216E-01  0.11913384567E+00  0.14114311729E+00  0.44959502792E-01 0.  0.
         14    1    1    2    0    0  0.16519077006E-02  0.48806889460E-02 -0.13618869704E-01  0.14561027973E-01  0.00000000000E+00 0.  1.
     999901    1    3    3    0    0 -0.41138894493E-01  0.41465048270E-01 -0.10551497596E+00  0.88822585474E+00  0.88000000000E+00 0.  1.
        -11    1    4    4    0    0  0.23254257594E-01  0.17148327876E-02  0.24869568604E-01  0.34094834084E-01  0.51100000000E-03 0. -1.
         11    1    4    4    0    0  0.16232729199E-01 -0.48060570004E-01  0.94264277063E-01  0.10704828321E+00  0.51100000000E-03 0.  1.
</event>
<event>
 8    1  0.2943605E+004  0.1043930E+01  0.7957747E-01            NaN
         13   -1    0    0    0    0  0.00000000000E+00  0.00000000000E+00  0.74505805969E-08  0.10566000000E+00  0.10566000000E+00 0. -1.
     999900   -1    0    0    0    0 -0.00000000000E+00 -0.00000000000E+00 -0.74505805969E-08  0.93827000000E+00  0.93827000000E+00 0. -1.
     999902    2    1    2    0    0 -0.25616749911E-02  0.12575816629E-01  0.62584784162E-02  0.10296512783E+01  0.10295522682E+01 0.  0.
     999903    2    3    3    0    0  0.11262527434E+00  0.45237591526E-01  0.54093508884E-01  0.14025653182E+00  0.44887580772E-01 0.  0.
         14    1    1    2    0    0  0.25616749911E-02 -0.12575816629E-01 -0.62584784162E-02  0.14278721747E-01  0.00000000000E+00 0. -1.
     999901    1    3    3    0    0 -0.11518694934E+00 -0.32661774897E-01 -0.47835030468E-01  0.88939474643E+00  0.88000000000E+00 0. -1.
        -11    1    4    4    0    0  0.83732207947E-01  0.32415541046E-01  0.16767868671E-01  0.91341515696E-01  0.51100000000E-03 0. -1.
         11    1    4    4    0    0  0.28893066398E-01  0.12822050480E-01  0.37325640214E-01  0.48915016127E-01  0.51100000000E-03 0.  1.
</event>
<event>
 8    1  0.2943605E+004  0.1043930E+01  0.7957747E-01            NaN
         13   -1    0    0    0    0  0.00000000000E+00  0.00000000000E+00  0.74505805969E-08  0.10566000000E+00  0.10566000000E+00 0.  1.
     999900   -1    0    0    0    0 -0.00000000000E+00 -0.00000000000E+00 -0.74505805969E-08  0.93827000000E+00  0.93827000000E+00 0. -1.
     999902    2    1    2    0    0  0.62362262089E-03 -0.48583347184E-02 -0.10901466887E-01  0.10319786695E+01  0.10319094630E+01 0.  0.
     999903    2    3    3    0    0  0.67441768856E-01 -0.94927144130E-01  0.66989986353E-01  0.14144841529E+00  0.44276867986E-01 0.  0.
         14    1    1    2    0    0 -0.62362262089E-03  0.48583347184E-02  0.10901466887E-01  0.11951330541E-01  0.00000000000E+00 0.  1.
     999901    1    3    3    0    0 -0.66818146235E-01  0.90068809412E-01 -0.77891453240E-01  0.89053025416E+00  0.88000000000E+00 0. -1.
        -11    1    4    4    0    0  0.60186803461E-01 -0.64654045537E-01  0.66054567175E-01  0.11029988160E+00  0.51100000000E-03 0. -1.
         11    1    4    4    0    0  0.72549653946E-02 -0.30273098594E-01  0.93541917807E-03  0.31148533695E-01  0.51100000000E-03 0.  1.
</event>
<event>
 8    1  0.2943605E+004  0.1043930E+01  0.7957747E-01            NaN
         13   -1    0    0    0    0  0.00000000000E+00  0.00000000000E+00  0.74505805969E-08  0.10566000000E+00  0.10566000000E+00 0.  1.
     999900   -1    0    0    0    0 -0.00000000000E+00 -0.00000000000E+00 -0.74505805969E-08  0.93827000000E+00  0.93827000000E+00 0. -1.
     999902    2    1    2    0    0  0.11987654583E-02  0.24732918426E-02 -0.13147364473E-01  0.10304984177E+01  0.10304108799E+01 0.  0.
     999903    2    3    3    0    0  0.24012027366E-01  0.12263418868E+00  0.43910374818E-01  0.14020932325E+00  0.45987080973E-01 0.  0.
         14    1    1    2    0    0 -0.11987654583E-02 -0.24732918426E-02  0.13147364473E-01  0.13431582325E-01  0.00000000000E+00 0.  1.
     999901    1    3    3    0    0 -0.22813261908E-01 -0.12016089684E+00 -0.57057739291E-01  0.89028909443E+00  0.88000000000E+00 0. -1.
        -11    1    4    4    0    0 -0.81296639210E-02  0.64730841117E-01  0.10671902849E-01  0.66108425019E-01  0.51100000000E-03 0. -1.
         11    1    4    4    0    0  0.32141691287E-01  0.57903347565E-01  0.33238471969E-01  0.74100898226E-01  0.51100000000E-03 0.  1.
</event>
<event>
 8    1  0.2943605E+004  0.1043930E+01  0.7957747E-01            NaN
         13   -1    0    0    0    0  0.00000000000E+00  0.00000000000E+00  0.74505805969E-08  0.10566000000E+00  0.10566000000E+00 0. -1.
     999900   -1    0    0    0    0 -0.00000000000E+00 -0.00000000000E+00 -0.74505805969E-08  0.93827000000E+00  0.93827000000E+00 0. -1.
     999902    2    1    2    0    0  0.18737197037E-01  0.61727515673E-03 -0.16431103198E-01  0.10190012067E+01  0.10186962327E+01 0.  0.
     999903    2    3    3    0    0  0.93561230604E-01 -0.20383350669E-01  0.76376341012E-01  0.13071471917E+00  0.45648740236E-01 0.  0.
         14    1    1    2    0    0 -0.18737197037E-01 -0.61727515673E-03  0.16431103198E-01  0.24928793267E-01  0.00000000000E+00 0. -1.
     999901    1    3    3    0    0 -0.74824033567E-01  0.21000625825E-01 -0.92807444210E-01  0.88828648756E+00  0.88000000000E+00 0. -1.
        -11    1    4    4    0    0  0.28997845100E-01 -0.48530595271E-02  0.52446867698E-01  0.60127882547E-01  0.51100000000E-03 0.  1.
         11    1    4    4    0    0  0.64563385504E-01 -0.15530291142E-01  0.23929473314E-01  0.70586836625E-01  0.51100000000E-03 0. -1.
</event>
<event>
 8    1  0.2943605E+004  0.1043930E+01  0.7957747E-01            NaN
         13   -1    0    0    0    0  0.00000000000E+00  0.00000000000E+00  0.74505805969E-08  0.10566000000E+00  0.10566000000E+00 0.  1.
     999900   -1    0    0    0    0 -0.00000000000E+00 -0.00000000000E+00 -0.74505805969E-08  0.93827000000E+00  0.93827000000E+00 0. -1.
     999902    2    1    2    0    0 -0.77383007429E-02 -0.88265088787E-02  0.52581102115E-02  0.10310677964E+01  0.10309875676E+01 0.  0.
     999903    2    3    3    0    0  0.47282483115E-01 -0.94987236220E-01  0.81851674866E-01  0.14184480318E+00  0.46497776910E-01 0.  0.
         14    1    1    2    0    0  0.77383007429E-02  0.88265088787E-02 -0.52581102115E-02  0.12862203558E-01  0.00000000000E+00 0.  1.
     999901    1    3    3    0    0 -0.55020783858E-01  0.86160727342E-01 -0.76593564655E-01  0.88922299326E+00  0.88000000000E+00 0. -1.
        -11    1    4    4    0    0  0.49537238917E-01 -0.79634495829E-01  0.49700987412E-01  0.10614160464E+00  0.51100000000E-03 0. -1.
         11    1    4    4    0    0 -0.22547558018E-02 -0.15352740391E-01  0.32150687455E-01  0.35703198541E-01  0.51100000000E-03 0.  1.
</event>
<event>
 8    1  0.2943605E+004  0.1043930E+01  0.7957747E-01            NaN
         13   -1    0    0    0    0  0.00000000000E+00  0.00000000000E+00  0.74505805969E-08  0.10566000000E+00  0.10566000000E+00 0.  1.
     999900   -1    0    0    0    0 -0.00000000000E+00 -0.00000000000E+00 -0.74505805969E-08  0.93827000000E+00  0.93827000000E+00 0. -1.
     999902    2    1    2    0    0 -0.94751434587E-02 -0.10108387269E-01  0.88251524406E-03  0.10300470367E+01  0.10299534752E+01 0.  0.
     999903    2    3    3    0    0  0.33405330373E-01 -0.26001891822E-01  0.12237743878E+00  0.14052336925E+00  0.54576233902E-01 0.  0.
         14    1    1    2    0    0  0.94751434587E-02  0.10108387269E-01 -0.88251524406E-03  0.13882963296E-01  0.00000000000E+00 0. -1.
     999901    1    3    3    0    0 -0.42880473832E-01  0.15893504554E-01 -0.12149492353E+00  0.88952366746E+00  0.88000000000E+00 0. -1.
        -11    1    4    4    0    0  0.41508749842E-01 -0.32934592675E-01  0.74210178056E-01  0.91187035023E-01  0.51100000000E-03 0.  1.
         11    1    4    4    0    0 -0.81034194688E-02  0.69327008534E-02  0.48167260721E-01  0.49336334223E-01  0.51100000000E-03 0. -1.
</event>
<event>
 8    1  0.2943605E+004  0.1043930E+01  0.7957747E-01            NaN
         13   -1    0    0    0    0  0.00000000000E+00  0.00000000000E+00  0.74505805969E-08  0.10566000000E+00  0.10566000000E+00 0. -1.
     999900   -1    0    0    0    0 -0.00000000000E+00 -0.00000000000E+00 -0.74505805969E-08  0.93827000000E+00  0.93827000000E+00 0.  1.
     999902    2    1    2    0    0  0.83385177775E-02  0.74098776801E-02  0.92894826555E-02  0.10294134007E+01  0.10293110404E+01 0.  0.
     999903    2    3    3    0    0 -0.86449588071E-01 -0.63339513842E-01  0.74009293968E-01  0.13914438781E+00  0.48973051513E-01 0.  0.
         14    1    1    2    0    0 -0.83385177775E-02 -0.74098776801E-02 -0.92894826555E-02  0.14516599256E-01  0.00000000000E+00 0.  1.
     999901    1    3    3    0    0  0.94788105848E-01  0.70749391522E-01 -0.64719811312E-01  0.89026901293E+00  0.88000000000E+00 0.  1.
        -11    1    4    4    0    0 -0.77695879134E-01 -0.55050050987E-01  0.40407557173E-01  0.10344172053E+00  0.51100000000E-03 0.  1.
         11    1    4    4    0    0 -0.87537089371E-02 -0.82894628554E-02  0.33601736794E-01  0.35702667284E-01  0.51100000000E-03 0. -1.
</event>
<event>
 8    1  0.2943605E+004  0.1043930E+01  0.7957747E-01            NaN
         13   -1    0    0    0    0  0.00000000000E+00  0.00000000000E+00  0.74505805969E-08  0.10566000000E+00  0.10566000000E+00 0. -1.
     999900   -1    0    0    0    0 -0.00000000000E+00 -0.00000000000E+00 -0.74505805969E-08  0.93827000000E+00  0.93827000000E+00 0.  1.
     999902    2    1    2    0    0 -0.10174820751E-01  0.84206748239E-02 -0.47601315225E-02  0.10298909974E+01  0.10297953063E+01 0.  0.
     999903    2    3    3    0    0  0.63187073889E-01  0.87027565864E-01  0.77009764393E-01  0.13958356355E+00  0.44572007734E-01 0.  0.
         14    1    1    2    0    0  0.10174820751E-01 -0.84206748239E-02  0.47601315225E-02  0.14039002597E-01  0.00000000000E+00 0.  1.
     999901    1    3    3    0    0 -0.73361894639E-01 -0.78606891040E-01 -0.81769895916E-01  0.89030743386E+00  0.88000000000E+00 0.  1.
        -11    1    4    4    0    0  0.24977547704E-01  0.89702729938E-02  0.56668478191E-02  0.27142549108E-01  0.51100000000E-03 0.  1.
         11    1    4    4    0    0  0.38209526185E-01  0.78057292870E-01  0.71342916574E-01  0.11244101444E+00  0.51100000000E-03 0. -1.
</event>
<event>
 8    1  0.2943605E+004  0.1043930E+01  0.7957747E-01            NaN
         13   -1    0    0    0    0  0.00000000000E+00  0.00000000000E+00  0.74505805969E-08  0.10566000000E+00  0.10566000000E+00 0. -1.
     999900   -1    0    0    0    0 -0.00000000000E+00 -0.00000000000E+00 -0.74505805969E-08  0.93827000000E+00  0.93827000000E+00 0. -1.
     999902    2    1    2    0    0 -0.11906612084E-01  0.65662292179E-02 -0.39735594405E-02  0.10297641272E+01  0.10296666867E+01 0.  0.
     999903    2    3    3    0    0  0.12021243364E+00  0.34555771306E-01  0.38851664684E-01  0.13843205860E+00  0.44820223860E-01 0.  0.
         14    1    1    2    0    0  0.11906612084E-01 -0.65662292179E-02  0.39735594405E-02  0.14165872797E-01  0.00000000000E+00 0. -1.
     999901    1    3    3    0    0 -0.13211904572E+00 -0.27989542088E-01 -0.42825224125E-01  0.89133206861E+00  0.88000000000E+00 0. -1.
        -11    1    4    4    0    0  0.54167195683E-01  0.41199373026E-02  0.36919403098E-01  0.65683806358E-01  0.51100000000E-03 0.  1.
         11    1    4    4    0    0  0.66045237953E-01  0.30435834003E-01  0.19322615866E-02  0.72748252237E-01  0.51100000000E-03 0. -1.
</event>
<event>
 8    1  0.2943605E+004  0.1043930E+01  0.7957747E-01            NaN
         13   -1    0    0    0    0  0.00000000000E+00  0.00000000000E+00  0.74505805969E-08  0.10566000000E+00  0.10566000000E+00 0.  1.
     999900   -1    0    0    0    0 -0.00000000000E+00 -0.00000000000E+00 -0.74505805969E-08  0.93827000000E+00  0.93827000000E+00 0. -1.
     999902    2    1    2    0    0 -0.10694338051E-01  0.89022174521E-02 -0.63533463776E-03  0.10300008223E+01  0.10299066326E+01 0.  0.
     999903    2    3    3    0    0  0.10737872136E+00 -0.67566330190E-01 -0.27775645407E-01  0.13841499769E+00  0.47873023006E-01 0.  0.
         14    1    1    2    0    0  0.10694338051E-01 -0.89022174521E-02  0.63533463776E-03  0.13929177722E-01  0.00000000000E+00 0.  1.
     999901    1    3    3    0    0 -0.11807305941E+00  0.76468547642E-01  0.27140310769E-01  0.89158582459E+00  0.88000000000E+00 0. -1.
        -11    1    4    4    0    0  0.67054314120E-01 -0.54182500101E-01  0.24912713667E-02  0.86246692188E-01  0.51100000000E-03 0.  1.
         11    1    4    4    0    0  0.40324407239E-01 -0.13383830089E-01 -0.30266916773E-01  0.52168305502E-01  0.51100000000E-03 0. -1.
</event>
<event>
 8    1  0.2943605E+004  0.1043930E+01  0.7957747E-01            NaN
         13   -1    0    0    0    0  0.00000000000E+00  0.00000000000E+00  0.74505805969E-08  0.10566000000E+00  0.10566000000E+00 0. -1.
     999900   -1    0    0    0    0 -0.00000000000E+00 -0.00000000000E+00 -0.74505805969E-08  0.93827000000E+00  0.93827000000E+00 0.  1.
     999902    2    1    2    0    0 -0.11502982043E-01 -0.80188310160E-02 -0.34804042800E-02  0.10294823891E+01  0.10293810062E+01 0.  0.
     999903    2    3    3    0    0 -0.50425478542E-01  0.49326048310E-01  0.11140435584E+00  0.13931279626E+00  0.44959279053E-01 0.  0.
         14    1    1    2    0    0  0.11502982043E-01  0.80188310160E-02  0.34804042800E-02  0.14447610899E-01  0.00000000000E+00 0. -1.
     999901    1    3    3    0    0  0.38922496500E-01 -0.57344879326E-01 -0.11488476012E+00  0.89016959285E+00  0.88000000000E+00 0.  1.
        -11    1    4    4    0    0 -0.63348940857E-02  0.19916348663E-01  0.66920059669E-02  0.21950760625E-01  0.51100000000E-03 0. -1.
         11    1    4    4    0    0 -0.44090584457E-01  0.29409699647E-01  0.10471234987E+00  0.11736203563E+00  0.51100000000E-03 0.  1.
</event>
<event>
 8    1  0.2943605E+004  0.1043930E+01  0.7957747E-01            NaN
         13   -1    0    0    0    0  0.00000000000E+00  0.00000000000E+00  0.74505805969E-08  0.10566000000E+00  0.10566000000E+00 0. -1.
     999900   -1    0    0    0    0 -0.00000000000E+00 -0.00000000000E+00 -0.74505805969E-08  0.93827000000E+00  0.93827000000E+00 0.  1.
     999902    2    1    2    0    0  0.61090291374E-02  0.93347103399E-02 -0.81213041108E-02  0.10301309915E+01  0.10300385658E+01 0.  0.
     999903    2    3    3    0    0  0.21172693631E-01 -0.44558896632E-01 -0.12237337424E+00  0.14098253915E+00  0.49669461419E-01 0.  0.
         14    1    1    2    0    0 -0.61090291374E-02 -0.93347103399E-02  0.81213041108E-02  0.13799008464E-01  0.00000000000E+00 0. -1.
     999901    1    3    3    0    0 -0.15063664493E-01  0.53893606972E-01  0.11425207012E+00  0.88914845239E+00  0.88000000000E+00 0. -1.
        -11    1    4    4    0    0 -0.14458815846E-01 -0.11051863351E-01 -0.53454223933E-01  0.56469604359E-01  0.51100000000E-03 0.  1.
         11    1    4    4    0    0  0.35631509476E-01 -0.33507033281E-01 -0.68919150303E-01  0.84512934787E-01  0.51100000000E-03 0. -1.
</event>
<event>
 8    1  0.2943605E+004  0.1043930E+01  0.7957747E-01            NaN
         13   -1    0    0    0    0  0.00000000000E+00  0.00000000000E+00  0.74505805969E-08  0.10566000000E+00  0.10566000000E+00 0. -1.
     999900   -1    0    0    0    0 -0.00000000000E+00 -0.00000000000E+00 -0.74505805969E-08  0.93827000000E+00  0.93827000000E+00 0. -1.
     999902    2    1    2    0    0 -0.30196298488E-02  0.51302222204E-02  0.14026522051E-01  0.10286925243E+01  0.10285796658E+01 0.  0.
     999903    2    3    3    0    0  0.12081239772E+00 -0.44020003104E-02  0.52049575645E-01  0.13915838392E+00  0.45176149046E-01 0.  0.
         14    1    1    2    0    0  0.30196298488E-02 -0.51302222204E-02 -0.14026522051E-01  0.15237475686E-01  0.00000000000E+00 0.  1.
     999901    1    3    3    0    0 -0.12383202756E+00  0.95322225308E-02 -0.38023053595E-01  0.88953414039E+00  0.88000000000E+00 0.  1.
        -11    1    4    4    0    0  0.53241276787E-01  0.19887640679E-01  0.28553616185E-01  0.63605989686E-01  0.51100000000E-03 0. -1.
         11    1    4    4    0    0  0.67571120928E-01 -0.24289640990E-01  0.23495959461E-01  0.75552394236E-01  0.51100000000E-03 0.  1.
</event>
<event>
 8    1  0.2943605E+004  0.1043930E+01  0.7957747E-01            NaN
         13   -1    0    0    0    0  0.00000000000E+00  0.00000000000E+00  0.74505805969E-08  0.10566000000E+00  0.10566000000E+00 0. -1.
     999900   -1    0    0    0    0 -0.00000000000E+00 -0.00000000000E+00 -0.74505805969E-08  0.93827000000E+00  0.93827000000E+00 0.  1.
     999902    2    1    2    0    0  0.18640247238E-02  0.81681229596E-02 -0.11294634111E-01  0.10298672271E+01  0.10297712095E+01 0.  0.
     999903    2    3    3    0    0 -0.99271199331E-02 -0.33492091689E-01 -0.13074581175E+00  0.14074227056E+00  0.38647787962E-01 0.  0.
         14    1    1    2    0    0 -0.18640247238E-02 -0.81681229596E-02  0.11294634111E-01  0.14062772862E-01  0.00000000000E+00 0. -1.
     999901    1    3    3    0    0  0.11791144657E-01  0.41660214648E-01  0.11945117764E+00  0.88912495658E+00  0.88000000000E+00 0. -1.
        -11    1    4    4    0    0  0.12232564893E-01 -0.25922673751E-01 -0.72866568449E-01  0.78303375258E-01  0.51100000000E-03 0. -1.
         11    1    4    4    0    0 -0.22159684827E-01 -0.75694179379E-02 -0.57879243305E-01  0.62438895298E-01  0.51100000000E-03 0.  1.
</event>
<event>
 8    1  0.2943605E+004  0.1043930E+01  0.7957747E-01            NaN
         13   -1    0    0    0    0  0.00000000000E+00  0.00000000000E+00  0.74505805969E-08  0.10566000000E+00  0.10566000000E+00 0. -1.
     999900   -1    0    0    0    0 -0.00000000000E+00 -0.00000000000E+00 -0.74505805969E-08  0.93827000000E+00  0.93827000000E+00 0.  1.
     999902    2    1    2    0    0  0.93255097557E-02 -0.13357180139E-02  0.99622599655E-02  0.10302188404E+01  0.10301275956E+01 0.  0.
     999903    2    3    3    0    0  0.62631997947E-01 -0.11207564413E+00 -0.36068501499E-01  0.14048644019E+00  0.44179021084E-01 0.  0.
         14    1    1    2    0    0 -0.93255097557E-02  0.13357180139E-02 -0.99622599655E-02  0.13711159631E-01  0.00000000000E+00 0.  1.
     999901    1    3    3    0    0 -0.53306488191E-01  0.11073992612E+00  0.46030761464E-01  0.88973240017E+00  0.88000000000E+00 0.  1.
        -11    1    4    4    0    0  0.24249290819E-01 -0.30697379554E-01  0.85610391568E-02  0.40048841796E-01  0.51100000000E-03 0. -1.
         11    1    4    4    0    0  0.38382707128E-01 -0.81378264576E-01 -0.44629540656E-01  0.10043759840E+00  0.51100000000E-03 0.  1.
</event>
<event>
 8    1  0.2943605E+004  0.1043930E+01  0.7957747E-01            NaN
         13   -1    0    0    0    0  0.00000000000E+00  0.00000000000E+00  0.74505805969E-08  0.10566000000E+00  0.10566000000E+00 0. -1.
     999900   -1    0    0    0    0 -0.00000000000E+00 -0.00000000000E+00 -0.74505805969E-08  0.93827000000E+00  0.93827000000E+00 0. -1.
     999902    2    1    2    0    0 -0.26294777591E-02  0.14197146479E-02  0.13067772072E-01  0.10305249110E+01  0.10304377205E+01 0.  0.
     999903    2    3    3    0    0 -0.31059817485E-01  0.11261607150E+00  0.65892237747E-01  0.14150109912E+00  0.45096366085E-01 0.  0.
         14    1    1    2    0    0  0.26294777591E-02 -0.14197146479E-02 -0.13067772072E-01  0.13405088955E-01  0.00000000000E+00 0.  1.
     999901    1    3    3    0    0  0.28430339725E-01 -0.11119635686E+00 -0.52824465675E-01  0.88902381192E+00  0.88000000000E+00 0.  1.
        -11    1    4    4    0    0 -0.30353920722E-01  0.30583892555E-01  0.25301605990E-01  0.49971665709E-01  0.51100000000E-03 0.  1.
         11    1    4    4    0    0 -0.70589676206E-03  0.82032178949E-01  0.40590631756E-01  0.91529433412E-01  0.51100000000E-03 0. -1.
</event>
<event>
 8    1  0.2943605E+004  0.1043930E+01  0.7957747E-01            NaN
         13   -1    0    0    0    0  0.00000000000E+00  0.00000000000E+00  0.74505805969E-08  0.10566000000E+00  0.10566000000E+00 0.  1.
     999900   -1    0    0    0    0 -0.00000000000E+00 -0.00000000000E+00 -0.74505805969E-08  0.93827000000E+00  0.93827000000E+00 0.  1.
     999902    2    1    2    0    0  0.15422437664E-02  0.10586605651E-01 -0.11760630509E-01  0.10280313471E+01  0.10279084022E+01 0.  0.
     999903    2    3    3    0    0 -0.61736084830E-01 -0.98745526357E-02  0.11291883474E+00  0.13675822679E+00  0.45202858278E-01 0.  0.
         14    1    1    2    0    0 -0.15422437664E-02 -0.10586605651E-01  0.11760630509E-01  0.15898652931E-01  0.00000000000E+00 0.  1.
     999901    1    3    3    0    0  0.63278328597E-01  0.20461158287E-01 -0.12467946525E+00  0.89127312027E+00  0.88000000000E+00 0.  1.
        -11    1    4    4    0    0 -0.13233420826E-02 -0.11188897018E-01  0.42472968075E-01  0.43944929046E-01  0.51100000000E-03 0. -1.
         11    1    4    4    0    0 -0.60412742748E-01  0.13143443827E-02  0.70445866667E-01  0.92813297748E-01  0.51100000000E-03 0.  1.
</event>
<event>
 8    1  0.2943605E+004  0.1043930E+01  0.7957747E-01            NaN
         13   -1    0    0    0    0  0.00000000000E+00  0.00000000000E+00  0.74505805969E-08  0.10566000000E+00  0.10566000000E+00 0. -1.
     999900   -1    0    0    0    0 -0.00000000000E+00 -0.00000000000E+00 -0.74505805969E-08  0.93827000000E+00  0.93827000000E+00 0. -1.
     999902    2    1    2    0    0 -0.19142884309E-01 -0.12313698647E-01  0.80315130360E-02  0.10197932563E+01  0.10195075788E+01 0.  0.
     999903    2    3    3    0    0  0.53341206536E-01 -0.56349124609E-01  0.95812548170E-01  0.13136848612E+00  0.45355557545E-01 0.  0.
         14    1    1    2    0    0  0.19142884309E-01  0.12313698647E-01 -0.80315130360E-02  0.24136743684E-01  0.00000000000E+00 0.  1.
     999901    1    3    3    0    0 -0.72484090844E-01  0.44035425961E-01 -0.87781035134E-01  0.88842477019E+00  0.88000000000E+00 0.  1.
        -11    1    4    4    0    0  0.41613940577E-01 -0.15427004464E-01  0.65441169654E-01  0.79072879825E-01  0.51100000000E-03 0.  1.
         11    1    4    4    0    0  0.11727265958E-01 -0.40922120145E-01  0.30371378516E-01  0.52295606297E-01  0.51100000000E-03 0. -1.
</event>
<event>
 8    1  0.2943605E+004  0.1043930E+01  0.7957747E-01            NaN
         13   -1    0    0    0    0  0.00000000000E+00  0.00000000000E+00  0.74505805969E-08  0.10566000000E+00  0.10566000000E+00 0. -1.
     999900   -1    0    0    0    0 -0.00000000000E+00 -0.00000000000E+00 -0.74505805969E-08  0.93827000000E+00  0.93827000000E+00 0. -1.
     999902    2    1    2    0    0 -0.40740105772E-02 -0.12897200197E-01  0.62795970716E-02  0.10290179688E+01  0.10289099142E+01 0.  0.
     999903    2    3    3    0    0  0.74770574468E-01  0.94003489293E-01  0.51691562518E-01  0.13789144994E+00  0.43757736762E-01 0.  0.
         14    1    1    2    0    0  0.40740105772E-02  0.12897200197E-01 -0.62795970716E-02  0.14912031199E-01  0.00000000000E+00 0.  1.
     999901    1    3    3    0    0 -0.78844585046E-01 -0.10690068949E+00 -0.45411965447E-01  0.89112651886E+00  0.88000000000E+00 0.  1.
        -11    1    4    4    0    0  0.41431295107E-02  0.36220151740E-01  0.12063964512E-01  0.38403974729E-01  0.51100000000E-03 0.  1.
         11    1    4    4    0    0  0.70627444958E-01  0.57783337553E-01  0.39627598006E-01  0.99487475215E-01  0.51100000000E-03 0. -1.
</event>
<event>
 8    1  0.2943605E+004  0.1043930E+01  0.7957747E-01            NaN
         13   -1    0    0    0    0  0.00000000000E+00  0.00000000000E+00  0.74505805969E-08  0.10566000000E+00  0.10566000000E+00 0.  1.
     999900   -1    0    0    0    0 -0.00000000000E+00 -0.00000000000E+00 -0.74505805969E-08  0.93827000000E+00  0.93827000000E+00 0. -1.
     999902    2    1    2    0    0  0.25634497855E-02  0.15195168359E-01  0.21546178963E-02  0.10283702187E+01  0.10282524981E+01 0.  0.
     999903    2    3    3    0    0 -0.34727837816E-01  0.69605852776E-01 -0.10605434545E+00  0.13929185180E+00  0.45866091280E-01 0.  0.
         14    1    1    2    0    0 -0.25634497855E-02 -0.15195168359E-01 -0.21546178963E-02  0.15559781314E-01  0.00000000000E+00 0.  1.
     999901    1    3    3    0    0  0.37291287602E-01 -0.54410684417E-01  0.10820896335E+00  0.88907836688E+00  0.88000000000E+00 0.  1.
        -11    1    4    4    0    0 -0.42569572253E-01  0.37479061769E-01 -0.59701207568E-01  0.82348915347E-01  0.51100000000E-03 0.  1.
         11    1    4    4    0    0  0.78417344370E-02  0.32126791007E-01 -0.46353137885E-01  0.56942936456E-01  0.51100000000E-03 0. -1.
</event>
