<event>
 8    1  0.1064839E+005  0.1043930E+01  0.7957747E-01            NaN
         13   -1    0    0    0    0  0.00000000000E+00  0.00000000000E+00  0.74505805969E-08  0.10566000000E+00  0.10566000000E+00 0. -1.
     999900   -1    0    0    0    0 -0.00000000000E+00 -0.00000000000E+00 -0.74505805969E-08  0.93827000000E+00  0.93827000000E+00 0. -1.
     999902    2    1    2    0    0 -0.52607447683E-02 -0.66020639614E-02  0.22252389797E-01  0.10201301778E+01  0.10198525129E+01 0.  0.
     999903    2    3    3    0    0  0.11813450144E+00  0.49163015591E-01  0.46881172828E-02  0.12959964238E+00  0.20033130811E-01 0.  0.
         14    1    1    2    0    0  0.52607447683E-02  0.66020639614E-02 -0.22252389797E-01  0.23799822179E-01  0.00000000000E+00 0.  1.
     999901    1    3    3    0    0 -0.12339524620E+00 -0.55765079553E-01  0.17564272514E-01  0.89053053544E+00  0.88000000000E+00 0. -1.
        -11    1    4    4    0    0  0.33356583276E-01  0.23930969446E-01  0.19608153197E-02  0.41103027433E-01  0.51100000000E-03 0.  1.
         11    1    4    4    0    0  0.84777918160E-01  0.25232046146E-01  0.27273019631E-02  0.88496614948E-01  0.51100000000E-03 0. -1.
</event>
<event>
 8    1  0.1064839E+005  0.1043930E+01  0.7957747E-01            NaN
         13   -1    0    0    0    0  0.00000000000E+00  0.00000000000E+00  0.74505805969E-08  0.10566000000E+00  0.10566000000E+00 0.  1.
     999900   -1    0    0    0    0 -0.00000000000E+00 -0.00000000000E+00 -0.74505805969E-08  0.93827000000E+00  0.93827000000E+00 0. -1.
     999902    2    1    2    0    0 -0.11226129982E-01  0.18054590877E-01  0.10001889064E-01  0.10204346381E+01  0.10201641136E+01 0.  0.
     999903    2    3    3    0    0  0.59819878134E-01  0.11566311904E+00 -0.78598322538E-02  0.13201244053E+00  0.20227025659E-01 0.  0.
         14    1    1    2    0    0  0.11226129982E-01 -0.18054590877E-01 -0.10001889064E-01  0.23495361903E-01  0.00000000000E+00 0. -1.
     999901    1    3    3    0    0 -0.71046008116E-01 -0.97608528159E-01  0.17861721318E-01  0.88842219757E+00  0.88000000000E+00 0. -1.
        -11    1    4    4    0    0  0.40707647310E-01  0.92817106556E-01 -0.11487813185E-01  0.10200175877E+00  0.51100000000E-03 0. -1.
         11    1    4    4    0    0  0.19112230824E-01  0.22846012480E-01  0.36279809308E-02  0.30010681764E-01  0.51100000000E-03 0.  1.
</event>
<event>
 8    1  0.1064839E+005  0.1043930E+01  0.7957747E-01            NaN
         13   -1    0    0    0    0  0.00000000000E+00  0.00000000000E+00  0.74505805969E-08  0.10566000000E+00  0.10566000000E+00 0. -1.
     999900   -1    0    0    0    0 -0.00000000000E+00 -0.00000000000E+00 -0.74505805969E-08  0.93827000000E+00  0.93827000000E+00 0.  1.
     999902    2    1    2    0    0 -0.66387291759E-02 -0.33086556619E-02  0.20274891016E-01  0.10223408561E+01  0.10221128778E+01 0.  0.
     999903    2    3    3    0    0  0.62451866398E-01  0.11004091303E+00 -0.27914262738E-01  0.13108116914E+00  0.19845117283E-01 0.  0.
         14    1    1    2    0    0  0.66387291759E-02  0.33086556619E-02 -0.20274891016E-01  0.21589143871E-01  0.00000000000E+00 0.  1.
     999901    1    3    3    0    0 -0.69090595574E-01 -0.11334956869E+00  0.48189153754E-01  0.89125968699E+00  0.88000000000E+00 0. -1.
        -11    1    4    4    0    0  0.59654253414E-01  0.10040204915E+00 -0.20455355765E-01  0.11856594842E+00  0.51100000000E-03 0. -1.
         11    1    4    4    0    0  0.27976129847E-02  0.96388638848E-02 -0.74589069737E-02  0.12515220719E-01  0.51100000000E-03 0.  1.
</event>
<event>
 8    1  0.1217179E+005  0.1043930E+01  0.7957747E-01            NaN
         13   -1    0    0    0    0  0.00000000000E+00  0.00000000000E+00  0.74505805969E-08  0.10566000000E+00  0.10566000000E+00 0.  1.
     999900   -1    0    0    0    0 -0.00000000000E+00 -0.00000000000E+00 -0.74505805969E-08  0.93827000000E+00  0.93827000000E+00 0.  1.
     999902    2    1    2    0    0 -0.51609421790E-02 -0.18936587095E-01 -0.12524189356E-01  0.10206472816E+01  0.10203816877E+01 0.  0.
     999903    2    3    3    0    0 -0.11301586009E+00 -0.66504873479E-01  0.95741174189E-03  0.13268490702E+00  0.20220907121E-01 0.  0.
         14    1    1    2    0    0  0.51609421790E-02  0.18936587095E-01  0.12524189356E-01  0.23282718355E-01  0.00000000000E+00 0.  1.
     999901    1    3    3    0    0  0.10785491791E+00  0.47568286384E-01 -0.13481601098E-01  0.88796237463E+00  0.88000000000E+00 0. -1.
        -11    1    4    4    0    0 -0.59656734466E-01 -0.28699123191E-01  0.89359439056E-02  0.66803277267E-01  0.51100000000E-03 0.  1.
         11    1    4    4    0    0 -0.53359125623E-01 -0.37805750288E-01 -0.79785321637E-02  0.65881629750E-01  0.51100000000E-03 0. -1.
</event>
<event>
 8    1  0.1064839E+005  0.1043930E+01  0.7957747E-01            NaN
         13   -1    0    0    0    0  0.00000000000E+00  0.00000000000E+00  0.74505805969E-08  0.10566000000E+00  0.10566000000E+00 0.  1.
     999900   -1    0    0    0    0 -0.00000000000E+00 -0.00000000000E+00 -0.74505805969E-08  0.93827000000E+00  0.93827000000E+00 0. -1.
     999902    2    1    2    0    0  0.96908950195E-02  0.20856067619E-01  0.81463150637E-02  0.10195322244E+01  0.10192402588E+01 0.  0.
     999903    2    3    3    0    0 -0.84964618558E-01  0.97652302649E-01  0.21475623179E-02  0.13111041416E+00  0.20745362300E-01 0.  0.
         14    1    1    2    0    0 -0.96908950195E-02 -0.20856067619E-01 -0.81463150637E-02  0.24397775553E-01  0.00000000000E+00 0. -1.
     999901    1    3    3    0    0  0.94655513577E-01 -0.76796235030E-01  0.59987527458E-02  0.88842181029E+00  0.88000000000E+00 0. -1.
        -11    1    4    4    0    0 -0.55693240421E-01  0.66040643927E-01  0.11110827063E-01  0.87102326478E-01  0.51100000000E-03 0.  1.
         11    1    4    4    0    0 -0.29271378136E-01  0.31611658723E-01 -0.89632647453E-02  0.44008087678E-01  0.51100000000E-03 0. -1.
</event>
<event>
 8    1  0.1064839E+005  0.1043930E+01  0.7957747E-01            NaN
         13   -1    0    0    0    0  0.00000000000E+00  0.00000000000E+00  0.74505805969E-08  0.10566000000E+00  0.10566000000E+00 0.  1.
     999900   -1    0    0    0    0 -0.00000000000E+00 -0.00000000000E+00 -0.74505805969E-08  0.93827000000E+00  0.93827000000E+00 0.  1.
     999902    2    1    2    0    0 -0.17457180413E-01 -0.72278010424E-02 -0.12261956747E-01  0.10214055724E+01  0.10211571835E+01 0.  0.
     999903    2    3    3    0    0  0.46027852121E-01 -0.12162643593E+00  0.49917182617E-03  0.13164142194E+00  0.20436773471E-01 0.  0.
         14    1    1    2    0    0  0.17457180413E-01  0.72278010424E-02  0.12261956747E-01  0.22524427609E-01  0.00000000000E+00 0.  1.
     999901    1    3    3    0    0 -0.63485032534E-01  0.11439863489E+00 -0.12761128573E-01  0.88976415045E+00  0.88000000000E+00 0. -1.
        -11    1    4    4    0    0  0.39362671514E-01 -0.10298540286E+00  0.78162614099E-02  0.11052949007E+00  0.51100000000E-03 0.  1.
         11    1    4    4    0    0  0.66651806073E-02 -0.18641033072E-01 -0.73170895837E-02  0.21111931875E-01  0.51100000000E-03 0. -1.
</event>
<event>
 8    1  0.1064839E+005  0.1043930E+01  0.7957747E-01            NaN
         13   -1    0    0    0    0  0.00000000000E+00  0.00000000000E+00  0.74505805969E-08  0.10566000000E+00  0.10566000000E+00 0. -1.
     999900   -1    0    0    0    0 -0.00000000000E+00 -0.00000000000E+00 -0.74505805969E-08  0.93827000000E+00  0.93827000000E+00 0. -1.
     999902    2    1    2    0    0  0.35111366349E-02  0.22527027588E-01  0.53296596789E-02  0.10205163218E+01  0.10202476968E+01 0.  0.
     999903    2    3    3    0    0 -0.38299811634E-01  0.10108211146E-01  0.12376783332E+00  0.13151126934E+00  0.20191233154E-01 0.  0.
         14    1    1    2    0    0 -0.35111366349E-02 -0.22527027588E-01 -0.53296596789E-02  0.23413678154E-01  0.00000000000E+00 0. -1.
     999901    1    3    3    0    0  0.41810948268E-01  0.12418816442E-01 -0.11843817364E+00  0.88900505250E+00  0.88000000000E+00 0. -1.
        -11    1    4    4    0    0 -0.23114234945E-01  0.21045577294E-02  0.42288832883E-01  0.48242134363E-01  0.51100000000E-03 0.  1.
         11    1    4    4    0    0 -0.15185576688E-01  0.80036534164E-02  0.81479000437E-01  0.83269134981E-01  0.51100000000E-03 0. -1.
</event>
<event>
 8    1  0.1064839E+005  0.1043930E+01  0.7957747E-01            NaN
         13   -1    0    0    0    0  0.00000000000E+00  0.00000000000E+00  0.74505805969E-08  0.10566000000E+00  0.10566000000E+00 0. -1.
     999900   -1    0    0    0    0 -0.00000000000E+00 -0.00000000000E+00 -0.74505805969E-08  0.93827000000E+00  0.93827000000E+00 0.  1.
     999902    2    1    2    0    0 -0.20728151109E-02 -0.85264882738E-02 -0.21406414120E-01  0.10207949156E+01  0.10205327175E+01 0.  0.
     999903    2    3    3    0    0 -0.11621620735E-01 -0.39614753442E-01 -0.12604989370E+00  0.13399848025E+00  0.19042747944E-01 0.  0.
         14    1    1    2    0    0  0.20728151109E-02  0.85264882738E-02  0.21406414120E-01  0.23135084401E-01  0.00000000000E+00 0. -1.
     999901    1    3    3    0    0  0.95488056239E-02  0.31088265169E-01  0.10464347958E+00  0.88679643534E+00  0.88000000000E+00 0. -1.
        -11    1    4    4    0    0 -0.14822401401E-01 -0.27409833773E-01 -0.10421251143E+00  0.10877275040E+00  0.51100000000E-03 0.  1.
         11    1    4    4    0    0  0.32007806661E-02 -0.12204919670E-01 -0.21837382275E-01  0.25225729853E-01  0.51100000000E-03 0. -1.
</event>
<event>
 8    1  0.1064839E+005  0.1043930E+01  0.7957747E-01            NaN
         13   -1    0    0    0    0  0.00000000000E+00  0.00000000000E+00  0.74505805969E-08  0.10566000000E+00  0.10566000000E+00 0.  1.
     999900   -1    0    0    0    0 -0.00000000000E+00 -0.00000000000E+00 -0.74505805969E-08  0.93827000000E+00  0.93827000000E+00 0. -1.
     999902    2    1    2    0    0  0.19219452794E-02  0.21665901802E-01 -0.44982298915E-02  0.10217187586E+01  0.10214773039E+01 0.  0.
     999903    2    3    3    0    0  0.27343223030E-01  0.11440631905E+00  0.61224279034E-01  0.13404400137E+00  0.19568451023E-01 0.  0.
         14    1    1    2    0    0 -0.19219452794E-02 -0.21665901802E-01  0.44982298915E-02  0.22211241449E-01  0.00000000000E+00 0.  1.
     999901    1    3    3    0    0 -0.25421277751E-01 -0.92740417252E-01 -0.65722508926E-01  0.88767475718E+00  0.88000000000E+00 0.  1.
        -11    1    4    4    0    0  0.27744246865E-01  0.77949082267E-01  0.44109623023E-01  0.93764186258E-01  0.51100000000E-03 0.  1.
         11    1    4    4    0    0 -0.40102383470E-03  0.36457236787E-01  0.17114656011E-01  0.40279815114E-01  0.51100000000E-03 0. -1.
</event>
<event>
 8    1  0.1064839E+005  0.1043930E+01  0.7957747E-01            NaN
         13   -1    0    0    0    0  0.00000000000E+00  0.00000000000E+00  0.74505805969E-08  0.10566000000E+00  0.10566000000E+00 0.  1.
     999900   -1    0    0    0    0 -0.00000000000E+00 -0.00000000000E+00 -0.74505805969E-08  0.93827000000E+00  0.93827000000E+00 0. -1.
     999902    2    1    2    0    0  0.90317558916E-02  0.21827158751E-01  0.23610546972E-02  0.10201903274E+01  0.10199140808E+01 0.  0.
     999903    2    3    3    0    0 -0.47529672924E-01  0.77299444879E-01 -0.93086303130E-01  0.13149095878E+00  0.19762045010E-01 0.  0.
         14    1    1    2    0    0 -0.90317558916E-02 -0.21827158751E-01 -0.23610546972E-02  0.23739672552E-01  0.00000000000E+00 0.  1.
     999901    1    3    3    0    0  0.56561428816E-01 -0.55472286128E-01  0.95447357827E-01  0.88869936867E+00  0.88000000000E+00 0.  1.
        -11    1    4    4    0    0 -0.21091600919E-01  0.52099884248E-01 -0.52956750992E-01  0.77226499109E-01  0.51100000000E-03 0. -1.
         11    1    4    4    0    0 -0.26438072005E-01  0.25199560630E-01 -0.40129552138E-01  0.54264459669E-01  0.51100000000E-03 0.  1.
</event>
<event>
 8    1  0.1064839E+005  0.1043930E+01  0.7957747E-01            NaN
         13   -1    0    0    0    0  0.00000000000E+00  0.00000000000E+00  0.74505805969E-08  0.10566000000E+00  0.10566000000E+00 0. -1.
     999900   -1    0    0    0    0 -0.00000000000E+00 -0.00000000000E+00 -0.74505805969E-08  0.93827000000E+00  0.93827000000E+00 0.  1.
     999902    2    1    2    0    0  0.13380031504E-01  0.10708485238E-01 -0.11497454315E-01  0.10232929373E+01  0.10230848192E+01 0.  0.
     999903    2    3    3    0    0 -0.11007610655E+00 -0.30894188901E-02  0.67966192210E-01  0.13102264685E+00  0.20524058126E-01 0.  0.
         14    1    1    2    0    0 -0.13380031504E-01 -0.10708485238E-01  0.11497454315E-01  0.20637062651E-01  0.00000000000E+00 0. -1.
     999901    1    3    3    0    0  0.12345613806E+00  0.13797904128E-01 -0.79463646525E-01  0.89227029050E+00  0.88000000000E+00 0.  1.
        -11    1    4    4    0    0 -0.46506630582E-01 -0.10048516671E-02  0.40729765282E-01  0.61830828200E-01  0.51100000000E-03 0.  1.
         11    1    4    4    0    0 -0.63569475971E-01 -0.20845672230E-02  0.27236426928E-01  0.69191818654E-01  0.51100000000E-03 0. -1.
</event>
<event>
 8    1  0.1064839E+005  0.1043930E+01  0.7957747E-01            NaN
         13   -1    0    0    0    0  0.00000000000E+00  0.00000000000E+00  0.74505805969E-08  0.10566000000E+00  0.10566000000E+00 0.  1.
     999900   -1    0    0    0    0 -0.00000000000E+00 -0.00000000000E+00 -0.74505805969E-08  0.93827000000E+00  0.93827000000E+00 0. -1.
     999902    2    1    2    0    0  0.63068543698E-02 -0.18614768570E-01  0.69060592026E-02  0.10230978212E+01  0.10228857082E+01 0.  0.
     999903    2    3    3    0    0 -0.62964015544E-01  0.56243007738E-01 -0.98242843529E-01  0.13098884137E+00  0.19459627112E-01 0.  0.
         14    1    1    2    0    0 -0.63068543698E-02  0.18614768570E-01 -0.69060592026E-02  0.20832178826E-01  0.00000000000E+00 0. -1.
     999901    1    3    3    0    0  0.69270869914E-01 -0.74857776307E-01  0.10514890273E+00  0.89210897980E+00  0.88000000000E+00 0.  1.
        -11    1    4    4    0    0 -0.26608687282E-01  0.14192695785E-01 -0.43796321551E-01  0.53177380106E-01  0.51100000000E-03 0. -1.
         11    1    4    4    0    0 -0.36355328262E-01  0.42050311953E-01 -0.54446521978E-01  0.77811461269E-01  0.51100000000E-03 0.  1.
</event>
<event>
 8    1  0.1064839E+005  0.1043930E+01  0.7957747E-01            NaN
         13   -1    0    0    0    0  0.00000000000E+00  0.00000000000E+00  0.74505805969E-08  0.10566000000E+00  0.10566000000E+00 0.  1.
     999900   -1    0    0    0    0 -0.00000000000E+00 -0.00000000000E+00 -0.74505805969E-08  0.93827000000E+00  0.93827000000E+00 0. -1.
     999902    2    1    2    0    0 -0.15339516649E-01 -0.11870854340E-01  0.11947868136E-01  0.10211490978E+01  0.10208949556E+01 0.  0.
     999903    2    3    3    0    0 -0.94198809292E-01  0.57310901713E-01 -0.68281091923E-01  0.13129428408E+00  0.20443248029E-01 0.  0.
         14    1    1    2    0    0  0.15339516649E-01  0.11870854340E-01 -0.11947868136E-01  0.22780902238E-01  0.00000000000E+00 0. -1.
     999901    1    3    3    0    0  0.78859292643E-01 -0.69181756052E-01  0.80228960059E-01  0.88985481369E+00  0.88000000000E+00 0.  1.
        -11    1    4    4    0    0 -0.25485101527E-01  0.26390442001E-01 -0.24978107896E-01  0.44385953002E-01  0.51100000000E-03 0.  1.
         11    1    4    4    0    0 -0.68713707765E-01  0.30920459712E-01 -0.43302984026E-01  0.86908331075E-01  0.51100000000E-03 0. -1.
</event>
<event>
 8    1  0.1064839E+005  0.1043930E+01  0.7957747E-01            NaN
         13   -1    0    0    0    0  0.00000000000E+00  0.00000000000E+00  0.74505805969E-08  0.10566000000E+00  0.10566000000E+00 0. -1.
     999900   -1    0    0    0    0 -0.00000000000E+00 -0.00000000000E+00 -0.74505805969E-08  0.93827000000E+00  0.93827000000E+00 0.  1.
     999902    2    1    2    0    0 -0.18701933019E-01  0.12909643308E-03 -0.14042787565E-01  0.10205424211E+01  0.10202744015E+01 0.  0.
     999903    2    3    3    0    0 -0.11888458536E-01  0.11438783482E+00 -0.61114111690E-01  0.13188208537E+00  0.20785514041E-01 0.  0.
         14    1    1    2    0    0  0.18701933019E-01 -0.12909643308E-03  0.14042787565E-01  0.23387578907E-01  0.00000000000E+00 0. -1.
     999901    1    3    3    0    0 -0.68134744824E-02 -0.11425873838E+00  0.47071324125E-01  0.88866033572E+00  0.88000000000E+00 0.  1.
        -11    1    4    4    0    0 -0.15299279169E-01  0.77519654653E-01 -0.34174691270E-01  0.86090274973E-01  0.51100000000E-03 0. -1.
         11    1    4    4    0    0  0.34108206331E-02  0.36868180163E-01 -0.26939420420E-01  0.45791810398E-01  0.51100000000E-03 0.  1.
</event>
<event>
 8    1  0.1158690E+005  0.1043930E+01  0.7957747E-01            NaN
         13   -1    0    0    0    0  0.00000000000E+00  0.00000000000E+00  0.74505805969E-08  0.10566000000E+00  0.10566000000E+00 0.  1.
     999900   -1    0    0    0    0 -0.00000000000E+00 -0.00000000000E+00 -0.74505805969E-08  0.93827000000E+00  0.93827000000E+00 0.  1.
     999902    2    1    2    0    0  0.20394793252E-01  0.15003269978E-01 -0.81158024633E-02  0.10173421842E+01  0.10169946940E+01 0.  0.
     999903    2    3    3    0    0  0.92966357381E-01 -0.30397405255E-01  0.81058728756E-01  0.12870280271E+00  0.20667560753E-01 0.  0.
         14    1    1    2    0    0 -0.20394793252E-01 -0.15003269978E-01  0.81158024633E-02  0.26587815846E-01  0.00000000000E+00 0. -1.
     999901    1    3    3    0    0 -0.72571564129E-01  0.45400675233E-01 -0.89174531219E-01  0.88863938144E+00  0.88000000000E+00 0.  1.
        -11    1    4    4    0    0  0.48771627421E-01 -0.19905563455E-01  0.55750697855E-01  0.76702702235E-01  0.51100000000E-03 0. -1.
         11    1    4    4    0    0  0.44194729960E-01 -0.10491841800E-01  0.25308030900E-01  0.52000100477E-01  0.51100000000E-03 0.  1.
</event>
<event>
 8    1  0.1064839E+005  0.1043930E+01  0.7957747E-01            NaN
         13   -1    0    0    0    0  0.00000000000E+00  0.00000000000E+00  0.74505805969E-08  0.10566000000E+00  0.10566000000E+00 0.  1.
     999900   -1    0    0    0    0 -0.00000000000E+00 -0.00000000000E+00 -0.74505805969E-08  0.93827000000E+00  0.93827000000E+00 0. -1.
     999902    2    1    2    0    0 -0.22520584514E-01 -0.67426902644E-02  0.27719045145E-02  0.10202588350E+01  0.10199841990E+01 0.  0.
     999903    2    3    3    0    0  0.62381318979E-01 -0.35700935941E-01  0.10608859250E+00  0.12968528314E+00  0.19937337349E-01 0.  0.
         14    1    1    2    0    0  0.22520584514E-01  0.67426902644E-02 -0.27719045145E-02  0.23671165022E-01  0.00000000000E+00 0. -1.
     999901    1    3    3    0    0 -0.84901903493E-01  0.28958245677E-01 -0.10331668799E+00  0.89057355183E+00  0.88000000000E+00 0. -1.
        -11    1    4    4    0    0  0.48035729558E-01 -0.25378696020E-01  0.92926289128E-01  0.10764323415E+00  0.51100000000E-03 0. -1.
         11    1    4    4    0    0  0.14345589421E-01 -0.10322239921E-01  0.13162303373E-01  0.22042048996E-01  0.51100000000E-03 0.  1.
</event>
<event>
 8    1  0.1064839E+005  0.1043930E+01  0.7957747E-01            NaN
         13   -1    0    0    0    0  0.00000000000E+00  0.00000000000E+00  0.74505805969E-08  0.10566000000E+00  0.10566000000E+00 0. -1.
     999900   -1    0    0    0    0 -0.00000000000E+00 -0.00000000000E+00 -0.74505805969E-08  0.93827000000E+00  0.93827000000E+00 0.  1.
     999902    2    1    2    0    0  0.10499635238E-01  0.17352460647E-01 -0.10787814549E-01  0.10209576868E+01  0.10206992070E+01 0.  0.
     999903    2    3    3    0    0 -0.25213136573E-01  0.12914000352E+00 -0.78566472666E-03  0.13311090959E+00  0.20125958832E-01 0.  0.
         14    1    1    2    0    0 -0.10499635238E-01 -0.17352460647E-01  0.10787814549E-01  0.22972313192E-01  0.00000000000E+00 0.  1.
     999901    1    3    3    0    0  0.35712771811E-01 -0.11178754287E+00 -0.10002149822E-01  0.88784677722E+00  0.88000000000E+00 0.  1.
        -11    1    4    4    0    0 -0.12350818679E-01  0.48159586833E-01 -0.96080332811E-02  0.50640536633E-01  0.51100000000E-03 0. -1.
         11    1    4    4    0    0 -0.12862317895E-01  0.80980416685E-01  0.88223685544E-02  0.82470372959E-01  0.51100000000E-03 0.  1.
</event>
<event>
 8    1  0.1064839E+005  0.1043930E+01  0.7957747E-01            NaN
         13   -1    0    0    0    0  0.00000000000E+00  0.00000000000E+00  0.74505805969E-08  0.10566000000E+00  0.10566000000E+00 0.  1.
     999900   -1    0    0    0    0 -0.00000000000E+00 -0.00000000000E+00 -0.74505805969E-08  0.93827000000E+00  0.93827000000E+00 0.  1.
     999902    2    1    2    0    0  0.23708037864E-01  0.24566092991E-02  0.33023358343E-02  0.10198673441E+01  0.10195834385E+01 0.  0.
     999903    2    3    3    0    0  0.39268801445E-01  0.77353135553E-01  0.96804447909E-01  0.13161384873E+00  0.20629049830E-01 0.  0.
         14    1    1    2    0    0 -0.23708037864E-01 -0.24566092991E-02 -0.33023358343E-02  0.24062655934E-01  0.00000000000E+00 0. -1.
     999901    1    3    3    0    0 -0.15560763581E-01 -0.74896526253E-01 -0.93502112074E-01  0.88825349533E+00  0.88000000000E+00 0.  1.
        -11    1    4    4    0    0  0.40586005700E-01  0.76151852888E-01  0.90521459055E-01  0.12506288109E+00  0.51100000000E-03 0.  1.
         11    1    4    4    0    0 -0.13172042550E-02  0.12012826647E-02  0.62829888536E-02  0.65509676403E-02  0.51100000000E-03 0. -1.
</event>
<event>
 8    1  0.1064839E+005  0.1043930E+01  0.7957747E-01            NaN
         13   -1    0    0    0    0  0.00000000000E+00  0.00000000000E+00  0.74505805969E-08  0.10566000000E+00  0.10566000000E+00 0. -1.
     999900   -1    0    0    0    0 -0.00000000000E+00 -0.00000000000E+00 -0.74505805969E-08  0.93827000000E+00  0.93827000000E+00 0. -1.
     999902    2    1    2    0    0 -0.13120486211E-01  0.17128989131E-01  0.10309815078E-01  0.10200167879E+01  0.10197364394E+01 0.  0.
     999903    2    3    3    0    0  0.49292082678E-01 -0.22880140404E-01  0.11699153643E+00  0.13047924012E+00  0.19611279073E-01 0.  0.
         14    1    1    2    0    0  0.13120486211E-01 -0.17128989131E-01 -0.10309815078E-01  0.23913212122E-01  0.00000000000E+00 0.  1.
     999901    1    3    3    0    0 -0.62412568890E-01  0.40009129535E-01 -0.10668172135E+00  0.88953754776E+00  0.88000000000E+00 0. -1.
        -11    1    4    4    0    0  0.18156662977E-01 -0.12103173647E-01  0.68161116649E-01  0.71570595685E-01  0.51100000000E-03 0. -1.
         11    1    4    4    0    0  0.31135419701E-01 -0.10776966757E-01  0.48830419778E-01  0.58908644435E-01  0.51100000000E-03 0.  1.
</event>
<event>
 8    1  0.1064839E+005  0.1043930E+01  0.7957747E-01            NaN
         13   -1    0    0    0    0  0.00000000000E+00  0.00000000000E+00  0.74505805969E-08  0.10566000000E+00  0.10566000000E+00 0. -1.
     999900   -1    0    0    0    0 -0.00000000000E+00 -0.00000000000E+00 -0.74505805969E-08  0.93827000000E+00  0.93827000000E+00 0. -1.
     999902    2    1    2    0    0  0.46628839495E-02 -0.63578938344E-02 -0.24010626698E-01  0.10186579701E+01  0.10183444332E+01 0.  0.
     999903    2    3    3    0    0  0.17696389916E-01  0.69191628055E-01  0.10192788578E+00  0.12639225213E+00  0.22024166083E-01 0.  0.
         14    1    1    2    0    0 -0.46628839495E-02  0.63578938344E-02  0.24010626698E-01  0.25272029898E-01  0.00000000000E+00 0. -1.
     999901    1    3    3    0    0 -0.13033505967E-01 -0.75549521890E-01 -0.12593851248E+00  0.89226571797E+00  0.88000000000E+00 0. -1.
        -11    1    4    4    0    0  0.39470195326E-02  0.39306930762E-01  0.39734692036E-01  0.56033210165E-01  0.51100000000E-03 0.  1.
         11    1    4    4    0    0  0.13749370384E-01  0.29884697293E-01  0.62193193741E-01  0.70359041970E-01  0.51100000000E-03 0. -1.
</event>
<event>
 8    1  0.1064839E+005  0.1043930E+01  0.7957747E-01            NaN
         13   -1    0    0    0    0  0.00000000000E+00  0.00000000000E+00  0.74505805969E-08  0.10566000000E+00  0.10566000000E+00 0. -1.
     999900   -1    0    0    0    0 -0.00000000000E+00 -0.00000000000E+00 -0.74505805969E-08  0.93827000000E+00  0.93827000000E+00 0. -1.
     999902    2    1    2    0    0  0.12166249047E-01 -0.20514664795E-01  0.25730183793E-02  0.10199406375E+01  0.10196584794E+01 0.  0.
     999903    2    3    3    0    0  0.85617126118E-01  0.57039231072E-01  0.77549581682E-01  0.13031649042E+00  0.19613359966E-01 0.  0.
         14    1    1    2    0    0 -0.12166249047E-01  0.20514664795E-01 -0.25730183793E-02  0.23989362457E-01  0.00000000000E+00 0. -1.
     999901    1    3    3    0    0 -0.73450877071E-01 -0.77553895867E-01 -0.74976563303E-01  0.88962414713E+00  0.88000000000E+00 0. -1.
        -11    1    4    4    0    0  0.52635754300E-01  0.41781772533E-01  0.59401532122E-01  0.89694159710E-01  0.51100000000E-03 0. -1.
         11    1    4    4    0    0  0.32981371819E-01  0.15257458539E-01  0.18148049560E-01  0.40622330706E-01  0.51100000000E-03 0.  1.
</event>
<event>
 8    1  0.1064839E+005  0.1043930E+01  0.7957747E-01            NaN
         13   -1    0    0    0    0  0.00000000000E+00  0.00000000000E+00  0.74505805969E-08  0.10566000000E+00  0.10566000000E+00 0.  1.
     999900   -1    0    0    0    0 -0.00000000000E+00 -0.00000000000E+00 -0.74505805969E-08  0.93827000000E+00  0.93827000000E+00 0. -1.
     999902    2    1    2    0    0 -0.17275949998E-01 -0.10547881050E-02  0.21344176545E-01  0.10164501001E+01  0.10160785703E+01 0.  0.
     999903    2    3    3    0    0  0.33697380617E-01 -0.12041840749E+00  0.81633460276E-02  0.12683237975E+00  0.19588415247E-01 0.  0.
         14    1    1    2    0    0  0.17275949998E-01  0.10547881050E-02 -0.21344176545E-01  0.27479899902E-01  0.00000000000E+00 0.  1.
     999901    1    3    3    0    0 -0.50973330615E-01  0.11936361938E+00  0.13180830517E-01  0.88961772035E+00  0.88000000000E+00 0. -1.
        -11    1    4    4    0    0  0.31487097339E-01 -0.12017407165E+00  0.85177183090E-02  0.12452332087E+00  0.51100000000E-03 0.  1.
         11    1    4    4    0    0  0.22102832778E-02 -0.24433583987E-03 -0.35437228138E-03  0.23090588742E-02  0.51100000000E-03 0. -1.
</event>
<event>
 8    1  0.1064839E+005  0.1043930E+01  0.7957747E-01            NaN
         13   -1    0    0    0    0  0.00000000000E+00  0.00000000000E+00  0.74505805969E-08  0.10566000000E+00  0.10566000000E+00 0. -1.
     999900   -1    0    0    0    0 -0.00000000000E+00 -0.00000000000E+00 -0.74505805969E-08  0.93827000000E+00  0.93827000000E+00 0. -1.
     999902    2    1    2    0    0 -0.23147682265E-01 -0.41474965504E-02  0.11020241779E-01  0.10179595812E+01  0.10176282457E+01 0.  0.
     999903    2    3    3    0    0  0.11005037013E-02  0.25103198335E-01 -0.12302756616E+00  0.12699808236E+00  0.19009187563E-01 0.  0.
         14    1    1    2    0    0  0.23147682265E-01  0.41474965504E-02 -0.11020241779E-01  0.25970418764E-01  0.00000000000E+00 0. -1.
     999901    1    3    3    0    0 -0.24248185967E-01 -0.29250694885E-01  0.13404780794E+00  0.89096149888E+00  0.88000000000E+00 0.  1.
        -11    1    4    4    0    0  0.47820860444E-02  0.16118169149E-01 -0.39854753988E-01  0.43258828695E-01  0.51100000000E-03 0. -1.
         11    1    4    4    0    0 -0.36815823431E-02  0.89850291858E-02 -0.83172812172E-01  0.83739253661E-01  0.51100000000E-03 0.  1.
</event>
<event>
 8    1  0.1064839E+005  0.1043930E+01  0.7957747E-01            NaN
         13   -1    0    0    0    0  0.00000000000E+00  0.00000000000E+00  0.74505805969E-08  0.10566000000E+00  0.10566000000E+00 0.  1.
     999900   -1    0    0    0    0 -0.00000000000E+00 -0.00000000000E+00 -0.74505805969E-08  0.93827000000E+00  0.93827000000E+00 0. -1.
     999902    2    1    2    0    0  0.10036533701E-01 -0.21490981577E-01 -0.16426697606E-02  0.10201541160E+01  0.10198770159E+01 0.  0.
     999903    2    3    3    0    0  0.70004794888E-01  0.41598825745E-01  0.99437837668E-01  0.13010142925E+00  0.20183278290E-01 0.  0.
         14    1    1    2    0    0 -0.10036533701E-01  0.21490981577E-01  0.16426697606E-02  0.23775884038E-01  0.00000000000E+00 0.  1.
     999901    1    3    3    0    0 -0.59968261187E-01 -0.63089807322E-01 -0.10108050743E+00  0.89005268671E+00  0.88000000000E+00 0. -1.
        -11    1    4    4    0    0  0.26230568497E-01  0.62430182827E-02  0.40097428834E-01  0.48322695714E-01  0.51100000000E-03 0.  1.
         11    1    4    4    0    0  0.43774226391E-01  0.35355807462E-01  0.59340408834E-01  0.81778733538E-01  0.51100000000E-03 0. -1.
</event>
<event>
 8    1  0.1064839E+005  0.1043930E+01  0.7957747E-01            NaN
         13   -1    0    0    0    0  0.00000000000E+00  0.00000000000E+00  0.74505805969E-08  0.10566000000E+00  0.10566000000E+00 0.  1.
     999900   -1    0    0    0    0 -0.00000000000E+00 -0.00000000000E+00 -0.74505805969E-08  0.93827000000E+00  0.93827000000E+00 0.  1.
     999902    2    1    2    0    0 -0.15885680552E-01  0.11187050524E-01 -0.13960317384E-01  0.10200052135E+01  0.10197245904E+01 0.  0.
     999903    2    3    3    0    0 -0.12521804797E+00  0.36295662055E-01 -0.15173062837E-01  0.13288319279E+00  0.20755396129E-01 0.  0.
         14    1    1    2    0    0  0.15885680552E-01 -0.11187050524E-01  0.13960317384E-01  0.23924786466E-01  0.00000000000E+00 0.  1.
     999901    1    3    3    0    0  0.10933236742E+00 -0.25108611532E-01  0.12127454535E-02  0.88712202074E+00  0.88000000000E+00 0.  1.
        -11    1    4    4    0    0 -0.63679952300E-01  0.99712495879E-02 -0.13886294440E-01  0.65936730565E-01  0.51100000000E-03 0. -1.
         11    1    4    4    0    0 -0.61538095670E-01  0.26324412467E-01 -0.12867683968E-02  0.66946462224E-01  0.51100000000E-03 0.  1.
</event>
<event>
 8    1  0.1064839E+005  0.1043930E+01  0.7957747E-01            NaN
         13   -1    0    0    0    0  0.00000000000E+00  0.00000000000E+00  0.74505805969E-08  0.10566000000E+00  0.10566000000E+00 0.  1.
     999900   -1    0    0    0    0 -0.00000000000E+00 -0.00000000000E+00 -0.74505805969E-08  0.93827000000E+00  0.93827000000E+00 0. -1.
     999902    2    1    2    0    0  0.46037750401E-02  0.21383908347E-01  0.80497887696E-02  0.10206219460E+01  0.10203557670E+01 0.  0.
     999903    2    3    3    0    0 -0.92675448654E-01  0.20535838868E-01 -0.86783595097E-01  0.13019657729E+00  0.20231087469E-01 0.  0.
         14    1    1    2    0    0 -0.46037750401E-02 -0.21383908347E-01 -0.80497887696E-02  0.23308053974E-01  0.00000000000E+00 0. -1.
     999901    1    3    3    0    0  0.97279223694E-01  0.84806947952E-03  0.94833383867E-01  0.89042536873E+00  0.88000000000E+00 0.  1.
        -11    1    4    4    0    0 -0.49855417512E-01  0.13389310933E-01 -0.33835231601E-01  0.61724552012E-01  0.51100000000E-03 0.  1.
         11    1    4    4    0    0 -0.42820031142E-01  0.71465279345E-02 -0.52948363496E-01  0.68472025283E-01  0.51100000000E-03 0. -1.
</event>
<event>
 8    1  0.1064839E+005  0.1043930E+01  0.7957747E-01            NaN
         13   -1    0    0    0    0  0.00000000000E+00  0.00000000000E+00  0.74505805969E-08  0.10566000000E+00  0.10566000000E+00 0.  1.
     999900   -1    0    0    0    0 -0.00000000000E+00 -0.00000000000E+00 -0.74505805969E-08  0.93827000000E+00  0.93827000000E+00 0.  1.
     999902    2    1    2    0    0  0.32471378633E-02 -0.45021959146E-02  0.23257335784E-01  0.10200193885E+01  0.10197391018E+01 0.  0.
     999903    2    3    3    0    0 -0.23658003459E-02  0.12792284168E+00 -0.52830166101E-02  0.12963607369E+00  0.20192842876E-01 0.  0.
         14    1    1    2    0    0 -0.32471378633E-02  0.45021959146E-02 -0.23257335784E-01  0.23910611454E-01  0.00000000000E+00 0. -1.
     999901    1    3    3    0    0  0.56129382092E-02 -0.13242503759E+00  0.28540352394E-01  0.89038331485E+00  0.88000000000E+00 0. -1.
        -11    1    4    4    0    0  0.74196480742E-02  0.62157765664E-01 -0.78750683855E-02  0.63094507153E-01  0.51100000000E-03 0. -1.
         11    1    4    4    0    0 -0.97854484201E-02  0.65765076014E-01  0.25920517755E-02  0.66541566538E-01  0.51100000000E-03 0.  1.
</event>
<event>
 8    1  0.1064839E+005  0.1043930E+01  0.7957747E-01            NaN
         13   -1    0    0    0    0  0.00000000000E+00  0.00000000000E+00  0.74505805969E-08  0.10566000000E+00  0.10566000000E+00 0. -1.
     999900   -1    0    0    0    0 -0.00000000000E+00 -0.00000000000E+00 -0.74505805969E-08  0.93827000000E+00  0.93827000000E+00 0.  1.
     999902    2    1    2    0    0  0.14785732051E-01 -0.16022841264E-01  0.12248319648E-01  0.10189225881E+01  0.10186156635E+01 0.  0.
     999903    2    3    3    0    0 -0.87055497157E-01  0.13381593739E-01  0.92126816827E-01  0.12896931347E+00  0.19697888241E-01 0.  0.
         14    1    1    2    0    0 -0.14785732051E-01  0.16022841264E-01 -0.12248319648E-01  0.25007411875E-01  0.00000000000E+00 0.  1.
     999901    1    3    3    0    0  0.10184122921E+00 -0.29404435004E-01 -0.79878497179E-01  0.88995327466E+00  0.88000000000E+00 0.  1.
        -11    1    4    4    0    0 -0.27716075646E-01 -0.27908514784E-02  0.37428407752E-01  0.46659581321E-01  0.51100000000E-03 0. -1.
         11    1    4    4    0    0 -0.59339421511E-01  0.16172445218E-01  0.54698409074E-01  0.82309732145E-01  0.51100000000E-03 0.  1.
</event>
<event>
 8    1  0.1064839E+005  0.1043930E+01  0.7957747E-01            NaN
         13   -1    0    0    0    0  0.00000000000E+00  0.00000000000E+00  0.74505805969E-08  0.10566000000E+00  0.10566000000E+00 0. -1.
     999900   -1    0    0    0    0 -0.00000000000E+00 -0.00000000000E+00 -0.74505805969E-08  0.93827000000E+00  0.93827000000E+00 0. -1.
     999902    2    1    2    0    0  0.16370073950E-01  0.12002749820E-01 -0.11003464346E-01  0.10208405749E+01  0.10205794226E+01 0.  0.
     999903    2    3    3    0    0  0.10395039942E+00  0.80775372684E-01  0.96546535031E-02  0.13358258259E+00  0.20512134557E-01 0.  0.
         14    1    1    2    0    0 -0.16370073950E-01 -0.12002749820E-01  0.11003464346E-01  0.23089425111E-01  0.00000000000E+00 0. -1.
     999901    1    3    3    0    0 -0.87580325474E-01 -0.68772622865E-01 -0.20658117849E-01  0.88725799230E+00  0.88000000000E+00 0.  1.
        -11    1    4    4    0    0  0.66636794483E-01  0.51327148635E-01 -0.37311467697E-02  0.84196918846E-01  0.51100000000E-03 0. -1.
         11    1    4    4    0    0  0.37313604942E-01  0.29448224050E-01  0.13385800273E-01  0.49385663744E-01  0.51100000000E-03 0.  1.
</event>
<event>
 8    1  0.1064839E+005  0.1043930E+01  0.7957747E-01            NaN
         13   -1    0    0    0    0  0.00000000000E+00  0.00000000000E+00  0.74505805969E-08  0.10566000000E+00  0.10566000000E+00 0. -1.
     999900   -1    0    0    0    0 -0.00000000000E+00 -0.00000000000E+00 -0.74505805969E-08  0.93827000000E+00  0.93827000000E+00 0. -1.
     999902    2    1    2    0    0  0.41483653398E-02  0.20523952223E-01 -0.11371853006E-01  0.10201022727E+01  0.10198239486E+01 0.  0.
     999903    2    3    3    0    0 -0.11264840153E+00 -0.35752225241E-01 -0.49397981527E-01  0.12979082189E+00  0.20919199089E-01 0.  0.
         14    1    1    2    0    0 -0.41483653398E-02 -0.20523952223E-01  0.11371853006E-01  0.23827727350E-01  0.00000000000E+00 0.  1.
     999901    1    3    3    0    0  0.11679676687E+00  0.56276177465E-01  0.38026128521E-01  0.89031145076E+00  0.88000000000E+00 0.  1.
        -11    1    4    4    0    0 -0.41218281338E-01 -0.21733889242E-01 -0.12865083991E-01  0.48343356991E-01  0.51100000000E-03 0.  1.
         11    1    4    4    0    0 -0.71430120195E-01 -0.14018335999E-01 -0.36532897536E-01  0.81447464900E-01  0.51100000000E-03 0. -1.
</event>
<event>
 8    1  0.1064839E+005  0.1043930E+01  0.7957747E-01            NaN
         13   -1    0    0    0    0  0.00000000000E+00  0.00000000000E+00  0.74505805969E-08  0.10566000000E+00  0.10566000000E+00 0.  1.
     999900   -1    0    0    0    0 -0.00000000000E+00 -0.00000000000E+00 -0.74505805969E-08  0.93827000000E+00  0.93827000000E+00 0. -1.
     999902    2    1    2    0    0  0.11226311412E-01  0.22470794933E-01  0.32137007220E-02  0.10186062056E+01  0.10182913667E+01 0.  0.
     999903    2    3    3    0    0  0.37535739529E-01 -0.87736390363E-01 -0.81642381071E-01  0.12729348584E+00  0.20773714532E-01 0.  0.
         14    1    1    2    0    0 -0.11226311412E-01 -0.22470794933E-01 -0.32137007220E-02  0.25323794446E-01  0.00000000000E+00 0.  1.
     999901    1    3    3    0    0 -0.26309428117E-01  0.11020718530E+00  0.84856081793E-01  0.89131271971E+00  0.88000000000E+00 0.  1.
        -11    1    4    4    0    0  0.31624416814E-01 -0.66103965219E-01 -0.72458104554E-01  0.10305472329E+00  0.51100000000E-03 0.  1.
         11    1    4    4    0    0  0.59113227147E-02 -0.21632425144E-01 -0.91842765176E-02  0.24238762551E-01  0.51100000000E-03 0. -1.
</event>
<event>
 8    1  0.1064839E+005  0.1043930E+01  0.7957747E-01            NaN
         13   -1    0    0    0    0  0.00000000000E+00  0.00000000000E+00  0.74505805969E-08  0.10566000000E+00  0.10566000000E+00 0.  1.
     999900   -1    0    0    0    0 -0.00000000000E+00 -0.00000000000E+00 -0.74505805969E-08  0.93827000000E+00  0.93827000000E+00 0.  1.
     999902    2    1    2    0    0 -0.11653915316E-01 -0.44911097046E-03 -0.17756516816E-01  0.10226859577E+01  0.10224652849E+01 0.  0.
     999903    2    3    3    0    0 -0.62023766346E-01  0.64568908544E-01  0.94513009162E-01  0.13174886049E+00  0.20222803919E-01 0.  0.
         14    1    1    2    0    0  0.11653915316E-01  0.44911097046E-03  0.17756516816E-01  0.21244042277E-01  0.00000000000E+00 0.  1.
     999901    1    3    3    0    0  0.50369851030E-01 -0.65018019515E-01 -0.11226952598E+00  0.89093709723E+00  0.88000000000E+00 0.  1.
        -11    1    4    4    0    0 -0.30516794824E-01  0.45225232933E-01  0.61080817291E-01  0.81900694882E-01  0.51100000000E-03 0. -1.
         11    1    4    4    0    0 -0.31506971522E-01  0.19343675611E-01  0.33432191870E-01  0.49848165612E-01  0.51100000000E-03 0.  1.
</event>
<event>
 8    1  0.1064839E+005  0.1043930E+01  0.7957747E-01            NaN
         13   -1    0    0    0    0  0.00000000000E+00  0.00000000000E+00  0.74505805969E-08  0.10566000000E+00  0.10566000000E+00 0. -1.
     999900   -1    0    0    0    0 -0.00000000000E+00 -0.00000000000E+00 -0.74505805969E-08  0.93827000000E+00  0.93827000000E+00 0. -1.
     999902    2    1    2    0    0 -0.17253323734E-01  0.16628043988E-02 -0.16195759566E-01  0.10202077588E+01  0.10199319225E+01 0.  0.
     999903    2    3    3    0    0 -0.11628319160E-01 -0.85350307183E-01  0.94590031375E-01  0.12898589322E+00  0.16437574982E-01 0.  0.
         14    1    1    2    0    0  0.17253323734E-01 -0.16628043988E-02  0.16195759566E-01  0.23722241173E-01  0.00000000000E+00 0. -1.
     999901    1    3    3    0    0 -0.56250045738E-02  0.87013111582E-01 -0.11078579094E+00  0.89122186561E+00  0.88000000000E+00 0.  1.
        -11    1    4    4    0    0  0.22903003163E-02 -0.23067959416E-01  0.32683355814E-01  0.40072922222E-01  0.51100000000E-03 0.  1.
         11    1    4    4    0    0 -0.13918619477E-01 -0.62282347767E-01  0.61906675561E-01  0.88912970997E-01  0.51100000000E-03 0. -1.
</event>
<event>
 8    1  0.1064839E+005  0.1043930E+01  0.7957747E-01            NaN
         13   -1    0    0    0    0  0.00000000000E+00  0.00000000000E+00  0.74505805969E-08  0.10566000000E+00  0.10566000000E+00 0. -1.
     999900   -1    0    0    0    0 -0.00000000000E+00 -0.00000000000E+00 -0.74505805969E-08  0.93827000000E+00  0.93827000000E+00 0. -1.
     999902    2    1    2    0    0  0.90219569866E-02 -0.14649617360E-01  0.15711321237E-01  0.10206308023E+01  0.10203648279E+01 0.  0.
     999903    2    3    3    0    0 -0.56044339353E-01 -0.38027902438E-01  0.11273078982E+00  0.13260324397E+00  0.16979399307E-01 0.  0.
         14    1    1    2    0    0 -0.90219569866E-02  0.14649617360E-01 -0.15711321237E-01  0.23299197662E-01  0.00000000000E+00 0.  1.
     999901    1    3    3    0    0  0.65066296339E-01  0.23378285077E-01 -0.97019468585E-01  0.88802755837E+00  0.88000000000E+00 0. -1.
        -11    1    4    4    0    0 -0.46296103444E-01 -0.30234092917E-01  0.77354028990E-01  0.95085942655E-01  0.51100000000E-03 0. -1.
         11    1    4    4    0    0 -0.97482359090E-02 -0.77938095203E-02  0.35376760832E-01  0.37517301317E-01  0.51100000000E-03 0.  1.
</event>
<event>
 8    1  0.1064839E+005  0.1043930E+01  0.7957747E-01            NaN
         13   -1    0    0    0    0  0.00000000000E+00  0.00000000000E+00  0.74505805969E-08  0.10566000000E+00  0.10566000000E+00 0. -1.
     999900   -1    0    0    0    0 -0.00000000000E+00 -0.00000000000E+00 -0.74505805969E-08  0.93827000000E+00  0.93827000000E+00 0.  1.
     999902    2    1    2    0    0 -0.12777698072E-02 -0.27622640785E-02  0.24465796774E-01  0.10192756290E+01  0.10189774138E+01 0.  0.
     999903    2    3    3    0    0  0.99741410894E-01  0.11232834571E-01 -0.76522750088E-01  0.12764822684E+00  0.19073880419E-01 0.  0.
         14    1    1    2    0    0  0.12777698072E-02  0.27622640785E-02 -0.24465796774E-01  0.24654371018E-01  0.00000000000E+00 0.  1.
     999901    1    3    3    0    0 -0.10101918070E+00 -0.13995098650E-01  0.10098854686E+00  0.89162740214E+00  0.88000000000E+00 0. -1.
        -11    1    4    4    0    0  0.15433972428E-01 -0.50878427893E-02 -0.13423330442E-01  0.21084130769E-01  0.51100000000E-03 0. -1.
         11    1    4    4    0    0  0.84307438467E-01  0.16320677361E-01 -0.63099419646E-01  0.10656409607E+00  0.51100000000E-03 0.  1.
</event>
<event>
 8    1  0.1064839E+005  0.1043930E+01  0.7957747E-01            NaN
         13   -1    0    0    0    0  0.00000000000E+00  0.00000000000E+00  0.74505805969E-08  0.10566000000E+00  0.10566000000E+00 0. -1.
     999900   -1    0    0    0    0 -0.00000000000E+00 -0.00000000000E+00 -0.74505805969E-08  0.93827000000E+00  0.93827000000E+00 0. -1.
     999902    2    1    2    0    0  0.14340475613E-01  0.16768918288E-01  0.54192635458E-02  0.10212096506E+01  0.10209568728E+01 0.  0.
     999903    2    3    3    0    0  0.46739461760E-01  0.50979112969E-01  0.11222761101E+00  0.13350020777E+00  0.21067072849E-01 0.  0.
         14    1    1    2    0    0 -0.14340475613E-01 -0.16768918288E-01 -0.54192635458E-02  0.22720349441E-01  0.00000000000E+00 0. -1.
     999901    1    3    3    0    0 -0.32398986147E-01 -0.34210194682E-01 -0.10680834746E+00  0.88770944279E+00  0.88000000000E+00 0. -1.
        -11    1    4    4    0    0  0.29976314156E-01  0.17427128287E-01  0.50205903272E-01  0.61017850298E-01  0.51100000000E-03 0. -1.
         11    1    4    4    0    0  0.16763147604E-01  0.33551984682E-01  0.62021707735E-01  0.72482357475E-01  0.51100000000E-03 0.  1.
</event>
<event>
 8    1  0.1064839E+005  0.1043930E+01  0.7957747E-01            NaN
         13   -1    0    0    0    0  0.00000000000E+00  0.00000000000E+00  0.74505805969E-08  0.10566000000E+00  0.10566000000E+00 0.  1.
     999900   -1    0    0    0    0 -0.00000000000E+00 -0.00000000000E+00 -0.74505805969E-08  0.93827000000E+00  0.93827000000E+00 0.  1.
     999902    2    1    2    0    0 -0.21724767351E-01  0.23683565734E-02 -0.76042939166E-02  0.10207912897E+01  0.10205290085E+01 0.  0.
     999903    2    3    3    0    0 -0.79887126294E-01 -0.13476787992E-01  0.10217421168E+00  0.13192389299E+00  0.20019171974E-01 0.  0.
         14    1    1    2    0    0  0.21724767351E-01 -0.23683565734E-02  0.76042939166E-02  0.23138710320E-01  0.00000000000E+00 0.  1.
     999901    1    3    3    0    0  0.58162358943E-01  0.15845144566E-01 -0.10977850560E+00  0.88886739669E+00  0.88000000000E+00 0.  1.
        -11    1    4    4    0    0 -0.22470070461E-01 -0.11090886459E-01  0.22465362263E-01  0.33658066664E-01  0.51100000000E-03 0. -1.
         11    1    4    4    0    0 -0.57417055833E-01 -0.23859015337E-02  0.79708849421E-01  0.98265826327E-01  0.51100000000E-03 0.  1.
</event>
<event>
 8    1  0.1064839E+005  0.1043930E+01  0.7957747E-01            NaN
         13   -1    0    0    0    0  0.00000000000E+00  0.00000000000E+00  0.74505805969E-08  0.10566000000E+00  0.10566000000E+00 0. -1.
     999900   -1    0    0    0    0 -0.00000000000E+00 -0.00000000000E+00 -0.74505805969E-08  0.93827000000E+00  0.93827000000E+00 0.  1.
     999902    2    1    2    0    0 -0.19277879130E-01  0.95165009024E-02  0.21987670974E-02  0.10223190077E+01  0.10220905627E+01 0.  0.
     999903    2    3    3    0    0  0.21300961680E-01 -0.32399990431E-01 -0.12397503476E+00  0.13140741674E+00  0.19864782455E-01 0.  0.
         14    1    1    2    0    0  0.19277879130E-01 -0.95165009024E-02 -0.21987670974E-02  0.21610992340E-01  0.00000000000E+00 0.  1.
     999901    1    3    3    0    0 -0.40578840809E-01  0.41916491334E-01  0.12617380185E+00  0.89091159092E+00  0.88000000000E+00 0. -1.
        -11    1    4    4    0    0  0.12576946073E-01 -0.30603923906E-01 -0.80678874908E-01  0.87201615286E-01  0.51100000000E-03 0.  1.
         11    1    4    4    0    0  0.87240156064E-02 -0.17960665251E-02 -0.43296159849E-01  0.44205801451E-01  0.51100000000E-03 0. -1.
</event>
<event>
 8    1  0.1064839E+005  0.1043930E+01  0.7957747E-01            NaN
         13   -1    0    0    0    0  0.00000000000E+00  0.00000000000E+00  0.74505805969E-08  0.10566000000E+00  0.10566000000E+00 0.  1.
     999900   -1    0    0    0    0 -0.00000000000E+00 -0.00000000000E+00 -0.74505805969E-08  0.93827000000E+00  0.93827000000E+00 0.  1.
     999902    2    1    2    0    0 -0.19190712222E-01  0.12199645101E-01 -0.75239679860E-02  0.10199774454E+01  0.10196961627E+01 0.  0.
     999903    2    3    3    0    0  0.68311064983E-03  0.24234977799E-02 -0.12972222310E+00  0.13125760462E+00  0.19858590675E-01 0.  0.
         14    1    1    2    0    0  0.19190712222E-01 -0.12199645101E-01  0.75239679860E-02  0.23952554570E-01  0.00000000000E+00 0. -1.
     999901    1    3    3    0    0 -0.19873822872E-01  0.97761473211E-02  0.12219825511E+00  0.88871984081E+00  0.88000000000E+00 0. -1.
        -11    1    4    4    0    0 -0.61114656016E-02 -0.62718447729E-02 -0.48400116493E-01  0.49188600775E-01  0.51100000000E-03 0. -1.
         11    1    4    4    0    0  0.67945762515E-02  0.86953425529E-02 -0.81322106607E-01  0.82069003847E-01  0.51100000000E-03 0.  1.
</event>
<event>
 8    1  0.1064839E+005  0.1043930E+01  0.7957747E-01            NaN
         13   -1    0    0    0    0  0.00000000000E+00  0.00000000000E+00  0.74505805969E-08  0.10566000000E+00  0.10566000000E+00 0.  1.
     999900   -1    0    0    0    0 -0.00000000000E+00 -0.00000000000E+00 -0.74505805969E-08  0.93827000000E+00  0.93827000000E+00 0. -1.
     999902    2    1    2    0    0 -0.59832062072E-02  0.68275135290E-02 -0.21787945403E-01  0.10203264354E+01  0.10200533841E+01 0.  0.
     999903    2    3    3    0    0 -0.74549288050E-01  0.73331341242E-01 -0.80495986765E-01  0.13321274437E+00  0.18192015250E-01 0.  0.
         14    1    1    2    0    0  0.59832062072E-02 -0.68275135290E-02  0.21787945403E-01  0.23603564612E-01  0.00000000000E+00 0.  1.
     999901    1    3    3    0    0  0.68566081842E-01 -0.66503827713E-01  0.58708041362E-01  0.88711369102E+00  0.88000000000E+00 0. -1.
        -11    1    4    4    0    0 -0.39752414781E-01  0.51498467367E-01 -0.49581364094E-01  0.81798040371E-01  0.51100000000E-03 0. -1.
         11    1    4    4    0    0 -0.34796873268E-01  0.21832873875E-01 -0.30914622672E-01  0.51414703994E-01  0.51100000000E-03 0.  1.
</event>
<event>
 8    1  0.1064839E+005  0.1043930E+01  0.7957747E-01            NaN
         13   -1    0    0    0    0  0.00000000000E+00  0.00000000000E+00  0.74505805969E-08  0.10566000000E+00  0.10566000000E+00 0. -1.
     999900   -1    0    0    0    0 -0.00000000000E+00 -0.00000000000E+00 -0.74505805969E-08  0.93827000000E+00  0.93827000000E+00 0.  1.
     999902    2    1    2    0    0 -0.29699199184E-02  0.15012900637E-02 -0.24174194266E-01  0.10195278287E+01  0.10192357566E+01 0.  0.
     999903    2    3    3    0    0  0.86877661944E-02  0.23395723905E-01  0.12129675601E+00  0.12724028241E+00  0.29229253661E-01 0.  0.
         14    1    1    2    0    0  0.29699199184E-02 -0.15012900637E-02  0.24174194266E-01  0.24402171309E-01  0.00000000000E+00 0. -1.
     999901    1    3    3    0    0 -0.11657686113E-01 -0.21894433841E-01 -0.14547095028E+00  0.89228754628E+00  0.88000000000E+00 0.  1.
        -11    1    4    4    0    0 -0.76583589374E-02  0.19876994507E-01  0.58727846733E-01  0.62473726279E-01  0.51100000000E-03 0.  1.
         11    1    4    4    0    0  0.16346125132E-01  0.35187293974E-02  0.62568909279E-01  0.64766556128E-01  0.51100000000E-03 0. -1.
</event>
<event>
 8    1  0.1064839E+005  0.1043930E+01  0.7957747E-01            NaN
         13   -1    0    0    0    0  0.00000000000E+00  0.00000000000E+00  0.74505805969E-08  0.10566000000E+00  0.10566000000E+00 0. -1.
     999900   -1    0    0    0    0 -0.00000000000E+00 -0.00000000000E+00 -0.74505805969E-08  0.93827000000E+00  0.93827000000E+00 0.  1.
     999902    2    1    2    0    0 -0.34167947903E-02 -0.12926715869E-01 -0.19648587540E-01  0.10201636065E+01  0.10198867302E+01 0.  0.
     999903    2    3    3    0    0 -0.97816316683E-01 -0.34749274349E-01  0.75248717327E-01  0.12977437007E+00  0.20086657051E-01 0.  0.
         14    1    1    2    0    0  0.34167947903E-02  0.12926715869E-01  0.19648587540E-01  0.23766393545E-01  0.00000000000E+00 0. -1.
     999901    1    3    3    0    0  0.94399521893E-01  0.21822558480E-01 -0.94897304867E-01  0.89038923638E+00  0.88000000000E+00 0.  1.
        -11    1    4    4    0    0 -0.17968595590E-01 -0.11626004348E-01  0.23800113083E-01  0.32011574599E-01  0.51100000000E-03 0.  1.
         11    1    4    4    0    0 -0.79847721094E-01 -0.23123270001E-01  0.51448604244E-01  0.97762795475E-01  0.51100000000E-03 0. -1.
</event>
<event>
 8    1  0.1064839E+005  0.1043930E+01  0.7957747E-01            NaN
         13   -1    0    0    0    0  0.00000000000E+00  0.00000000000E+00  0.74505805969E-08  0.10566000000E+00  0.10566000000E+00 0. -1.
     999900   -1    0    0    0    0 -0.00000000000E+00 -0.00000000000E+00 -0.74505805969E-08  0.93827000000E+00  0.93827000000E+00 0.  1.
     999902    2    1    2    0    0  0.89660171863E-02  0.16985637040E-01  0.13112745231E-01  0.10206739166E+01  0.10204089369E+01 0.  0.
     999903    2    3    3    0    0 -0.90163342198E-02 -0.15054349540E-01  0.12951211989E+00  0.13224905190E+00  0.20211254476E-01 0.  0.
         14    1    1    2    0    0 -0.89660171863E-02 -0.16985637040E-01 -0.13112745231E-01  0.23256083448E-01  0.00000000000E+00 0.  1.
     999901    1    3    3    0    0  0.17982351406E-01  0.32039986580E-01 -0.11639937466E+00  0.88842486465E+00  0.88000000000E+00 0.  1.
        -11    1    4    4    0    0 -0.13477003316E-01 -0.35153736886E-02  0.80471338591E-01  0.81669363449E-01  0.51100000000E-03 0. -1.
         11    1    4    4    0    0  0.44606690963E-02 -0.11538975852E-01  0.49040781303E-01  0.50579688456E-01  0.51100000000E-03 0.  1.
</event>
<event>
 8    1  0.1064839E+005  0.1043930E+01  0.7957747E-01            NaN
         13   -1    0    0    0    0  0.00000000000E+00  0.00000000000E+00  0.74505805969E-08  0.10566000000E+00  0.10566000000E+00 0. -1.
     999900   -1    0    0    0    0 -0.00000000000E+00 -0.00000000000E+00 -0.74505805969E-08  0.93827000000E+00  0.93827000000E+00 0.  1.
     999902    2    1    2    0    0 -0.48069075440E-02 -0.22045040395E-01  0.26041812815E-02  0.10212171859E+01  0.10209645776E+01 0.  0.
     999903    2    3    3    0    0  0.48019540144E-01 -0.10135865515E+00  0.69607630216E-01  0.13354002313E+00  0.20205503766E-01 0.  0.
         14    1    1    2    0    0  0.48069075440E-02  0.22045040395E-01 -0.26041812815E-02  0.22712814143E-01  0.00000000000E+00 0.  1.
     999901    1    3    3    0    0 -0.52826447688E-01  0.79313614759E-01 -0.67003448935E-01  0.88767716273E+00  0.88000000000E+00 0.  1.
        -11    1    4    4    0    0  0.25856205435E-01 -0.49405372588E-01  0.23052349881E-01  0.60341578999E-01  0.51100000000E-03 0.  1.
         11    1    4    4    0    0  0.22163334709E-01 -0.51953282566E-01  0.46555280336E-01  0.73198444129E-01  0.51100000000E-03 0. -1.
</event>
<event>
 8    1  0.1064839E+005  0.1043930E+01  0.7957747E-01            NaN
         13   -1    0    0    0    0  0.00000000000E+00  0.00000000000E+00  0.74505805969E-08  0.10566000000E+00  0.10566000000E+00 0.  1.
     999900   -1    0    0    0    0 -0.00000000000E+00 -0.00000000000E+00 -0.74505805969E-08  0.93827000000E+00  0.93827000000E+00 0. -1.
     999902    2    1    2    0    0 -0.10391832747E-01  0.41470317531E-03 -0.23381578711E-01  0.10183397599E+01  0.10180181757E+01 0.  0.
     999903    2    3    3    0    0 -0.26287353685E-01  0.78626630693E-01 -0.10001454563E+00  0.13141113546E+00  0.19819312974E-01 0.  0.
         14    1    1    2    0    0  0.10391832747E-01 -0.41470317531E-03  0.23381578711E-01  0.25590240124E-01  0.00000000000E+00 0.  1.
     999901    1    3    3    0    0  0.15895520937E-01 -0.78211927518E-01  0.76632966921E-01  0.88692862442E+00  0.88000000000E+00 0.  1.
        -11    1    4    4    0    0 -0.76908095997E-02  0.94351815068E-02 -0.24220677364E-01  0.27112239586E-01  0.51100000000E-03 0.  1.
         11    1    4    4    0    0 -0.18596544085E-01  0.69191449186E-01 -0.75793868268E-01  0.10429889587E+00  0.51100000000E-03 0. -1.
</event>
<event>
 8    1  0.1064839E+005  0.1043930E+01  0.7957747E-01            NaN
         13   -1    0    0    0    0  0.00000000000E+00  0.00000000000E+00  0.74505805969E-08  0.10566000000E+00  0.10566000000E+00 0.  1.
     999900   -1    0    0    0    0 -0.00000000000E+00 -0.00000000000E+00 -0.74505805969E-08  0.93827000000E+00  0.93827000000E+00 0. -1.
     999902    2    1    2    0    0 -0.10868243006E-01 -0.16663925184E-01  0.11681461312E-01  0.10208592036E+01  0.10205984773E+01 0.  0.
     999903    2    3    3    0    0 -0.12851119488E+00  0.14706678481E-01  0.20215789981E-01  0.13243542314E+00  0.19976224317E-01 0.  0.
         14    1    1    2    0    0  0.10868243006E-01  0.16663925184E-01 -0.11681461312E-01  0.23070796410E-01  0.00000000000E+00 0. -1.
     999901    1    3    3    0    0  0.11764295187E+00 -0.31370603665E-01 -0.85343286687E-02  0.88842378045E+00  0.88000000000E+00 0.  1.
        -11    1    4    4    0    0 -0.96606652816E-01  0.18257827171E-01  0.10420640670E-01  0.98868824683E-01  0.51100000000E-03 0.  1.
         11    1    4    4    0    0 -0.31904542060E-01 -0.35511486904E-02  0.97951493109E-02  0.33566598459E-01  0.51100000000E-03 0. -1.
</event>
<event>
 8    1  0.1064839E+005  0.1043930E+01  0.7957747E-01            NaN
         13   -1    0    0    0    0  0.00000000000E+00  0.00000000000E+00  0.74505805969E-08  0.10566000000E+00  0.10566000000E+00 0. -1.
     999900   -1    0    0    0    0 -0.00000000000E+00 -0.00000000000E+00 -0.74505805969E-08  0.93827000000E+00  0.93827000000E+00 0. -1.
     999902    2    1    2    0    0  0.20898694339E-01 -0.10050157956E-01 -0.20123976601E-02  0.10206531694E+01  0.10203877113E+01 0.  0.
     999903    2    3    3    0    0  0.31798106375E-01 -0.12538749889E+00  0.23131589029E-01  0.13270400446E+00  0.18496971109E-01 0.  0.
         14    1    1    2    0    0 -0.20898694339E-01  0.10050157956E-01  0.20123976601E-02  0.23276830634E-01  0.00000000000E+00 0.  1.
     999901    1    3    3    0    0 -0.10899412037E-01  0.11533734094E+00 -0.25143986689E-01  0.88794916491E+00  0.88000000000E+00 0.  1.
        -11    1    4    4    0    0  0.42895971134E-02 -0.37653492860E-01  0.34663618717E-04  0.37900507787E-01  0.51100000000E-03 0. -1.
         11    1    4    4    0    0  0.27508509262E-01 -0.87734006033E-01  0.23096925411E-01  0.94803496670E-01  0.51100000000E-03 0.  1.
</event>
<event>
 8    1  0.1064839E+005  0.1043930E+01  0.7957747E-01            NaN
         13   -1    0    0    0    0  0.00000000000E+00  0.00000000000E+00  0.74505805969E-08  0.10566000000E+00  0.10566000000E+00 0.  1.
     999900   -1    0    0    0    0 -0.00000000000E+00 -0.00000000000E+00 -0.74505805969E-08  0.93827000000E+00  0.93827000000E+00 0.  1.
     999902    2    1    2    0    0  0.14774362070E-01 -0.10164115394E-01  0.15897570841E-01  0.10199649468E+01  0.10196833670E+01 0.  0.
     999903    2    3    3    0    0  0.98897340452E-02  0.56128087682E-01  0.11681016301E+00  0.13170717620E+00  0.21307205679E-01 0.  0.
         14    1    1    2    0    0 -0.14774362070E-01  0.10164115394E-01 -0.15897570841E-01  0.23965053201E-01  0.00000000000E+00 0.  1.
     999901    1    3    3    0    0  0.48846280245E-02 -0.66292203075E-01 -0.10091259216E+00  0.88825777060E+00  0.88000000000E+00 0.  1.
        -11    1    4    4    0    0  0.34158704991E-02  0.36509409400E-01  0.94143742014E-01  0.10103420424E+00  0.51100000000E-03 0. -1.
         11    1    4    4    0    0  0.64738635461E-02  0.19618678282E-01  0.22666420992E-01  0.30672971951E-01  0.51100000000E-03 0.  1.
</event>
<event>
 8    1  0.1064839E+005  0.1043930E+01  0.7957747E-01            NaN
         13   -1    0    0    0    0  0.00000000000E+00  0.00000000000E+00  0.74505805969E-08  0.10566000000E+00  0.10566000000E+00 0. -1.
     999900   -1    0    0    0    0 -0.00000000000E+00 -0.00000000000E+00 -0.74505805969E-08  0.93827000000E+00  0.93827000000E+00 0.  1.
     999902    2    1    2    0    0  0.15130018717E-01 -0.16189883089E-01  0.55379807703E-02  0.10210892686E+01  0.10208337746E+01 0.  0.
     999903    2    3    3    0    0  0.12551660950E+00 -0.41104877128E-01 -0.68291918993E-02  0.13375680365E+00  0.20005361244E-01 0.  0.
         14    1    1    2    0    0 -0.15130018717E-01  0.16189883089E-01 -0.55379807703E-02  0.22840731420E-01  0.00000000000E+00 0.  1.
     999901    1    3    3    0    0 -0.11038659078E+00  0.24914994039E-01  0.12367172670E-01  0.88733246493E+00  0.88000000000E+00 0. -1.
        -11    1    4    4    0    0  0.69694079988E-01 -0.21191979568E-01  0.60709692288E-02  0.73099128393E-01  0.51100000000E-03 0. -1.
         11    1    4    4    0    0  0.55822529508E-01 -0.19912897560E-01 -0.12900161128E-01  0.60657675261E-01  0.51100000000E-03 0.  1.
</event>
<event>
 8    1  0.1064839E+005  0.1043930E+01  0.7957747E-01            NaN
         13   -1    0    0    0    0  0.00000000000E+00  0.00000000000E+00  0.74505805969E-08  0.10566000000E+00  0.10566000000E+00 0. -1.
     999900   -1    0    0    0    0 -0.00000000000E+00 -0.00000000000E+00 -0.74505805969E-08  0.93827000000E+00  0.93827000000E+00 0.  1.
     999902    2    1    2    0    0  0.18543104027E-01  0.92004518896E-02  0.46276591986E-02  0.10227189121E+01  0.10224989305E+01 0.  0.
     999903    2    3    3    0    0 -0.71434669606E-01 -0.64467599171E-01 -0.86321102905E-01  0.13042150714E+00  0.17304720569E-01 0.  0.
         14    1    1    2    0    0 -0.18543104027E-01 -0.92004518896E-02 -0.46276591986E-02  0.21211087940E-01  0.00000000000E+00 0.  1.
     999901    1    3    3    0    0  0.89977773633E-01  0.73668051060E-01  0.90948762103E-01  0.89229740492E+00  0.88000000000E+00 0. -1.
        -11    1    4    4    0    0 -0.12262865401E-01 -0.19023205931E-01 -0.26014615307E-01  0.34485961815E-01  0.51100000000E-03 0. -1.
         11    1    4    4    0    0 -0.59171804205E-01 -0.45444393239E-01 -0.60306487598E-01  0.95935545327E-01  0.51100000000E-03 0.  1.
</event>
<event>
 8    1  0.1064839E+005  0.1043930E+01  0.7957747E-01            NaN
         13   -1    0    0    0    0  0.00000000000E+00  0.00000000000E+00  0.74505805969E-08  0.10566000000E+00  0.10566000000E+00 0. -1.
     999900   -1    0    0    0    0 -0.00000000000E+00 -0.00000000000E+00 -0.74505805969E-08  0.93827000000E+00  0.93827000000E+00 0. -1.
     999902    2    1    2    0    0  0.58170106295E-02 -0.23456157508E-01  0.59711675642E-03  0.10197559336E+01  0.10194693613E+01 0.  0.
     999903    2    3    3    0    0  0.12157591277E+00 -0.45324109121E-01 -0.36087284516E-02  0.13189557304E+00  0.23418834982E-01 0.  0.
         14    1    1    2    0    0 -0.58170106295E-02  0.23456157508E-01 -0.59711675642E-03  0.24174066396E-01  0.00000000000E+00 0. -1.
     999901    1    3    3    0    0 -0.11575890214E+00  0.21867951613E-01  0.42058452080E-02  0.88786036057E+00  0.88000000000E+00 0. -1.
        -11    1    4    4    0    0  0.44027848297E-01 -0.17285587996E-01 -0.12579039820E-01  0.48946259733E-01  0.51100000000E-03 0.  1.
         11    1    4    4    0    0  0.77548064474E-01 -0.28038521125E-01  0.89703113686E-02  0.82949313304E-01  0.51100000000E-03 0. -1.
</event>
<event>
 8    1  0.1064839E+005  0.1043930E+01  0.7957747E-01            NaN
         13   -1    0    0    0    0  0.00000000000E+00  0.00000000000E+00  0.74505805969E-08  0.10566000000E+00  0.10566000000E+00 0. -1.
     999900   -1    0    0    0    0 -0.00000000000E+00 -0.00000000000E+00 -0.74505805969E-08  0.93827000000E+00  0.93827000000E+00 0.  1.
     999902    2    1    2    0    0  0.11730409640E-01 -0.49353215495E-02 -0.18513958321E-01  0.10214638797E+01  0.10212167894E+01 0.  0.
     999903    2    3    3    0    0  0.93619649844E-01  0.51697992551E-01  0.73278290556E-01  0.13110496505E+00  0.19531582700E-01 0.  0.
         14    1    1    2    0    0 -0.11730409640E-01  0.49353215495E-02  0.18513958321E-01  0.22466120311E-01  0.00000000000E+00 0. -1.
     999901    1    3    3    0    0 -0.81889240204E-01 -0.56633314100E-01 -0.91792248877E-01  0.89035891464E+00  0.88000000000E+00 0.  1.
        -11    1    4    4    0    0  0.13780387534E-01  0.30617569933E-02  0.16521111253E-01  0.21736643589E-01  0.51100000000E-03 0. -1.
         11    1    4    4    0    0  0.79839262310E-01  0.48636235557E-01  0.56757179303E-01  0.10936832146E+00  0.51100000000E-03 0.  1.
</event>
<event>
 8    1  0.1064839E+005  0.1043930E+01  0.7957747E-01            NaN
         13   -1    0    0    0    0  0.00000000000E+00  0.00000000000E+00  0.74505805969E-08  0.10566000000E+00  0.10566000000E+00 0. -1.
     999900   -1    0    0    0    0 -0.00000000000E+00 -0.00000000000E+00 -0.74505805969E-08  0.93827000000E+00  0.93827000000E+00 0.  1.
     999902    2    1    2    0    0 -0.15664009240E-01 -0.11496060764E-01 -0.13880376790E-01  0.10200514435E+01  0.10197719167E+01 0.  0.
     999903    2    3    3    0    0 -0.99304902676E-01 -0.82705539001E-01  0.22788461719E-01  0.13246415625E+00  0.18049067213E-01 0.  0.
         14    1    1    2    0    0  0.15664009240E-01  0.11496060764E-01  0.13880376790E-01  0.23878556455E-01  0.00000000000E+00 0. -1.
     999901    1    3    3    0    0  0.83640893436E-01  0.71209478237E-01 -0.36668838509E-01  0.88758728729E+00  0.88000000000E+00 0.  1.
        -11    1    4    4    0    0 -0.63955014921E-01 -0.60399042510E-01  0.21891252693E-01  0.90651951634E-01  0.51100000000E-03 0.  1.
         11    1    4    4    0    0 -0.35349887755E-01 -0.22306496491E-01  0.89720902644E-03  0.41812204618E-01  0.51100000000E-03 0. -1.
</event>
<event>
 8    1  0.1064839E+005  0.1043930E+01  0.7957747E-01            NaN
         13   -1    0    0    0    0  0.00000000000E+00  0.00000000000E+00  0.74505805969E-08  0.10566000000E+00  0.10566000000E+00 0. -1.
     999900   -1    0    0    0    0 -0.00000000000E+00 -0.00000000000E+00 -0.74505805969E-08  0.93827000000E+00  0.93827000000E+00 0.  1.
     999902    2    1    2    0    0  0.13162293051E-01  0.18769063588E-01 -0.73889438967E-02  0.10198443155E+01  0.10195598598E+01 0.  0.
     999903    2    3    3    0    0 -0.88072394868E-01  0.93713006629E-01  0.10916304982E-01  0.13068733342E+00  0.20521672728E-01 0.  0.
         14    1    1    2    0    0 -0.13162293051E-01 -0.18769063588E-01  0.73889438967E-02  0.24085684509E-01  0.00000000000E+00 0. -1.
     999901    1    3    3    0    0  0.10123468792E+00 -0.74943943041E-01 -0.18305248879E-01  0.88915698208E+00  0.88000000000E+00 0.  1.
        -11    1    4    4    0    0 -0.60210540713E-01  0.65620825372E-01  0.16956895521E-01  0.90659800144E-01  0.51100000000E-03 0.  1.
         11    1    4    4    0    0 -0.27861854155E-01  0.28092181257E-01 -0.60405905393E-02  0.40027533272E-01  0.51100000000E-03 0. -1.
</event>
<event>
 8    1  0.1064839E+005  0.1043930E+01  0.7957747E-01            NaN
         13   -1    0    0    0    0  0.00000000000E+00  0.00000000000E+00  0.74505805969E-08  0.10566000000E+00  0.10566000000E+00 0.  1.
     999900   -1    0    0    0    0 -0.00000000000E+00 -0.00000000000E+00 -0.74505805969E-08  0.93827000000E+00  0.93827000000E+00 0.  1.
     999902    2    1    2    0    0 -0.80267469620E-02  0.13046090738E-01  0.17393610370E-01  0.10207531402E+01  0.10204899834E+01 0.  0.
     999903    2    3    3    0    0 -0.13003740655E+00 -0.86040759908E-02  0.79426640605E-02  0.13202109328E+00  0.19563382405E-01 0.  0.
         14    1    1    2    0    0  0.80267469620E-02 -0.13046090738E-01 -0.17393610370E-01  0.23176859840E-01  0.00000000000E+00 0. -1.
     999901    1    3    3    0    0  0.12201065959E+00  0.21650166728E-01  0.94509463098E-02  0.88873204688E+00  0.88000000000E+00 0.  1.
        -11    1    4    4    0    0 -0.49771716698E-01  0.55406531430E-02 -0.47015451298E-03  0.50083977344E-01  0.51100000000E-03 0. -1.
         11    1    4    4    0    0 -0.80265689853E-01 -0.14144729134E-01  0.84128185734E-02  0.81937115932E-01  0.51100000000E-03 0.  1.
</event>
<event>
 8    1  0.1064839E+005  0.1043930E+01  0.7957747E-01            NaN
         13   -1    0    0    0    0  0.00000000000E+00  0.00000000000E+00  0.74505805969E-08  0.10566000000E+00  0.10566000000E+00 0. -1.
     999900   -1    0    0    0    0 -0.00000000000E+00 -0.00000000000E+00 -0.74505805969E-08  0.93827000000E+00  0.93827000000E+00 0.  1.
     999902    2    1    2    0    0  0.77382238943E-02 -0.21704935570E-01  0.84547602437E-02  0.10193847905E+01  0.10190892423E+01 0.  0.
     999903    2    3    3    0    0  0.48339565873E-01 -0.33999154007E-01 -0.11387401552E+00  0.12991081893E+00  0.20417476848E-01 0.  0.
         14    1    1    2    0    0 -0.77382238943E-02  0.21704935570E-01 -0.84547602437E-02  0.24545209470E-01  0.00000000000E+00 0. -1.
     999901    1    3    3    0    0 -0.40601341979E-01  0.12294218438E-01  0.12232877577E+00  0.88947397160E+00  0.88000000000E+00 0. -1.
        -11    1    4    4    0    0  0.14161837815E-01 -0.18791208026E-01 -0.58761674314E-01  0.63299783874E-01  0.51100000000E-03 0.  1.
         11    1    4    4    0    0  0.34177728058E-01 -0.15207945981E-01 -0.55112341211E-01  0.66611035054E-01  0.51100000000E-03 0. -1.
</event>
<event>
 8    1  0.1064839E+005  0.1043930E+01  0.7957747E-01            NaN
         13   -1    0    0    0    0  0.00000000000E+00  0.00000000000E+00  0.74505805969E-08  0.10566000000E+00  0.10566000000E+00 0.  1.
     999900   -1    0    0    0    0 -0.00000000000E+00 -0.00000000000E+00 -0.74505805969E-08  0.93827000000E+00  0.93827000000E+00 0.  1.
     999902    2    1    2    0    0 -0.30089331409E-02 -0.22341049712E-01  0.59851916000E-02  0.10206062203E+01  0.10203396779E+01 0.  0.
     999903    2    3    3    0    0 -0.84605998770E-02 -0.11826703306E+00 -0.57770601727E-01  0.13308364812E+00  0.17752242473E-01 0.  0.
         14    1    1    2    0    0  0.30089331409E-02  0.22341049712E-01 -0.59851916000E-02  0.23323779697E-01  0.00000000000E+00 0.  1.
     999901    1    3    3    0    0  0.54516667361E-02  0.95925983353E-01  0.63755793327E-01  0.88752257218E+00  0.88000000000E+00 0. -1.
        -11    1    4    4    0    0  0.12723748276E-02 -0.39248128191E-01 -0.27326553568E-01  0.47843872702E-01  0.51100000000E-03 0.  1.
         11    1    4    4    0    0 -0.97329747046E-02 -0.79018904874E-01 -0.30444048159E-01  0.85239775418E-01  0.51100000000E-03 0. -1.
</event>
<event>
 8    1  0.1064839E+005  0.1043930E+01  0.7957747E-01            NaN
         13   -1    0    0    0    0  0.00000000000E+00  0.00000000000E+00  0.74505805969E-08  0.10566000000E+00  0.10566000000E+00 0. -1.
     999900   -1    0    0    0    0 -0.00000000000E+00 -0.00000000000E+00 -0.74505805969E-08  0.93827000000E+00  0.93827000000E+00 0.  1.
     999902    2    1    2    0    0  0.35039797781E-02  0.22735269549E-01 -0.37227712954E-02  0.10206270092E+01  0.10203609471E+01 0.  0.
     999903    2    3    3    0    0 -0.79382538157E-01  0.91971687247E-01 -0.50145281565E-01  0.13281007654E+00  0.19067998024E-01 0.  0.
         14    1    1    2    0    0 -0.35039797781E-02 -0.22735269549E-01  0.37227712954E-02  0.23302990835E-01  0.00000000000E+00 0.  1.
     999901    1    3    3    0    0  0.82886517935E-01 -0.69236417697E-01  0.46422510270E-01  0.88781693262E+00  0.88000000000E+00 0. -1.
        -11    1    4    4    0    0 -0.35184725337E-01  0.37308356332E-01 -0.31100386532E-01  0.59978108612E-01  0.51100000000E-03 0. -1.
         11    1    4    4    0    0 -0.44197812821E-01  0.54663330914E-01 -0.19044895033E-01  0.72831967930E-01  0.51100000000E-03 0.  1.
</event>
<event>
 8    1  0.1064839E+005  0.1043930E+01  0.7957747E-01            NaN
         13   -1    0    0    0    0  0.00000000000E+00  0.00000000000E+00  0.74505805969E-08  0.10566000000E+00  0.10566000000E+00 0. -1.
     999900   -1    0    0    0    0 -0.00000000000E+00 -0.00000000000E+00 -0.74505805969E-08  0.93827000000E+00  0.93827000000E+00 0. -1.
     999902    2    1    2    0    0  0.22566499019E-01  0.21206197027E-02 -0.70066942582E-02  0.10202057999E+01  0.10199299174E+01 0.  0.
     999903    2    3    3    0    0 -0.61907132538E-02 -0.12763874308E+00  0.12224325946E-01  0.13001800981E+00  0.20622198374E-01 0.  0.
         14    1    1    2    0    0 -0.22566499019E-01 -0.21206197027E-02  0.70066942582E-02  0.23724200099E-01  0.00000000000E+00 0. -1.
     999901    1    3    3    0    0  0.28757212273E-01  0.12975936278E+00 -0.19231020204E-01  0.89018779009E+00  0.88000000000E+00 0. -1.
        -11    1    4    4    0    0 -0.99949596519E-02 -0.39095608784E-01 -0.12371608548E-02  0.40375209382E-01  0.51100000000E-03 0.  1.
         11    1    4    4    0    0  0.38042463982E-02 -0.88543134292E-01  0.13461486801E-01  0.89642800430E-01  0.51100000000E-03 0. -1.
</event>
<event>
 8    1  0.1064839E+005  0.1043930E+01  0.7957747E-01            NaN
         13   -1    0    0    0    0  0.00000000000E+00  0.00000000000E+00  0.74505805969E-08  0.10566000000E+00  0.10566000000E+00 0. -1.
     999900   -1    0    0    0    0 -0.00000000000E+00 -0.00000000000E+00 -0.74505805969E-08  0.93827000000E+00  0.93827000000E+00 0.  1.
     999902    2    1    2    0    0 -0.14388758031E-02  0.23724586180E-01 -0.28801208820E-02  0.10199879565E+01  0.10197069235E+01 0.  0.
     999903    2    3    3    0    0  0.83883784791E-01 -0.71757523639E-01 -0.61648886399E-01  0.12878059702E+00  0.24458647238E-01 0.  0.
         14    1    1    2    0    0  0.14388758031E-02 -0.23724586180E-01  0.28801208820E-02  0.23942043549E-01  0.00000000000E+00 0.  1.
     999901    1    3    3    0    0 -0.85322660594E-01  0.95482109819E-01  0.58768765517E-01  0.89120735943E+00  0.88000000000E+00 0. -1.
        -11    1    4    4    0    0  0.48758642737E-01 -0.54490921719E-01 -0.32729564840E-01  0.80113365470E-01  0.51100000000E-03 0. -1.
         11    1    4    4    0    0  0.35125142054E-01 -0.17266601919E-01 -0.28919321559E-01  0.48667231548E-01  0.51100000000E-03 0.  1.
</event>
<event>
 8    1  0.1064839E+005  0.1043930E+01  0.7957747E-01            NaN
         13   -1    0    0    0    0  0.00000000000E+00  0.00000000000E+00  0.74505805969E-08  0.10566000000E+00  0.10566000000E+00 0.  1.
     999900   -1    0    0    0    0 -0.00000000000E+00 -0.00000000000E+00 -0.74505805969E-08  0.93827000000E+00  0.93827000000E+00 0.  1.
     999902    2    1    2    0    0 -0.21072992253E-01  0.61566770544E-02  0.93073141341E-02  0.10200846279E+01  0.10198058866E+01 0.  0.
     999903    2    3    3    0    0  0.12286113664E+00  0.14661535205E-02 -0.27514019343E-01  0.12761902907E+00  0.20798721510E-01 0.  0.
         14    1    1    2    0    0  0.21072992253E-01 -0.61566770544E-02 -0.93073141341E-02  0.23845372114E-01  0.00000000000E+00 0. -1.
     999901    1    3    3    0    0 -0.14393412890E+00  0.46905235339E-02  0.36821333477E-01  0.89246559882E+00  0.88000000000E+00 0. -1.
        -11    1    4    4    0    0  0.14664415065E-01 -0.10905822567E-02  0.33212165620E-02  0.15083966299E-01  0.51100000000E-03 0.  1.
         11    1    4    4    0    0  0.10819672158E+00  0.25567357772E-02 -0.30835235905E-01  0.11253506277E+00  0.51100000000E-03 0. -1.
</event>
<event>
 8    1  0.1064839E+005  0.1043930E+01  0.7957747E-01            NaN
         13   -1    0    0    0    0  0.00000000000E+00  0.00000000000E+00  0.74505805969E-08  0.10566000000E+00  0.10566000000E+00 0. -1.
     999900   -1    0    0    0    0 -0.00000000000E+00 -0.00000000000E+00 -0.74505805969E-08  0.93827000000E+00  0.93827000000E+00 0. -1.
     999902    2    1    2    0    0  0.28045437719E-01 -0.14299560617E-02 -0.21353691130E-01  0.10086515154E+01  0.10080343784E+01 0.  0.
     999903    2    3    3    0    0  0.44032851582E-01 -0.76237006430E-01  0.78836962514E-01  0.11966903004E+00  0.18826495284E-01 0.  0.
         14    1    1    2    0    0 -0.28045437719E-01  0.14299560617E-02  0.21353691130E-01  0.35278484606E-01  0.00000000000E+00 0. -1.
     999901    1    3    3    0    0 -0.15987413863E-01  0.74807050369E-01 -0.10019065364E+00  0.88898248535E+00  0.88000000000E+00 0.  1.
        -11    1    4    4    0    0  0.17993559402E-01 -0.41515314271E-01  0.29794443992E-01  0.54178035335E-01  0.51100000000E-03 0. -1.
         11    1    4    4    0    0  0.26039292179E-01 -0.34721692160E-01  0.49042518522E-01  0.65490994706E-01  0.51100000000E-03 0.  1.
</event>
<event>
 8    1  0.1064839E+005  0.1043930E+01  0.7957747E-01            NaN
         13   -1    0    0    0    0  0.00000000000E+00  0.00000000000E+00  0.74505805969E-08  0.10566000000E+00  0.10566000000E+00 0. -1.
     999900   -1    0    0    0    0 -0.00000000000E+00 -0.00000000000E+00 -0.74505805969E-08  0.93827000000E+00  0.93827000000E+00 0.  1.
     999902    2    1    2    0    0 -0.13652521022E-01  0.12656989023E-01  0.13088916433E-01  0.10211723544E+01  0.10209187367E+01 0.  0.
     999903    2    3    3    0    0  0.81203324209E-01 -0.35021741645E-01  0.94610458751E-01  0.13105064662E+00  0.20065662833E-01 0.  0.
         14    1    1    2    0    0  0.13652521022E-01 -0.12656989023E-01 -0.13088916433E-01  0.22757645634E-01  0.00000000000E+00 0.  1.
     999901    1    3    3    0    0 -0.94855845232E-01  0.47678730668E-01 -0.81521542318E-01  0.89012170774E+00  0.88000000000E+00 0.  1.
        -11    1    4    4    0    0  0.81874920776E-01 -0.32640281674E-01  0.91608817478E-01  0.12712720873E+00  0.51100000000E-03 0. -1.
         11    1    4    4    0    0 -0.67159656678E-03 -0.23814599705E-02  0.30016412730E-02  0.39234378894E-02  0.51100000000E-03 0.  1.
</event>
<event>
 8    1  0.1064839E+005  0.1043930E+01  0.7957747E-01            NaN
         13   -1    0    0    0    0  0.00000000000E+00  0.00000000000E+00  0.74505805969E-08  0.10566000000E+00  0.10566000000E+00 0.  1.
     999900   -1    0    0    0    0 -0.00000000000E+00 -0.00000000000E+00 -0.74505805969E-08  0.93827000000E+00  0.93827000000E+00 0. -1.
     999902    2    1    2    0    0  0.54470729898E-02  0.17991345040E-01 -0.13936423211E-01  0.10205295087E+01  0.10202611897E+01 0.  0.
     999903    2    3    3    0    0 -0.60769090786E-01  0.12168353519E-01 -0.11501975356E+00  0.13225234068E+00  0.20498455660E-01 0.  0.
         14    1    1    2    0    0 -0.54470729898E-02 -0.17991345040E-01  0.13936423211E-01  0.23400491286E-01  0.00000000000E+00 0.  1.
     999901    1    3    3    0    0  0.66216163775E-01  0.58229915215E-02  0.10108333035E+00  0.88827716803E+00  0.88000000000E+00 0.  1.
        -11    1    4    4    0    0 -0.83248843524E-02 -0.64948271984E-03 -0.33102597967E-01  0.34143354265E-01  0.51100000000E-03 0.  1.
         11    1    4    4    0    0 -0.52444206433E-01  0.12817836239E-01 -0.81917155592E-01  0.98108986416E-01  0.51100000000E-03 0. -1.
</event>
<event>
 8    1  0.1064839E+005  0.1043930E+01  0.7957747E-01            NaN
         13   -1    0    0    0    0  0.00000000000E+00  0.00000000000E+00  0.74505805969E-08  0.10566000000E+00  0.10566000000E+00 0. -1.
     999900   -1    0    0    0    0 -0.00000000000E+00 -0.00000000000E+00 -0.74505805969E-08  0.93827000000E+00  0.93827000000E+00 0. -1.
     999902    2    1    2    0    0 -0.42380183391E-02  0.27252202564E-01 -0.10426171374E-01  0.10144452854E+01  0.10140167103E+01 0.  0.
     999903    2    3    3    0    0  0.11242572418E+00  0.45452348319E-01 -0.28902630475E-01  0.12636699289E+00  0.20683215892E-01 0.  0.
         14    1    1    2    0    0  0.42380183391E-02 -0.27252202564E-01  0.10426171374E-01  0.29484714574E-01  0.00000000000E+00 0. -1.
     999901    1    3    3    0    0 -0.11666374252E+00 -0.18200145755E-01  0.18476459101E-01  0.88807829253E+00  0.88000000000E+00 0. -1.
        -11    1    4    4    0    0  0.74458282392E-01  0.20226406324E-01 -0.22213693970E-01  0.80292295087E-01  0.51100000000E-03 0. -1.
         11    1    4    4    0    0  0.37967441788E-01  0.25225941995E-01 -0.66889365049E-02  0.46074697807E-01  0.51100000000E-03 0.  1.
</event>
<event>
 8    1  0.1064839E+005  0.1043930E+01  0.7957747E-01            NaN
         13   -1    0    0    0    0  0.00000000000E+00  0.00000000000E+00  0.74505805969E-08  0.10566000000E+00  0.10566000000E+00 0. -1.
     999900   -1    0    0    0    0 -0.00000000000E+00 -0.00000000000E+00 -0.74505805969E-08  0.93827000000E+00  0.93827000000E+00 0. -1.
     999902    2    1    2    0    0  0.20706591884E-01 -0.57112989410E-02 -0.10921746764E-01  0.10198329787E+01  0.10195482519E+01 0.  0.
     999903    2    3    3    0    0 -0.55373059299E-01  0.72504746452E-01  0.86885824590E-01  0.12771629121E+00  0.20956874113E-01 0.  0.
         14    1    1    2    0    0 -0.20706591884E-01  0.57112989410E-02  0.10921746764E-01  0.24097021298E-01  0.00000000000E+00 0. -1.
     999901    1    3    3    0    0  0.76079651183E-01 -0.78216045393E-01 -0.97807571354E-01  0.89211668749E+00  0.88000000000E+00 0. -1.
        -11    1    4    4    0    0 -0.65596624082E-02  0.23265484488E-01  0.20013088613E-01  0.31386251388E-01  0.51100000000E-03 0.  1.
         11    1    4    4    0    0 -0.48813396891E-01  0.49239261963E-01  0.66872735977E-01  0.96330039826E-01  0.51100000000E-03 0. -1.
</event>
<event>
 8    1  0.1064839E+005  0.1043930E+01  0.7957747E-01            NaN
         13   -1    0    0    0    0  0.00000000000E+00  0.00000000000E+00  0.74505805969E-08  0.10566000000E+00  0.10566000000E+00 0.  1.
     999900   -1    0    0    0    0 -0.00000000000E+00 -0.00000000000E+00 -0.74505805969E-08  0.93827000000E+00  0.93827000000E+00 0. -1.
     999902    2    1    2    0    0  0.16798746815E-01  0.15828897534E-01 -0.65772547416E-02  0.10199297464E+01  0.10196473290E+01 0.  0.
     999903    2    3    3    0    0  0.55928914718E-01 -0.11295674027E+00  0.19601775701E-01  0.12931071891E+00  0.21207633980E-01 0.  0.
         14    1    1    2    0    0 -0.16798746815E-01 -0.15828897534E-01  0.65772547416E-02  0.24000253574E-01  0.00000000000E+00 0.  1.
     999901    1    3    3    0    0 -0.39130167903E-01  0.12878563781E+00 -0.26179030442E-01  0.89061902752E+00  0.88000000000E+00 0.  1.
        -11    1    4    4    0    0  0.12263041415E-01 -0.31066580820E-01 -0.37465814684E-02  0.33612685437E-01  0.51100000000E-03 0. -1.
         11    1    4    4    0    0  0.43665873303E-01 -0.81890159452E-01  0.23348357169E-01  0.95698033469E-01  0.51100000000E-03 0.  1.
</event>
<event>
 8    1  0.1064839E+005  0.1043930E+01  0.7957747E-01            NaN
         13   -1    0    0    0    0  0.00000000000E+00  0.00000000000E+00  0.74505805969E-08  0.10566000000E+00  0.10566000000E+00 0.  1.
     999900   -1    0    0    0    0 -0.00000000000E+00 -0.00000000000E+00 -0.74505805969E-08  0.93827000000E+00  0.93827000000E+00 0.  1.
     999902    2    1    2    0    0  0.10183815808E-01  0.21472595304E-01  0.17541687354E-02  0.10201001959E+01  0.10198218228E+01 0.  0.
     999903    2    3    3    0    0  0.53738762042E-01  0.92679873046E-01 -0.75822218732E-01  0.13275268474E+00  0.19921170612E-01 0.  0.
         14    1    1    2    0    0 -0.10183815808E-01 -0.21472595304E-01 -0.17541687354E-02  0.23829804058E-01  0.00000000000E+00 0.  1.
     999901    1    3    3    0    0 -0.43554946234E-01 -0.71207277742E-01  0.77576387467E-01  0.88734751120E+00  0.88000000000E+00 0. -1.
        -11    1    4    4    0    0  0.29802699330E-01  0.68373084568E-01 -0.56241134391E-01  0.93415233765E-01  0.51100000000E-03 0.  1.
         11    1    4    4    0    0  0.23936062711E-01  0.24306788477E-01 -0.19581084341E-01  0.39337450974E-01  0.51100000000E-03 0. -1.
</event>
<event>
 8    1  0.1064839E+005  0.1043930E+01  0.7957747E-01            NaN
         13   -1    0    0    0    0  0.00000000000E+00  0.00000000000E+00  0.74505805969E-08  0.10566000000E+00  0.10566000000E+00 0.  1.
     999900   -1    0    0    0    0 -0.00000000000E+00 -0.00000000000E+00 -0.74505805969E-08  0.93827000000E+00  0.93827000000E+00 0. -1.
     999902    2    1    2    0    0 -0.59649346881E-02  0.43951199696E-02 -0.23618760398E-01  0.10191763464E+01  0.10188756949E+01 0.  0.
     999903    2    3    3    0    0 -0.70577802677E-01 -0.87540601079E-01 -0.64628135060E-01  0.13108357626E+00  0.19013812215E-01 0.  0.
         14    1    1    2    0    0  0.59649346881E-02 -0.43951199696E-02  0.23618760398E-01  0.24753653632E-01  0.00000000000E+00 0.  1.
     999901    1    3    3    0    0  0.64612867989E-01  0.91935721049E-01  0.41009374661E-01  0.88809277011E+00  0.88000000000E+00 0.  1.
        -11    1    4    4    0    0 -0.46810617546E-01 -0.68870317866E-01 -0.52924024980E-01  0.98668982660E-01  0.51100000000E-03 0. -1.
         11    1    4    4    0    0 -0.23767185130E-01 -0.18670283213E-01 -0.11704110080E-01  0.32414593597E-01  0.51100000000E-03 0.  1.
</event>
<event>
 8    1  0.1064839E+005  0.1043930E+01  0.7957747E-01            NaN
         13   -1    0    0    0    0  0.00000000000E+00  0.00000000000E+00  0.74505805969E-08  0.10566000000E+00  0.10566000000E+00 0. -1.
     999900   -1    0    0    0    0 -0.00000000000E+00 -0.00000000000E+00 -0.74505805969E-08  0.93827000000E+00  0.93827000000E+00 0.  1.
     999902    2    1    2    0    0 -0.18056800961E-01  0.10870743763E-01  0.12286651474E-01  0.10195336286E+01  0.10192416970E+01 0.  0.
     999903    2    3    3    0    0 -0.82656056454E-01  0.10041125428E+00 -0.16468891118E-01  0.13216817514E+00  0.16815424188E-01 0.  0.
         14    1    1    2    0    0  0.18056800961E-01 -0.10870743763E-01 -0.12286651474E-01  0.24396371357E-01  0.00000000000E+00 0.  1.
     999901    1    3    3    0    0  0.64599255492E-01 -0.89540510522E-01  0.28755542592E-01  0.88736545350E+00  0.88000000000E+00 0. -1.
        -11    1    4    4    0    0 -0.16403494154E-01  0.11050966648E-01 -0.44370227919E-02  0.20276754587E-01  0.51100000000E-03 0.  1.
         11    1    4    4    0    0 -0.66252562299E-01  0.89360287637E-01 -0.12031868326E-01  0.11189142056E+00  0.51100000000E-03 0. -1.
</event>
<event>
 8    1  0.1064839E+005  0.1043930E+01  0.7957747E-01            NaN
         13   -1    0    0    0    0  0.00000000000E+00  0.00000000000E+00  0.74505805969E-08  0.10566000000E+00  0.10566000000E+00 0.  1.
     999900   -1    0    0    0    0 -0.00000000000E+00 -0.00000000000E+00 -0.74505805969E-08  0.93827000000E+00  0.93827000000E+00 0. -1.
     999902    2    1    2    0    0 -0.17051053650E-03 -0.16377538065E-01  0.15536495750E-01  0.10213548914E+01  0.10211053710E+01 0.  0.
     999903    2    3    3    0    0 -0.67167128637E-01 -0.11167877751E+00  0.21612308443E-01  0.13365686362E+00  0.20334522358E-01 0.  0.
         14    1    1    2    0    0  0.17051053650E-03  0.16377538065E-01 -0.15536495750E-01  0.22575108574E-01  0.00000000000E+00 0.  1.
     999901    1    3    3    0    0  0.66996618100E-01  0.95301239448E-01 -0.60758126930E-02  0.88769802781E+00  0.88000000000E+00 0. -1.
        -11    1    4    4    0    0 -0.61109723575E-01 -0.88681996358E-01  0.21731093676E-01  0.10986990647E+00  0.51100000000E-03 0.  1.
         11    1    4    4    0    0 -0.60574050620E-02 -0.22996781155E-01 -0.11878523335E-03  0.23786957151E-01  0.51100000000E-03 0. -1.
</event>
<event>
 8    1  0.1064839E+005  0.1043930E+01  0.7957747E-01            NaN
         13   -1    0    0    0    0  0.00000000000E+00  0.00000000000E+00  0.74505805969E-08  0.10566000000E+00  0.10566000000E+00 0.  1.
     999900   -1    0    0    0    0 -0.00000000000E+00 -0.00000000000E+00 -0.74505805969E-08  0.93827000000E+00  0.93827000000E+00 0.  1.
     999902    2    1    2    0    0 -0.61100059664E-02  0.22793177711E-01  0.36710332635E-02  0.10200482578E+01  0.10197686555E+01 0.  0.
     999903    2    3    3    0    0  0.65871609635E-01 -0.10634896941E+00 -0.14540121578E-01  0.12752896208E+00  0.20076074948E-01 0.  0.
         14    1    1    2    0    0  0.61100059664E-02 -0.22793177711E-01 -0.36710332635E-02  0.23881742154E-01  0.00000000000E+00 0.  1.
     999901    1    3    3    0    0 -0.71981615602E-01  0.12914214712E+00  0.18211154842E-01  0.89251929576E+00  0.88000000000E+00 0.  1.
        -11    1    4    4    0    0  0.31399450173E-01 -0.32888549762E-01 -0.73383092863E-02  0.46061850601E-01  0.51100000000E-03 0. -1.
         11    1    4    4    0    0  0.34472159462E-01 -0.73460419644E-01 -0.72018122917E-02  0.81467111484E-01  0.51100000000E-03 0.  1.
</event>
<event>
 8    1  0.1064839E+005  0.1043930E+01  0.7957747E-01            NaN
         13   -1    0    0    0    0  0.00000000000E+00  0.00000000000E+00  0.74505805969E-08  0.10566000000E+00  0.10566000000E+00 0.  1.
     999900   -1    0    0    0    0 -0.00000000000E+00 -0.00000000000E+00 -0.74505805969E-08  0.93827000000E+00  0.93827000000E+00 0. -1.
     999902    2    1    2    0    0 -0.91703230350E-02  0.21378049042E-01 -0.11304226645E-01  0.10180668729E+01  0.10177383044E+01 0.  0.
     999903    2    3    3    0    0 -0.37039714889E-01  0.75227653241E-01  0.96463064293E-01  0.12942168389E+00  0.20339842631E-01 0.  0.
         14    1    1    2    0    0  0.91703230350E-02 -0.21378049042E-01  0.11304226645E-01  0.25863127140E-01  0.00000000000E+00 0.  1.
     999901    1    3    3    0    0  0.27869391854E-01 -0.53849604199E-01 -0.10776729094E+00  0.88864518897E+00  0.88000000000E+00 0.  1.
        -11    1    4    4    0    0 -0.18905950054E-01  0.58463763224E-01  0.65452644440E-01  0.89776145735E-01  0.51100000000E-03 0. -1.
         11    1    4    4    0    0 -0.18133764835E-01  0.16763890017E-01  0.31010419852E-01  0.39645538160E-01  0.51100000000E-03 0.  1.
</event>
<event>
 8    1  0.1064839E+005  0.1043930E+01  0.7957747E-01            NaN
         13   -1    0    0    0    0  0.00000000000E+00  0.00000000000E+00  0.74505805969E-08  0.10566000000E+00  0.10566000000E+00 0. -1.
     999900   -1    0    0    0    0 -0.00000000000E+00 -0.00000000000E+00 -0.74505805969E-08  0.93827000000E+00  0.93827000000E+00 0.  1.
     999902    2    1    2    0    0  0.20240535247E-01  0.35091952706E-02  0.11970074017E-01  0.10201544581E+01  0.10198773662E+01 0.  0.
     999903    2    3    3    0    0  0.11325849984E+00 -0.39498403414E-01 -0.51240617048E-01  0.13195538882E+00  0.19975288351E-01 0.  0.
         14    1    1    2    0    0 -0.20240535247E-01 -0.35091952706E-02 -0.11970074017E-01  0.23775541855E-01  0.00000000000E+00 0.  1.
     999901    1    3    3    0    0 -0.93017964596E-01  0.43007598685E-01  0.63210691065E-01  0.88819906932E+00  0.88000000000E+00 0. -1.
        -11    1    4    4    0    0  0.95224264982E-02 -0.68603729097E-02 -0.22753001858E-04  0.11747466177E-01  0.51100000000E-03 0. -1.
         11    1    4    4    0    0  0.10373607334E+00 -0.32638030505E-01 -0.51217864046E-01  0.12020792264E+00  0.51100000000E-03 0.  1.
</event>
<event>
 8    1  0.1064839E+005  0.1043930E+01  0.7957747E-01            NaN
         13   -1    0    0    0    0  0.00000000000E+00  0.00000000000E+00  0.74505805969E-08  0.10566000000E+00  0.10566000000E+00 0.  1.
     999900   -1    0    0    0    0 -0.00000000000E+00 -0.00000000000E+00 -0.74505805969E-08  0.93827000000E+00  0.93827000000E+00 0.  1.
     999902    2    1    2    0    0  0.67928144634E-02 -0.25161931077E-01  0.45351846027E-02  0.10174756430E+01  0.10171316784E+01 0.  0.
     999903    2    3    3    0    0 -0.57088187339E-01 -0.59270806844E-01  0.98309280166E-01  0.12953545427E+00  0.18510258475E-01 0.  0.
         14    1    1    2    0    0 -0.67928144634E-02  0.25161931077E-01 -0.45351846027E-02  0.26454356980E-01  0.00000000000E+00 0.  1.
     999901    1    3    3    0    0  0.63881001803E-01  0.34108875767E-01 -0.93774095563E-01  0.88794018875E+00  0.88000000000E+00 0.  1.
        -11    1    4    4    0    0 -0.28655905021E-01 -0.18053801956E-01  0.45949304444E-01  0.57085027438E-01  0.51100000000E-03 0.  1.
         11    1    4    4    0    0 -0.28432282318E-01 -0.41217004888E-01  0.52359975721E-01  0.72450426833E-01  0.51100000000E-03 0. -1.
</event>
<event>
 8    1  0.1064839E+005  0.1043930E+01  0.7957747E-01            NaN
         13   -1    0    0    0    0  0.00000000000E+00  0.00000000000E+00  0.74505805969E-08  0.10566000000E+00  0.10566000000E+00 0. -1.
     999900   -1    0    0    0    0 -0.00000000000E+00 -0.00000000000E+00 -0.74505805969E-08  0.93827000000E+00  0.93827000000E+00 0. -1.
     999902    2    1    2    0    0 -0.19357713863E-01  0.13125342897E-01  0.15104009931E-02  0.10204933402E+01  0.10202241814E+01 0.  0.
     999903    2    3    3    0    0  0.48132979888E-01 -0.70431199811E-01  0.94714957036E-01  0.12907661449E+00  0.20310383144E-01 0.  0.
         14    1    1    2    0    0  0.19357713863E-01 -0.13125342897E-01 -0.15104009931E-02  0.23436659816E-01  0.00000000000E+00 0. -1.
     999901    1    3    3    0    0 -0.67490693751E-01  0.83556542708E-01 -0.93204556043E-01  0.89141672569E+00  0.88000000000E+00 0. -1.
        -11    1    4    4    0    0  0.23092972156E-01 -0.48774174582E-01  0.65948858566E-01  0.85215717660E-01  0.51100000000E-03 0.  1.
         11    1    4    4    0    0  0.25040007732E-01 -0.21657025229E-01  0.28766098470E-01  0.43860896835E-01  0.51100000000E-03 0. -1.
</event>
<event>
 8    1  0.1064839E+005  0.1043930E+01  0.7957747E-01            NaN
         13   -1    0    0    0    0  0.00000000000E+00  0.00000000000E+00  0.74505805969E-08  0.10566000000E+00  0.10566000000E+00 0. -1.
     999900   -1    0    0    0    0 -0.00000000000E+00 -0.00000000000E+00 -0.74505805969E-08  0.93827000000E+00  0.93827000000E+00 0. -1.
     999902    2    1    2    0    0  0.14660021442E-01  0.17705881311E-01 -0.65238136457E-02  0.10200349251E+01  0.10197550067E+01 0.  0.
     999903    2    3    3    0    0  0.81462321497E-01 -0.15998992703E-01 -0.10048774982E+00  0.13187514939E+00  0.20029717217E-01 0.  0.
         14    1    1    2    0    0 -0.14660021442E-01 -0.17705881311E-01  0.65238136457E-02  0.23895074935E-01  0.00000000000E+00 0. -1.
     999901    1    3    3    0    0 -0.66802300055E-01  0.33704874014E-01  0.93963936173E-01  0.88815977567E+00  0.88000000000E+00 0. -1.
        -11    1    4    4    0    0  0.46041278332E-01 -0.15256620332E-01 -0.45797539946E-01  0.66710115879E-01  0.51100000000E-03 0. -1.
         11    1    4    4    0    0  0.35421043165E-01 -0.74237237126E-03 -0.54690209873E-01  0.65165033512E-01  0.51100000000E-03 0.  1.
</event>
<event>
 8    1  0.1064839E+005  0.1043930E+01  0.7957747E-01            NaN
         13   -1    0    0    0    0  0.00000000000E+00  0.00000000000E+00  0.74505805969E-08  0.10566000000E+00  0.10566000000E+00 0. -1.
     999900   -1    0    0    0    0 -0.00000000000E+00 -0.00000000000E+00 -0.74505805969E-08  0.93827000000E+00  0.93827000000E+00 0.  1.
     999902    2    1    2    0    0 -0.82597566518E-02  0.64712325992E-02 -0.22033501151E-01  0.10195255823E+01  0.10192334557E+01 0.  0.
     999903    2    3    3    0    0 -0.18547673098E-01 -0.19646799931E-01  0.12275096734E+00  0.12725290245E+00  0.19886887019E-01 0.  0.
         14    1    1    2    0    0  0.82597566518E-02 -0.64712325992E-02  0.22033501151E-01  0.24404417720E-01  0.00000000000E+00 0. -1.
     999901    1    3    3    0    0  0.10287916446E-01  0.26118032530E-01 -0.14478446849E+00  0.89227267983E+00  0.88000000000E+00 0.  1.
        -11    1    4    4    0    0 -0.14650983917E-01 -0.16705668193E-02  0.64434938334E-01  0.66102681658E-01  0.51100000000E-03 0. -1.
         11    1    4    4    0    0 -0.38966891809E-02 -0.17976233112E-01  0.58316029005E-01  0.61150220796E-01  0.51100000000E-03 0.  1.
</event>
<event>
 8    1  0.1064839E+005  0.1043930E+01  0.7957747E-01            NaN
         13   -1    0    0    0    0  0.00000000000E+00  0.00000000000E+00  0.74505805969E-08  0.10566000000E+00  0.10566000000E+00 0.  1.
     999900   -1    0    0    0    0 -0.00000000000E+00 -0.00000000000E+00 -0.74505805969E-08  0.93827000000E+00  0.93827000000E+00 0.  1.
     999902    2    1    2    0    0 -0.15570616198E-01 -0.25365966594E-01  0.14920094354E-01  0.10106360731E+01  0.10100875144E+01 0.  0.
     999903    2    3    3    0    0 -0.11014001422E+00 -0.49141357105E-01 -0.23022930238E-01  0.12443727301E+00  0.20220877502E-01 0.  0.
         14    1    1    2    0    0  0.15570616198E-01  0.25365966594E-01 -0.14920094354E-01  0.33293926857E-01  0.00000000000E+00 0. -1.
     999901    1    3    3    0    0  0.94569398025E-01  0.23775390511E-01  0.37943024592E-01  0.88619880013E+00  0.88000000000E+00 0. -1.
        -11    1    4    4    0    0 -0.48106176091E-01 -0.20456632378E-01  0.12307172422E-03  0.52277664963E-01  0.51100000000E-03 0. -1.
         11    1    4    4    0    0 -0.62033838132E-01 -0.28684724727E-01 -0.23146001962E-01  0.72159608050E-01  0.51100000000E-03 0.  1.
</event>
<event>
 8    1  0.1064839E+005  0.1043930E+01  0.7957747E-01            NaN
         13   -1    0    0    0    0  0.00000000000E+00  0.00000000000E+00  0.74505805969E-08  0.10566000000E+00  0.10566000000E+00 0. -1.
     999900   -1    0    0    0    0 -0.00000000000E+00 -0.00000000000E+00 -0.74505805969E-08  0.93827000000E+00  0.93827000000E+00 0.  1.
     999902    2    1    2    0    0 -0.22126379806E-01  0.27920400019E-02 -0.17393868125E-02  0.10215604306E+01  0.10213154829E+01 0.  0.
     999903    2    3    3    0    0  0.52079634872E-01  0.28978323157E-01  0.11429412375E+00  0.13046221508E+00  0.20129859877E-01 0.  0.
         14    1    1    2    0    0  0.22126379806E-01 -0.27920400019E-02  0.17393868125E-02  0.22369569445E-01  0.00000000000E+00 0.  1.
     999901    1    3    3    0    0 -0.74206014678E-01 -0.26186283155E-01 -0.11603351057E+00  0.89109821547E+00  0.88000000000E+00 0.  1.
        -11    1    4    4    0    0  0.45619338836E-01  0.21671841319E-01  0.10683692853E+00  0.11817437625E+00  0.51100000000E-03 0. -1.
         11    1    4    4    0    0  0.64602960365E-02  0.73064818380E-02  0.74571952194E-02  0.12287838836E-01  0.51100000000E-03 0.  1.
</event>
<event>
 8    1  0.1064839E+005  0.1043930E+01  0.7957747E-01            NaN
         13   -1    0    0    0    0  0.00000000000E+00  0.00000000000E+00  0.74505805969E-08  0.10566000000E+00  0.10566000000E+00 0.  1.
     999900   -1    0    0    0    0 -0.00000000000E+00 -0.00000000000E+00 -0.74505805969E-08  0.93827000000E+00  0.93827000000E+00 0.  1.
     999902    2    1    2    0    0  0.99362447191E-02  0.13634650883E-01  0.17750452892E-01  0.10194409975E+01  0.10191468178E+01 0.  0.
     999903    2    3    3    0    0  0.67474829111E-01  0.10056263203E-01 -0.10746460099E+00  0.12870966696E+00  0.19067168368E-01 0.  0.
         14    1    1    2    0    0 -0.99362447191E-02 -0.13634650883E-01 -0.17750452892E-01  0.24489002464E-01  0.00000000000E+00 0. -1.
     999901    1    3    3    0    0 -0.57538584392E-01  0.35783876805E-02  0.12521505388E+00  0.89073133058E+00  0.88000000000E+00 0. -1.
        -11    1    4    4    0    0  0.32528577586E-01  0.14426820635E-01 -0.55699490994E-01  0.66097926832E-01  0.51100000000E-03 0. -1.
         11    1    4    4    0    0  0.34946251525E-01 -0.43705574322E-02 -0.51765109996E-01  0.62611740127E-01  0.51100000000E-03 0.  1.
</event>
<event>
 8    1  0.1064839E+005  0.1043930E+01  0.7957747E-01            NaN
         13   -1    0    0    0    0  0.00000000000E+00  0.00000000000E+00  0.74505805969E-08  0.10566000000E+00  0.10566000000E+00 0. -1.
     999900   -1    0    0    0    0 -0.00000000000E+00 -0.00000000000E+00 -0.74505805969E-08  0.93827000000E+00  0.93827000000E+00 0.  1.
     999902    2    1    2    0    0 -0.24319597855E-03  0.20148959802E-01 -0.12486444454E-01  0.10202244939E+01  0.10199490511E+01 0.  0.
     999903    2    3    3    0    0  0.84777111266E-01 -0.23585256353E-01  0.92043431907E-01  0.12889535750E+00  0.19964892076E-01 0.  0.
         14    1    1    2    0    0  0.24319597855E-03 -0.20148959802E-01  0.12486444454E-01  0.23705506122E-01  0.00000000000E+00 0. -1.
     999901    1    3    3    0    0 -0.85020307245E-01  0.43734216155E-01 -0.10452987636E+00  0.89132913638E+00  0.88000000000E+00 0.  1.
        -11    1    4    4    0    0  0.32161820572E-01 -0.94300685989E-02  0.21756667511E-01  0.39961513967E-01  0.51100000000E-03 0. -1.
         11    1    4    4    0    0  0.52615290694E-01 -0.14155187754E-01  0.70286764395E-01  0.88933843532E-01  0.51100000000E-03 0.  1.
</event>
<event>
 8    1  0.1064839E+005  0.1043930E+01  0.7957747E-01            NaN
         13   -1    0    0    0    0  0.00000000000E+00  0.00000000000E+00  0.74505805969E-08  0.10566000000E+00  0.10566000000E+00 0. -1.
     999900   -1    0    0    0    0 -0.00000000000E+00 -0.00000000000E+00 -0.74505805969E-08  0.93827000000E+00  0.93827000000E+00 0. -1.
     999902    2    1    2    0    0  0.73785051113E-02 -0.21880106004E-01  0.85991969479E-02  0.10192900413E+01  0.10189921789E+01 0.  0.
     999903    2    3    3    0    0 -0.76007759306E-01 -0.17932165139E-01  0.10228252751E+00  0.13038879721E+00  0.20994784638E-01 0.  0.
         14    1    1    2    0    0 -0.73785051113E-02  0.21880106004E-01 -0.85991969479E-02  0.24639958697E-01  0.00000000000E+00 0.  1.
     999901    1    3    3    0    0  0.83386264417E-01 -0.39479408649E-02 -0.93683330562E-01  0.88890124410E+00  0.88000000000E+00 0. -1.
        -11    1    4    4    0    0 -0.19054992259E-01 -0.40705842626E-02  0.42015518214E-01  0.46316598299E-01  0.51100000000E-03 0.  1.
         11    1    4    4    0    0 -0.56952767047E-01 -0.13861580877E-01  0.60267009296E-01  0.84072198908E-01  0.51100000000E-03 0. -1.
</event>
<event>
 8    1  0.1064839E+005  0.1043930E+01  0.7957747E-01            NaN
         13   -1    0    0    0    0  0.00000000000E+00  0.00000000000E+00  0.74505805969E-08  0.10566000000E+00  0.10566000000E+00 0. -1.
     999900   -1    0    0    0    0 -0.00000000000E+00 -0.00000000000E+00 -0.74505805969E-08  0.93827000000E+00  0.93827000000E+00 0.  1.
     999902    2    1    2    0    0  0.55467421100E-02  0.14296876660E-01  0.18444203808E-01  0.10199434270E+01  0.10196613352E+01 0.  0.
     999903    2    3    3    0    0  0.10374320308E+00 -0.68524642702E-01 -0.29577478200E-01  0.12932115524E+00  0.19770056449E-01 0.  0.
         14    1    1    2    0    0 -0.55467421100E-02 -0.14296876660E-01 -0.18444203808E-01  0.23986573002E-01  0.00000000000E+00 0.  1.
     999901    1    3    3    0    0 -0.98196460970E-01  0.82821519362E-01  0.48021682008E-01  0.89062227176E+00  0.88000000000E+00 0. -1.
        -11    1    4    4    0    0  0.85488350668E-01 -0.55465938216E-01 -0.31819311560E-01  0.10675887837E+00  0.51100000000E-03 0.  1.
         11    1    4    4    0    0  0.18254852412E-01 -0.13058704487E-01  0.22418333602E-02  0.22562276864E-01  0.51100000000E-03 0. -1.
</event>
<event>
 8    1  0.1064839E+005  0.1043930E+01  0.7957747E-01            NaN
         13   -1    0    0    0    0  0.00000000000E+00  0.00000000000E+00  0.74505805969E-08  0.10566000000E+00  0.10566000000E+00 0.  1.
     999900   -1    0    0    0    0 -0.00000000000E+00 -0.00000000000E+00 -0.74505805969E-08  0.93827000000E+00  0.93827000000E+00 0.  1.
     999902    2    1    2    0    0 -0.19099665600E-01  0.12273083330E-01  0.33894422118E-02  0.10209753900E+01  0.10207173129E+01 0.  0.
     999903    2    3    3    0    0 -0.43270163655E-01 -0.89079446913E-01  0.84271200258E-01  0.13114484035E+00  0.17025834235E-01 0.  0.
         14    1    1    2    0    0  0.19099665600E-01 -0.12273083330E-01 -0.33894422118E-02  0.22954609972E-01  0.00000000000E+00 0.  1.
     999901    1    3    3    0    0  0.24170498055E-01  0.10135253024E+00 -0.80881758047E-01  0.88983054968E+00  0.88000000000E+00 0. -1.
        -11    1    4    4    0    0 -0.28170348936E-01 -0.60044384857E-01  0.66406317838E-01  0.93856043395E-01  0.51100000000E-03 0. -1.
         11    1    4    4    0    0 -0.15099814719E-01 -0.29035062056E-01  0.17864882420E-01  0.37288796951E-01  0.51100000000E-03 0.  1.
</event>
<event>
 8    1  0.1064839E+005  0.1043930E+01  0.7957747E-01            NaN
         13   -1    0    0    0    0  0.00000000000E+00  0.00000000000E+00  0.74505805969E-08  0.10566000000E+00  0.10566000000E+00 0.  1.
     999900   -1    0    0    0    0 -0.00000000000E+00 -0.00000000000E+00 -0.74505805969E-08  0.93827000000E+00  0.93827000000E+00 0. -1.
     999902    2    1    2    0    0 -0.11621783921E-01  0.14864084866E-01  0.14901751173E-01  0.10198869330E+01  0.10196034951E+01 0.  0.
     999903    2    3    3    0    0  0.66303315999E-01  0.31243650113E-02 -0.10752437150E+00  0.12792376243E+00  0.19927547728E-01 0.  0.
         14    1    1    2    0    0  0.11621783921E-01 -0.14864084866E-01 -0.14901751173E-01  0.24043066952E-01  0.00000000000E+00 0. -1.
     999901    1    3    3    0    0 -0.77925099920E-01  0.11739719855E-01  0.12242612268E+00  0.89196317062E+00  0.88000000000E+00 0.  1.
        -11    1    4    4    0    0  0.45606028744E-01  0.11372628776E-01 -0.71817520185E-01  0.85832766876E-01  0.51100000000E-03 0.  1.
         11    1    4    4    0    0  0.20697287256E-01 -0.82482637646E-02 -0.35706851319E-01  0.42090995557E-01  0.51100000000E-03 0. -1.
</event>
<event>
 8    1  0.1064839E+005  0.1043930E+01  0.7957747E-01            NaN
         13   -1    0    0    0    0  0.00000000000E+00  0.00000000000E+00  0.74505805969E-08  0.10566000000E+00  0.10566000000E+00 0. -1.
     999900   -1    0    0    0    0 -0.00000000000E+00 -0.00000000000E+00 -0.74505805969E-08  0.93827000000E+00  0.93827000000E+00 0. -1.
     999902    2    1    2    0    0 -0.10098915228E-01  0.21024442711E-01 -0.82851365743E-02  0.10191780553E+01  0.10188774458E+01 0.  0.
     999903    2    3    3    0    0 -0.51328657200E-01  0.11755774058E+00  0.24760416748E-01  0.13232373926E+00  0.21024754815E-01 0.  0.
         14    1    1    2    0    0  0.10098915228E-01 -0.21024442711E-01  0.82851365743E-02  0.24751944734E-01  0.00000000000E+00 0. -1.
     999901    1    3    3    0    0  0.41229741972E-01 -0.96533297867E-01 -0.33045553322E-01  0.88685431600E+00  0.88000000000E+00 0. -1.
        -11    1    4    4    0    0 -0.12997513674E-01  0.12113524882E-01  0.26830959716E-02  0.17975899748E-01  0.51100000000E-03 0. -1.
         11    1    4    4    0    0 -0.38331143526E-01  0.10544421570E+00  0.22077320776E-01  0.11434783951E+00  0.51100000000E-03 0.  1.
</event>
<event>
 8    1  0.1064839E+005  0.1043930E+01  0.7957747E-01            NaN
         13   -1    0    0    0    0  0.00000000000E+00  0.00000000000E+00  0.74505805969E-08  0.10566000000E+00  0.10566000000E+00 0.  1.
     999900   -1    0    0    0    0 -0.00000000000E+00 -0.00000000000E+00 -0.74505805969E-08  0.93827000000E+00  0.93827000000E+00 0.  1.
     999902    2    1    2    0    0 -0.52453096972E-02  0.21722284141E-01  0.30676331664E-02  0.10213738196E+01  0.10211247221E+01 0.  0.
     999903    2    3    3    0    0  0.11686423180E+00  0.20258055634E-01  0.53527114670E-01  0.13150919877E+00  0.19023140245E-01 0.  0.
         14    1    1    2    0    0  0.52453096972E-02 -0.21722284141E-01 -0.30676331664E-02  0.22556180425E-01  0.00000000000E+00 0. -1.
     999901    1    3    3    0    0 -0.12210954149E+00  0.14642285070E-02 -0.50459481504E-01  0.88986462081E+00  0.88000000000E+00 0.  1.
        -11    1    4    4    0    0  0.49010211563E-01  0.17444555225E-01  0.19623359339E-01  0.55602614122E-01  0.51100000000E-03 0. -1.
         11    1    4    4    0    0  0.67854020232E-01  0.28135004090E-02  0.33903755331E-01  0.75906584647E-01  0.51100000000E-03 0.  1.
</event>
<event>
 7    1  0.1064839E+005  0.1043930E+01  0.7957747E-01            NaN
         13   -1    0    0    0    0  0.00000000000E+00  0.00000000000E+00  0.74505805969E-08  0.10566000000E+00  0.10566000000E+00 0. -1.
     999900   -1    0    0    0    0 -0.00000000000E+00 -0.00000000000E+00 -0.74505805969E-08  0.93827000000E+00  0.93827000000E+00 0.  1.
     999902    2    1    2    0    0 -0.16094971226E-01  0.15421651262E-01  0.75183747769E-02  0.10204055152E+01  0.10201343118E+01 0.  0.
         14    1    1    2    0    0  0.16094971226E-01 -0.15421651262E-01 -0.75183747769E-02  0.23524484813E-01  0.00000000000E+00 0.  1.
     999901    1    3    3    0    0 -0.54420269155E-01  0.17871824378E-01  0.12240481717E+00  0.89031674536E+00  0.88000000000E+00 0. -1.
        -11    1    3    3    0    0  0.49052146581E-01  0.15570656302E-02 -0.86130714708E-01  0.99132732610E-01  0.51100000000E-03 0. -1.
         11    1    3    3    0    0 -0.10726848652E-01 -0.40072387459E-02 -0.28755727688E-01  0.30956037218E-01  0.51100000000E-03 0.  1.
</event>
<event>
 8    1  0.1064839E+005  0.1043930E+01  0.7957747E-01            NaN
         13   -1    0    0    0    0  0.00000000000E+00  0.00000000000E+00  0.74505805969E-08  0.10566000000E+00  0.10566000000E+00 0. -1.
     999900   -1    0    0    0    0 -0.00000000000E+00 -0.00000000000E+00 -0.74505805969E-08  0.93827000000E+00  0.93827000000E+00 0.  1.
     999902    2    1    2    0    0  0.68278675797E-02 -0.79704188500E-03 -0.22213539719E-01  0.10206771206E+01  0.10204122148E+01 0.  0.
     999903    2    3    3    0    0  0.94826005864E-01 -0.82662189719E-01 -0.36135597546E-01  0.13239822386E+00  0.19962446623E-01 0.  0.
         14    1    1    2    0    0 -0.68278675797E-02  0.79704188500E-03  0.22213539719E-01  0.23252879355E-01  0.00000000000E+00 0. -1.
     999901    1    3    3    0    0 -0.87998138284E-01  0.81865147834E-01  0.13922057827E-01  0.88827889678E+00  0.88000000000E+00 0. -1.
        -11    1    4    4    0    0  0.11228243681E-02 -0.41194026833E-02 -0.42384146007E-02  0.60378383844E-02  0.51100000000E-03 0. -1.
         11    1    4    4    0    0  0.93703181496E-01 -0.78542787036E-01 -0.31897182945E-01  0.12636038548E+00  0.51100000000E-03 0.  1.
</event>
<event>
 8    1  0.1064839E+005  0.1043930E+01  0.7957747E-01            NaN
         13   -1    0    0    0    0  0.00000000000E+00  0.00000000000E+00  0.74505805969E-08  0.10566000000E+00  0.10566000000E+00 0. -1.
     999900   -1    0    0    0    0 -0.00000000000E+00 -0.00000000000E+00 -0.74505805969E-08  0.93827000000E+00  0.93827000000E+00 0. -1.
     999902    2    1    2    0    0 -0.20240098403E-01  0.79857831101E-02 -0.47170832314E-02  0.10216660114E+01  0.10214233959E+01 0.  0.
     999903    2    3    3    0    0 -0.20546342897E-01 -0.11117343311E-01 -0.12908090567E+00  0.13271641575E+00  0.20149919962E-01 0.  0.
         14    1    1    2    0    0  0.20240098403E-01 -0.79857831101E-02  0.47170832314E-02  0.22263988624E-01  0.00000000000E+00 0. -1.
     999901    1    3    3    0    0  0.30624449388E-03  0.19103126422E-01  0.12436382243E+00  0.88894959562E+00  0.88000000000E+00 0.  1.
        -11    1    4    4    0    0  0.19471476871E-03  0.34834076370E-02 -0.38152514701E-01  0.38315108530E-01  0.51100000000E-03 0. -1.
         11    1    4    4    0    0 -0.20741057666E-01 -0.14600750949E-01 -0.90928390964E-01  0.94401307225E-01  0.51100000000E-03 0.  1.
</event>
<event>
 8    1  0.1064839E+005  0.1043930E+01  0.7957747E-01            NaN
         13   -1    0    0    0    0  0.00000000000E+00  0.00000000000E+00  0.74505805969E-08  0.10566000000E+00  0.10566000000E+00 0. -1.
     999900   -1    0    0    0    0 -0.00000000000E+00 -0.00000000000E+00 -0.74505805969E-08  0.93827000000E+00  0.93827000000E+00 0.  1.
     999902    2    1    2    0    0  0.17077055514E-01  0.14300395234E-01  0.73797491947E-02  0.10204653920E+01  0.10201955835E+01 0.  0.
     999903    2    3    3    0    0  0.19543094371E-01  0.10357237191E+00 -0.76883156009E-01  0.13194088232E+00  0.19702994430E-01 0.  0.
         14    1    1    2    0    0 -0.17077055514E-01 -0.14300395234E-01 -0.73797491947E-02  0.23464607967E-01  0.00000000000E+00 0.  1.
     999901    1    3    3    0    0 -0.24660388567E-02 -0.89271976674E-01  0.84262905203E-01  0.88852450971E+00  0.88000000000E+00 0. -1.
        -11    1    4    4    0    0  0.18910332608E-01  0.53021224932E-01 -0.34999362303E-01  0.66287762485E-01  0.51100000000E-03 0.  1.
         11    1    4    4    0    0  0.63276176329E-03  0.50551146975E-01 -0.41883793705E-01  0.65653119835E-01  0.51100000000E-03 0. -1.
</event>
<event>
 8    1  0.1064839E+005  0.1043930E+01  0.7957747E-01            NaN
         13   -1    0    0    0    0  0.00000000000E+00  0.00000000000E+00  0.74505805969E-08  0.10566000000E+00  0.10566000000E+00 0. -1.
     999900   -1    0    0    0    0 -0.00000000000E+00 -0.00000000000E+00 -0.74505805969E-08  0.93827000000E+00  0.93827000000E+00 0. -1.
     999902    2    1    2    0    0 -0.19494234238E-01 -0.11395119090E-01 -0.70148993060E-02  0.10202850699E+01  0.10200110495E+01 0.  0.
     999903    2    3    3    0    0  0.11529664424E-01  0.64935723428E-01  0.10890038296E+00  0.12886752885E+00  0.19949066285E-01 0.  0.
         14    1    1    2    0    0  0.19494234238E-01  0.11395119090E-01  0.70148993060E-02  0.23644930109E-01  0.00000000000E+00 0.  1.
     999901    1    3    3    0    0 -0.31023898661E-01 -0.76330842518E-01 -0.11591528226E+00  0.89141754104E+00  0.88000000000E+00 0. -1.
        -11    1    4    4    0    0  0.90830171124E-03  0.11113504669E-01  0.35604462244E-01  0.37313186017E-01  0.51100000000E-03 0.  1.
         11    1    4    4    0    0  0.10621362712E-01  0.53822218759E-01  0.73295920713E-01  0.91554342836E-01  0.51100000000E-03 0. -1.
</event>
<event>
 8    1  0.1064839E+005  0.1043930E+01  0.7957747E-01            NaN
         13   -1    0    0    0    0  0.00000000000E+00  0.00000000000E+00  0.74505805969E-08  0.10566000000E+00  0.10566000000E+00 0. -1.
     999900   -1    0    0    0    0 -0.00000000000E+00 -0.00000000000E+00 -0.74505805969E-08  0.93827000000E+00  0.93827000000E+00 0.  1.
     999902    2    1    2    0    0 -0.11038918504E-01 -0.16208442764E-01  0.12027392103E-01  0.10209250114E+01  0.10206657873E+01 0.  0.
     999903    2    3    3    0    0 -0.73106978527E-02 -0.12868179641E+00 -0.25871732432E-01  0.13294950582E+00  0.19843727674E-01 0.  0.
         14    1    1    2    0    0  0.11038918504E-01  0.16208442764E-01 -0.12027392103E-01  0.23004988576E-01  0.00000000000E+00 0.  1.
     999901    1    3    3    0    0 -0.37282206513E-02  0.11247335365E+00  0.37899124535E-01  0.88797550560E+00  0.88000000000E+00 0. -1.
        -11    1    4    4    0    0 -0.21306831899E-02 -0.50576119246E-01 -0.20066643421E-01  0.54455623658E-01  0.51100000000E-03 0. -1.
         11    1    4    4    0    0 -0.51800146628E-02 -0.78105677167E-01 -0.58050890108E-02  0.78493882163E-01  0.51100000000E-03 0.  1.
</event>
<event>
 8    1  0.1064839E+005  0.1043930E+01  0.7957747E-01            NaN
         13   -1    0    0    0    0  0.00000000000E+00  0.00000000000E+00  0.74505805969E-08  0.10566000000E+00  0.10566000000E+00 0. -1.
     999900   -1    0    0    0    0 -0.00000000000E+00 -0.00000000000E+00 -0.74505805969E-08  0.93827000000E+00  0.93827000000E+00 0.  1.
     999902    2    1    2    0    0 -0.23616534654E-01  0.15460911633E-02  0.85022860533E-04  0.10202627582E+01  0.10199882143E+01 0.  0.
     999903    2    3    3    0    0  0.10588209036E+00  0.13856814404E-02  0.69149867467E-01  0.12810813459E+00  0.20421870785E-01 0.  0.
         14    1    1    2    0    0  0.23616534654E-01 -0.15460911633E-02 -0.85022860533E-04  0.23667241829E-01  0.00000000000E+00 0. -1.
     999901    1    3    3    0    0 -0.12949862501E+00  0.16040972293E-03 -0.69064844607E-01  0.89215462358E+00  0.88000000000E+00 0.  1.
        -11    1    4    4    0    0  0.66787586414E-01 -0.76294693922E-02  0.37291295002E-01  0.76874523128E-01  0.51100000000E-03 0.  1.
         11    1    4    4    0    0  0.39094503944E-01  0.90151508326E-02  0.31858572466E-01  0.51233611464E-01  0.51100000000E-03 0. -1.
</event>
<event>
 8    1  0.1064839E+005  0.1043930E+01  0.7957747E-01            NaN
         13   -1    0    0    0    0  0.00000000000E+00  0.00000000000E+00  0.74505805969E-08  0.10566000000E+00  0.10566000000E+00 0. -1.
     999900   -1    0    0    0    0 -0.00000000000E+00 -0.00000000000E+00 -0.74505805969E-08  0.93827000000E+00  0.93827000000E+00 0.  1.
     999902    2    1    2    0    0  0.26074965853E-02 -0.15444851091E-01  0.16053185306E-01  0.10215012858E+01  0.10212550267E+01 0.  0.
     999903    2    3    3    0    0  0.62384852660E-01 -0.56494173118E-01  0.10276965362E+00  0.13427069285E+00  0.19584581013E-01 0.  0.
         14    1    1    2    0    0 -0.26074965853E-02  0.15444851091E-01 -0.16053185306E-01  0.22428714233E-01  0.00000000000E+00 0.  1.
     999901    1    3    3    0    0 -0.59777356075E-01  0.41049322027E-01 -0.86716468319E-01  0.88723059292E+00  0.88000000000E+00 0.  1.
        -11    1    4    4    0    0  0.12159337109E-01 -0.20394562970E-01  0.37153649587E-01  0.44095832867E-01  0.51100000000E-03 0.  1.
         11    1    4    4    0    0  0.50225515551E-01 -0.36099610149E-01  0.65616004038E-01  0.90174859978E-01  0.51100000000E-03 0. -1.
</event>
<event>
 8    1  0.1064839E+005  0.1043930E+01  0.7957747E-01            NaN
         13   -1    0    0    0    0  0.00000000000E+00  0.00000000000E+00  0.74505805969E-08  0.10566000000E+00  0.10566000000E+00 0. -1.
     999900   -1    0    0    0    0 -0.00000000000E+00 -0.00000000000E+00 -0.74505805969E-08  0.93827000000E+00  0.93827000000E+00 0. -1.
     999902    2    1    2    0    0  0.70384190680E-02 -0.73001666425E-02 -0.21491566270E-01  0.10201661788E+01  0.10198893632E+01 0.  0.
     999903    2    3    3    0    0 -0.13006803308E-01  0.12723549488E+00 -0.33722535603E-02  0.12953159346E+00  0.20224082710E-01 0.  0.
         14    1    1    2    0    0 -0.70384190680E-02  0.73001666425E-02  0.21491566270E-01  0.23763821173E-01  0.00000000000E+00 0.  1.
     999901    1    3    3    0    0  0.20045222376E-01 -0.13453566152E+00 -0.18119312710E-01  0.89063458537E+00  0.88000000000E+00 0.  1.
        -11    1    4    4    0    0 -0.32237715587E-02  0.96442512524E-01  0.32236495052E-02  0.96551561158E-01  0.51100000000E-03 0.  1.
         11    1    4    4    0    0 -0.97830317489E-02  0.30792982352E-01 -0.65959030654E-02  0.32980032301E-01  0.51100000000E-03 0. -1.
</event>
<event>
 8    1  0.1064839E+005  0.1043930E+01  0.7957747E-01            NaN
         13   -1    0    0    0    0  0.00000000000E+00  0.00000000000E+00  0.74505805969E-08  0.10566000000E+00  0.10566000000E+00 0.  1.
     999900   -1    0    0    0    0 -0.00000000000E+00 -0.00000000000E+00 -0.74505805969E-08  0.93827000000E+00  0.93827000000E+00 0. -1.
     999902    2    1    2    0    0  0.14898956317E-01  0.25702953878E-01  0.26086870056E-02  0.10141067543E+01  0.10136681326E+01 0.  0.
     999903    2    3    3    0    0  0.14217004176E-01  0.12218584818E+00  0.30663079645E-01  0.12838870496E+00  0.20296068707E-01 0.  0.
         14    1    1    2    0    0 -0.14898956317E-01 -0.25702953878E-01 -0.26086870056E-02  0.29823245720E-01  0.00000000000E+00 0. -1.
     999901    1    3    3    0    0  0.68195214093E-03 -0.96482894298E-01 -0.28054392639E-01  0.88571804932E+00  0.88000000000E+00 0. -1.
        -11    1    4    4    0    0  0.29241527584E-02  0.82909912615E-01  0.27474962932E-01  0.87394158777E-01  0.51100000000E-03 0. -1.
         11    1    4    4    0    0  0.11292851418E-01  0.39275935561E-01  0.31881167128E-02  0.40994546180E-01  0.51100000000E-03 0.  1.
</event>
<event>
 8    1  0.1064839E+005  0.1043930E+01  0.7957747E-01            NaN
         13   -1    0    0    0    0  0.00000000000E+00  0.00000000000E+00  0.74505805969E-08  0.10566000000E+00  0.10566000000E+00 0. -1.
     999900   -1    0    0    0    0 -0.00000000000E+00 -0.00000000000E+00 -0.74505805969E-08  0.93827000000E+00  0.93827000000E+00 0.  1.
     999902    2    1    2    0    0 -0.18510807816E-02 -0.10933841275E-01  0.22326278269E-01  0.10190013401E+01  0.10186963694E+01 0.  0.
     999903    2    3    3    0    0  0.71312637381E-01  0.22436892975E-02  0.10768496006E+00  0.13175127299E+00  0.25919508460E-01 0.  0.
         14    1    1    2    0    0  0.18510807816E-02  0.10933841275E-01 -0.22326278269E-01  0.24928659940E-01  0.00000000000E+00 0.  1.
     999901    1    3    3    0    0 -0.73163718162E-01 -0.13177530572E-01 -0.85358681788E-01  0.88725006707E+00  0.88000000000E+00 0.  1.
        -11    1    4    4    0    0  0.10943562337E-01  0.14054209138E-03  0.37903283047E-01  0.39455054117E-01  0.51100000000E-03 0.  1.
         11    1    4    4    0    0  0.60369075044E-01  0.21031472061E-02  0.69781677011E-01  0.92296218868E-01  0.51100000000E-03 0. -1.
</event>
<event>
 7    1  0.1064839E+005  0.1043930E+01  0.7957747E-01            NaN
         13   -1    0    0    0    0  0.00000000000E+00  0.00000000000E+00  0.74505805969E-08  0.10566000000E+00  0.10566000000E+00 0.  1.
     999900   -1    0    0    0    0 -0.00000000000E+00 -0.00000000000E+00 -0.74505805969E-08  0.93827000000E+00  0.93827000000E+00 0. -1.
     999902    2    1    2    0    0 -0.18870854274E-01 -0.72127086806E-02 -0.12484327082E-01  0.10201815110E+01  0.10199050567E+01 0.  0.
         14    1    1    2    0    0  0.18870854274E-01  0.72127086806E-02  0.12484327082E-01  0.23748489009E-01  0.00000000000E+00 0.  1.
     999901    1    3    3    0    0 -0.12434215587E+00  0.18487756752E-01 -0.27557445712E-01  0.88936054651E+00  0.88000000000E+00 0.  1.
        -11    1    3    3    0    0  0.58545845731E-01 -0.49137464237E-01  0.72511938668E-03  0.76438821047E-01  0.51100000000E-03 0.  1.
         11    1    3    3    0    0  0.46925455865E-01  0.23436998804E-01  0.14347999244E-01  0.54382143433E-01  0.51100000000E-03 0. -1.
</event>
<event>
 8    1  0.1064839E+005  0.1043930E+01  0.7957747E-01            NaN
         13   -1    0    0    0    0  0.00000000000E+00  0.00000000000E+00  0.74505805969E-08  0.10566000000E+00  0.10566000000E+00 0. -1.
     999900   -1    0    0    0    0 -0.00000000000E+00 -0.00000000000E+00 -0.74505805969E-08  0.93827000000E+00  0.93827000000E+00 0. -1.
     999902    2    1    2    0    0  0.25805152592E-02  0.17785476542E-02  0.23914215692E-01  0.10198112935E+01  0.10195260479E+01 0.  0.
     999903    2    3    3    0    0  0.87483066331E-02  0.96956757126E-01 -0.81097755062E-01  0.12845028515E+00  0.21106498026E-01 0.  0.
         14    1    1    2    0    0 -0.25805152592E-02 -0.17785476542E-02 -0.23914215692E-01  0.24118706493E-01  0.00000000000E+00 0.  1.
     999901    1    3    3    0    0 -0.61677913739E-02 -0.95178209472E-01  0.10501197075E+00  0.89136100835E+00  0.88000000000E+00 0.  1.
        -11    1    4    4    0    0  0.12635580315E-01  0.84581237934E-01 -0.76299129428E-01  0.11461004307E+00  0.51100000000E-03 0. -1.
         11    1    4    4    0    0 -0.38872736817E-02  0.12375519192E-01 -0.47986256337E-02  0.13840242083E-01  0.51100000000E-03 0.  1.
</event>
<event>
 8    1  0.1064839E+005  0.1043930E+01  0.7957747E-01            NaN
         13   -1    0    0    0    0  0.00000000000E+00  0.00000000000E+00  0.74505805969E-08  0.10566000000E+00  0.10566000000E+00 0. -1.
     999900   -1    0    0    0    0 -0.00000000000E+00 -0.00000000000E+00 -0.74505805969E-08  0.93827000000E+00  0.93827000000E+00 0.  1.
     999902    2    1    2    0    0 -0.13140618713E-02  0.16150891860E-01 -0.17031597074E-01  0.10204214193E+01  0.10201505868E+01 0.  0.
     999903    2    3    3    0    0  0.33219556406E-01  0.12528389373E+00 -0.21506797836E-01  0.13299671248E+00  0.20639530557E-01 0.  0.
         14    1    1    2    0    0  0.13140618713E-02 -0.16150891860E-01  0.17031597074E-01  0.23508580675E-01  0.00000000000E+00 0. -1.
     999901    1    3    3    0    0 -0.34533618277E-01 -0.10913300187E+00  0.44752007620E-02  0.88742470684E+00  0.88000000000E+00 0.  1.
        -11    1    4    4    0    0  0.11744362193E-01  0.56578257303E-01  0.27742343324E-03  0.57787259215E-01  0.51100000000E-03 0.  1.
         11    1    4    4    0    0  0.21475194213E-01  0.68705636430E-01 -0.21784221269E-01  0.75209453269E-01  0.51100000000E-03 0. -1.
</event>
<event>
 8    1  0.1064839E+005  0.1043930E+01  0.7957747E-01            NaN
         13   -1    0    0    0    0  0.00000000000E+00  0.00000000000E+00  0.74505805969E-08  0.10566000000E+00  0.10566000000E+00 0. -1.
     999900   -1    0    0    0    0 -0.00000000000E+00 -0.00000000000E+00 -0.74505805969E-08  0.93827000000E+00  0.93827000000E+00 0.  1.
     999902    2    1    2    0    0 -0.98141243764E-02  0.20649894519E-01 -0.52829036422E-02  0.10204641897E+01  0.10201943532E+01 0.  0.
     999903    2    3    3    0    0  0.10951262453E+00  0.52126716068E-02 -0.67125180264E-01  0.13012624937E+00  0.20170871908E-01 0.  0.
         14    1    1    2    0    0  0.98141243764E-02 -0.20649894519E-01  0.52829036422E-02  0.23465810274E-01  0.00000000000E+00 0.  1.
     999901    1    3    3    0    0 -0.11932674891E+00  0.15437222912E-01  0.61842276622E-01  0.89033794035E+00  0.88000000000E+00 0.  1.
        -11    1    4    4    0    0  0.22818513074E-01 -0.48556049927E-02 -0.78398951601E-02  0.24616793372E-01  0.51100000000E-03 0.  1.
         11    1    4    4    0    0  0.86694111455E-01  0.10068276600E-01 -0.59285285104E-01  0.10550945600E+00  0.51100000000E-03 0. -1.
</event>
<event>
 8    1  0.1064839E+005  0.1043930E+01  0.7957747E-01            NaN
         13   -1    0    0    0    0  0.00000000000E+00  0.00000000000E+00  0.74505805969E-08  0.10566000000E+00  0.10566000000E+00 0.  1.
     999900   -1    0    0    0    0 -0.00000000000E+00 -0.00000000000E+00 -0.74505805969E-08  0.93827000000E+00  0.93827000000E+00 0. -1.
     999902    2    1    2    0    0  0.98551343893E-02 -0.26031397223E-02 -0.19153224272E-01  0.10222333180E+01  0.10220030384E+01 0.  0.
     999903    2    3    3    0    0 -0.36116611224E-01  0.12375120098E+00 -0.18192332554E-01  0.13202000416E+00  0.21898657106E-01 0.  0.
         14    1    1    2    0    0 -0.98551343893E-02  0.26031397223E-02  0.19153224272E-01  0.21696682011E-01  0.00000000000E+00 0.  1.
     999901    1    3    3    0    0  0.45971745613E-01 -0.12635434071E+00 -0.96089171811E-03  0.89021331383E+00  0.88000000000E+00 0.  1.
        -11    1    4    4    0    0 -0.27104286314E-01  0.93055962806E-01 -0.39677895832E-02  0.97005458741E-01  0.51100000000E-03 0.  1.
         11    1    4    4    0    0 -0.90123249100E-02  0.30695238177E-01 -0.14224542971E-01  0.35014545417E-01  0.51100000000E-03 0. -1.
</event>
<event>
 8    1  0.1064839E+005  0.1043930E+01  0.7957747E-01            NaN
         13   -1    0    0    0    0  0.00000000000E+00  0.00000000000E+00  0.74505805969E-08  0.10566000000E+00  0.10566000000E+00 0. -1.
     999900   -1    0    0    0    0 -0.00000000000E+00 -0.00000000000E+00 -0.74505805969E-08  0.93827000000E+00  0.93827000000E+00 0. -1.
     999902    2    1    2    0    0 -0.22519234407E-01  0.34632746409E-02 -0.64662552087E-02  0.10202461944E+01  0.10199712617E+01 0.  0.
     999903    2    3    3    0    0  0.57703691659E-01  0.10084763269E+00 -0.53664829003E-01  0.12999502964E+00  0.22777901747E-01 0.  0.
         14    1    1    2    0    0  0.22519234407E-01 -0.34632746409E-02  0.64662552087E-02  0.23683805563E-01  0.00000000000E+00 0. -1.
     999901    1    3    3    0    0 -0.80222926066E-01 -0.97384358050E-01  0.47198573794E-01  0.89025116480E+00  0.88000000000E+00 0.  1.
        -11    1    4    4    0    0  0.26151106167E-01  0.26720207151E-01 -0.11844034135E-01  0.39222341714E-01  0.51100000000E-03 0. -1.
         11    1    4    4    0    0  0.31552585492E-01  0.74127425540E-01 -0.41820794867E-01  0.90772687923E-01  0.51100000000E-03 0.  1.
</event>
<event>
 8    1  0.1064839E+005  0.1043930E+01  0.7957747E-01            NaN
         13   -1    0    0    0    0  0.00000000000E+00  0.00000000000E+00  0.74505805969E-08  0.10566000000E+00  0.10566000000E+00 0. -1.
     999900   -1    0    0    0    0 -0.00000000000E+00 -0.00000000000E+00 -0.74505805969E-08  0.93827000000E+00  0.93827000000E+00 0.  1.
     999902    2    1    2    0    0  0.23137314896E-01  0.40857182532E-03  0.59923255727E-02  0.10200258113E+01  0.10197456769E+01 0.  0.
     999903    2    3    3    0    0  0.87170485182E-01 -0.74623860463E-01 -0.62480679510E-01  0.13187117093E+00  0.17853749545E-01 0.  0.
         14    1    1    2    0    0 -0.23137314896E-01 -0.40857182532E-03 -0.59923255727E-02  0.23904188698E-01  0.00000000000E+00 0. -1.
     999901    1    3    3    0    0 -0.64033170286E-01  0.75032432289E-01  0.68473005082E-01  0.88815464037E+00  0.88000000000E+00 0. -1.
        -11    1    4    4    0    0  0.16292220536E-01 -0.65269306919E-02 -0.62839832607E-02  0.18649043966E-01  0.51100000000E-03 0. -1.
         11    1    4    4    0    0  0.70878264646E-01 -0.68096929771E-01 -0.56196696249E-01  0.11322212696E+00  0.51100000000E-03 0.  1.
</event>
<event>
 8    1  0.1064839E+005  0.1043930E+01  0.7957747E-01            NaN
         13   -1    0    0    0    0  0.00000000000E+00  0.00000000000E+00  0.74505805969E-08  0.10566000000E+00  0.10566000000E+00 0. -1.
     999900   -1    0    0    0    0 -0.00000000000E+00 -0.00000000000E+00 -0.74505805969E-08  0.93827000000E+00  0.93827000000E+00 0. -1.
     999902    2    1    2    0    0 -0.91105559631E-02 -0.22555154333E-01 -0.12372598549E-02  0.10195729060E+01  0.10192819250E+01 0.  0.
     999903    2    3    3    0    0 -0.36070549766E-01  0.67616694993E-01  0.10134187242E+00  0.12862942739E+00  0.20056233025E-01 0.  0.
         14    1    1    2    0    0  0.91105559631E-02  0.22555154333E-01  0.12372598549E-02  0.24357094015E-01  0.00000000000E+00 0.  1.
     999901    1    3    3    0    0  0.26959993803E-01 -0.90171849326E-01 -0.10257913227E+00  0.89094347860E+00  0.88000000000E+00 0. -1.
        -11    1    4    4    0    0 -0.32932812889E-02  0.21501691993E-01  0.37229625866E-01  0.43121625935E-01  0.51100000000E-03 0. -1.
         11    1    4    4    0    0 -0.32777268477E-01  0.46115003000E-01  0.64112246550E-01  0.85507801453E-01  0.51100000000E-03 0.  1.
</event>
<event>
 8    1  0.1064839E+005  0.1043930E+01  0.7957747E-01            NaN
         13   -1    0    0    0    0  0.00000000000E+00  0.00000000000E+00  0.74505805969E-08  0.10566000000E+00  0.10566000000E+00 0. -1.
     999900   -1    0    0    0    0 -0.00000000000E+00 -0.00000000000E+00 -0.74505805969E-08  0.93827000000E+00  0.93827000000E+00 0. -1.
     999902    2    1    2    0    0 -0.32673668643E-02  0.89633399600E-02 -0.20480394868E-01  0.10213365557E+01  0.10210866253E+01 0.  0.
     999903    2    3    3    0    0 -0.50839972053E-01  0.74872481770E-01 -0.97061020456E-01  0.13427863207E+00  0.20477256980E-01 0.  0.
         14    1    1    2    0    0  0.32673668643E-02 -0.89633399600E-02  0.20480394868E-01  0.22593444257E-01  0.00000000000E+00 0. -1.
     999901    1    3    3    0    0  0.47572605189E-01 -0.65909141810E-01  0.76580625588E-01  0.88705792367E+00  0.88000000000E+00 0. -1.
        -11    1    4    4    0    0 -0.31728452183E-01  0.44317539211E-01 -0.72322537113E-01  0.90562406411E-01  0.51100000000E-03 0. -1.
         11    1    4    4    0    0 -0.19111519870E-01  0.30554942560E-01 -0.24738483343E-01  0.43716225657E-01  0.51100000000E-03 0.  1.
</event>
<event>
 8    1  0.1064839E+005  0.1043930E+01  0.7957747E-01            NaN
         13   -1    0    0    0    0  0.00000000000E+00  0.00000000000E+00  0.74505805969E-08  0.10566000000E+00  0.10566000000E+00 0.  1.
     999900   -1    0    0    0    0 -0.00000000000E+00 -0.00000000000E+00 -0.74505805969E-08  0.93827000000E+00  0.93827000000E+00 0. -1.
     999902    2    1    2    0    0  0.12711729417E-01  0.19576038289E-01 -0.88697412844E-02  0.10189603855E+01  0.10186543994E+01 0.  0.
     999903    2    3    3    0    0 -0.71944620694E-02 -0.12280875225E+00  0.22996681331E-01  0.12672434386E+00  0.19911355085E-01 0.  0.
         14    1    1    2    0    0 -0.12711729417E-01 -0.19576038289E-01  0.88697412844E-02  0.24969614541E-01  0.00000000000E+00 0.  1.
     999901    1    3    3    0    0  0.19906191487E-01  0.14238479054E+00 -0.31866422615E-01  0.89223604160E+00  0.88000000000E+00 0. -1.
        -11    1    4    4    0    0 -0.12712065841E-01 -0.56239169641E-01  0.13859591409E-01  0.59302531269E-01  0.51100000000E-03 0.  1.
         11    1    4    4    0    0  0.55176037713E-02 -0.66569582608E-01  0.91370899221E-02  0.67421812592E-01  0.51100000000E-03 0. -1.
</event>
<event>
 8    1  0.1064839E+005  0.1043930E+01  0.7957747E-01            NaN
         13   -1    0    0    0    0  0.00000000000E+00  0.00000000000E+00  0.74505805969E-08  0.10566000000E+00  0.10566000000E+00 0.  1.
     999900   -1    0    0    0    0 -0.00000000000E+00 -0.00000000000E+00 -0.74505805969E-08  0.93827000000E+00  0.93827000000E+00 0. -1.
     999902    2    1    2    0    0 -0.17868142910E-01  0.13256459869E-01 -0.10688481785E-01  0.10192470524E+01  0.10189481370E+01 0.  0.
     999903    2    3    3    0    0  0.89626869259E-01 -0.35364368867E-01 -0.82715601392E-01  0.12845691517E+00  0.19382829075E-01 0.  0.
         14    1    1    2    0    0  0.17868142910E-01 -0.13256459869E-01  0.10688481785E-01  0.24682947599E-01  0.00000000000E+00 0.  1.
     999901    1    3    3    0    0 -0.10749501217E+00  0.48620828737E-01  0.72027119608E-01  0.89079013723E+00  0.88000000000E+00 0.  1.
        -11    1    4    4    0    0  0.48658048133E-01 -0.11390576278E-01 -0.50755931691E-01  0.71230447134E-01  0.51100000000E-03 0.  1.
         11    1    4    4    0    0  0.40968821125E-01 -0.23973792590E-01 -0.31959669701E-01  0.57226468036E-01  0.51100000000E-03 0. -1.
</event>
<event>
 8    1  0.1064839E+005  0.1043930E+01  0.7957747E-01            NaN
         13   -1    0    0    0    0  0.00000000000E+00  0.00000000000E+00  0.74505805969E-08  0.10566000000E+00  0.10566000000E+00 0.  1.
     999900   -1    0    0    0    0 -0.00000000000E+00 -0.00000000000E+00 -0.74505805969E-08  0.93827000000E+00  0.93827000000E+00 0.  1.
     999902    2    1    2    0    0 -0.24370068764E-01  0.41231666825E-02  0.20721408253E-03  0.10192127248E+01  0.10189129672E+01 0.  0.
     999903    2    3    3    0    0 -0.59307336474E-01  0.10945247766E+00 -0.37565366905E-01  0.13143930535E+00  0.19181480033E-01 0.  0.
         14    1    1    2    0    0  0.24370068764E-01 -0.41231666825E-02 -0.20721408253E-03  0.24717275188E-01  0.00000000000E+00 0.  1.
     999901    1    3    3    0    0  0.34937267711E-01 -0.10532931097E+00  0.37772580987E-01  0.88777341946E+00  0.88000000000E+00 0.  1.
        -11    1    4    4    0    0 -0.48085106576E-01  0.86282379400E-01 -0.21505911001E-01  0.10109199671E+00  0.51100000000E-03 0.  1.
         11    1    4    4    0    0 -0.11222229899E-01  0.23170098255E-01 -0.16059455904E-01  0.30347308645E-01  0.51100000000E-03 0. -1.
</event>
<event>
 8    1  0.1064839E+005  0.1043930E+01  0.7957747E-01            NaN
         13   -1    0    0    0    0  0.00000000000E+00  0.00000000000E+00  0.74505805969E-08  0.10566000000E+00  0.10566000000E+00 0. -1.
     999900   -1    0    0    0    0 -0.00000000000E+00 -0.00000000000E+00 -0.74505805969E-08  0.93827000000E+00  0.93827000000E+00 0.  1.
     999902    2    1    2    0    0 -0.22887672392E-01 -0.29441753760E-02 -0.74317441873E-02  0.10196865568E+01  0.10193983174E+01 0.  0.
     999903    2    3    3    0    0  0.11962714372E+00 -0.65287239261E-02  0.37204851147E-01  0.12709720697E+00  0.20401502916E-01 0.  0.
         14    1    1    2    0    0  0.22887672392E-01  0.29441753760E-02  0.74317441873E-02  0.24243443192E-01  0.00000000000E+00 0.  1.
     999901    1    3    3    0    0 -0.14251481611E+00  0.35845485501E-02 -0.44636595334E-01  0.89258934984E+00  0.88000000000E+00 0. -1.
        -11    1    4    4    0    0  0.22971036321E-01  0.27613334582E-02  0.87872890942E-04  0.23142219314E-01  0.51100000000E-03 0. -1.
         11    1    4    4    0    0  0.96656107395E-01 -0.92900573843E-02  0.37116978256E-01  0.10395498766E+00  0.51100000000E-03 0.  1.
</event>
<event>
 8    1  0.1064839E+005  0.1043930E+01  0.7957747E-01            NaN
         13   -1    0    0    0    0  0.00000000000E+00  0.00000000000E+00  0.74505805969E-08  0.10566000000E+00  0.10566000000E+00 0. -1.
     999900   -1    0    0    0    0 -0.00000000000E+00 -0.00000000000E+00 -0.74505805969E-08  0.93827000000E+00  0.93827000000E+00 0.  1.
     999902    2    1    2    0    0 -0.62338424694E-02 -0.16776290603E-01  0.15935388374E-01  0.10199666672E+01  0.10196851283E+01 0.  0.
     999903    2    3    3    0    0  0.66991439528E-01 -0.11163460894E+00 -0.16326331476E-03  0.13169913478E+00  0.19861937589E-01 0.  0.
         14    1    1    2    0    0  0.62338424694E-02  0.16776290603E-01 -0.15935388374E-01  0.23963332843E-01  0.00000000000E+00 0.  1.
     999901    1    3    3    0    0 -0.73225281997E-01  0.94858318337E-01  0.16098651689E-01  0.88826753237E+00  0.88000000000E+00 0.  1.
        -11    1    4    4    0    0  0.22541569283E-01 -0.56361028203E-01  0.19736114310E-02  0.60735855216E-01  0.51100000000E-03 0. -1.
         11    1    4    4    0    0  0.44449870245E-01 -0.55273580737E-01 -0.21368747457E-02  0.70963279568E-01  0.51100000000E-03 0.  1.
</event>
<event>
 7    1  0.1064839E+005  0.1043930E+01  0.7957747E-01            NaN
         13   -1    0    0    0    0  0.00000000000E+00  0.00000000000E+00  0.74505805969E-08  0.10566000000E+00  0.10566000000E+00 0.  1.
     999900   -1    0    0    0    0 -0.00000000000E+00 -0.00000000000E+00 -0.74505805969E-08  0.93827000000E+00  0.93827000000E+00 0.  1.
     999903    2    1    2    0    0 -0.59463214281E-01  0.63208374231E-01  0.61918277828E-01  0.10848743082E+00  0.20111615808E-01 0.  0.
         14    1    1    2    0    0  0.19218562669E-02  0.30067144996E-01 -0.37771181078E-01  0.48315513655E-01  0.00000000000E+00 0. -1.
     999901    1    1    2    0    0  0.57541358014E-01 -0.93275519228E-01 -0.24147096751E-01  0.88712705553E+00  0.88000000000E+00 0.  1.
        -11    1    3    3    0    0 -0.27002907305E-01  0.21856261409E-01  0.35414336061E-01  0.49611384635E-01  0.51100000000E-03 0. -1.
         11    1    3    3    0    0 -0.32460306975E-01  0.41352112823E-01  0.26503941767E-01  0.58876046182E-01  0.51100000000E-03 0.  1.
</event>
<event>
 8    1  0.1064839E+005  0.1043930E+01  0.7957747E-01            NaN
         13   -1    0    0    0    0  0.00000000000E+00  0.00000000000E+00  0.74505805969E-08  0.10566000000E+00  0.10566000000E+00 0.  1.
     999900   -1    0    0    0    0 -0.00000000000E+00 -0.00000000000E+00 -0.74505805969E-08  0.93827000000E+00  0.93827000000E+00 0. -1.
     999902    2    1    2    0    0  0.76107132132E-02 -0.22306352963E-01 -0.12604531251E-01  0.10172022888E+01  0.10168510834E+01 0.  0.
     999903    2    3    3    0    0  0.27890476189E-01  0.70867625686E-01 -0.10056073832E+00  0.12769177540E+00  0.19814852513E-01 0.  0.
         14    1    1    2    0    0 -0.76107132132E-02  0.22306352963E-01  0.12604531251E-01  0.26727711204E-01  0.00000000000E+00 0.  1.
     999901    1    3    3    0    0 -0.20279762976E-01 -0.93173978650E-01  0.87956207070E-01  0.88951051340E+00  0.88000000000E+00 0. -1.
        -11    1    4    4    0    0 -0.25384539074E-02  0.10803726513E-01 -0.10910948025E-01  0.15571581891E-01  0.51100000000E-03 0. -1.
         11    1    4    4    0    0  0.30428930097E-01  0.60063899174E-01 -0.89649790297E-01  0.11212019351E+00  0.51100000000E-03 0.  1.
</event>
<event>
 8    1  0.1064839E+005  0.1043930E+01  0.7957747E-01            NaN
         13   -1    0    0    0    0  0.00000000000E+00  0.00000000000E+00  0.74505805969E-08  0.10566000000E+00  0.10566000000E+00 0. -1.
     999900   -1    0    0    0    0 -0.00000000000E+00 -0.00000000000E+00 -0.74505805969E-08  0.93827000000E+00  0.93827000000E+00 0. -1.
     999902    2    1    2    0    0 -0.48859840265E-02 -0.91997544086E-02 -0.27197580399E-01  0.10148058399E+01  0.10143878331E+01 0.  0.
     999903    2    3    3    0    0 -0.15028432495E-01 -0.12405399955E+00 -0.12349265102E-01  0.12716016773E+00  0.20048823398E-01 0.  0.
         14    1    1    2    0    0  0.48859840265E-02  0.91997544086E-02  0.27197580399E-01  0.29124160084E-01  0.00000000000E+00 0. -1.
     999901    1    3    3    0    0  0.10142448468E-01  0.11485424514E+00 -0.14848315296E-01  0.88764567219E+00  0.88000000000E+00 0. -1.
        -11    1    4    4    0    0 -0.40294283972E-02 -0.32137647684E-01 -0.12119874007E-01  0.34586372444E-01  0.51100000000E-03 0.  1.
         11    1    4    4    0    0 -0.10999004097E-01 -0.91916351868E-01 -0.22939109573E-03  0.92573795283E-01  0.51100000000E-03 0. -1.
</event>
<event>
 8    1  0.1064839E+005  0.1043930E+01  0.7957747E-01            NaN
         13   -1    0    0    0    0  0.00000000000E+00  0.00000000000E+00  0.74505805969E-08  0.10566000000E+00  0.10566000000E+00 0. -1.
     999900   -1    0    0    0    0 -0.00000000000E+00 -0.00000000000E+00 -0.74505805969E-08  0.93827000000E+00  0.93827000000E+00 0.  1.
     999902    2    1    2    0    0  0.16874401967E-01 -0.13435892312E-01  0.11017427792E-01  0.10197090925E+01  0.10194213952E+01 0.  0.
     999903    2    3    3    0    0 -0.47257178375E-01 -0.11898936304E+00 -0.11498414792E-01  0.13079888449E+00  0.24174888092E-01 0.  0.
         14    1    1    2    0    0 -0.16874401967E-01  0.13435892312E-01 -0.11017427792E-01  0.24220907479E-01  0.00000000000E+00 0.  1.
     999901    1    3    3    0    0  0.64131580342E-01  0.10555347073E+00  0.22515842584E-01  0.88891020803E+00  0.88000000000E+00 0. -1.
        -11    1    4    4    0    0 -0.22336828497E-01 -0.43708121912E-01  0.64018358441E-02  0.49503317581E-01  0.51100000000E-03 0. -1.
         11    1    4    4    0    0 -0.24920349879E-01 -0.75281241132E-01 -0.17900250636E-01  0.81295566905E-01  0.51100000000E-03 0.  1.
</event>
<event>
 8    1  0.1064839E+005  0.1043930E+01  0.7957747E-01            NaN
         13   -1    0    0    0    0  0.00000000000E+00  0.00000000000E+00  0.74505805969E-08  0.10566000000E+00  0.10566000000E+00 0.  1.
     999900   -1    0    0    0    0 -0.00000000000E+00 -0.00000000000E+00 -0.74505805969E-08  0.93827000000E+00  0.93827000000E+00 0. -1.
     999902    2    1    2    0    0 -0.12050832606E-02 -0.29085091233E-03  0.23275652930E-01  0.10206213570E+01  0.10203551644E+01 0.  0.
     999903    2    3    3    0    0 -0.96421768401E-01  0.10932264346E-02 -0.83342804446E-01  0.12908581184E+00  0.20463899927E-01 0.  0.
         14    1    1    2    0    0  0.12050832606E-02  0.29085091233E-03 -0.23275652930E-01  0.23308643016E-01  0.00000000000E+00 0. -1.
     999901    1    3    3    0    0  0.95216685140E-01 -0.13840773470E-02  0.10661845738E+00  0.89153554514E+00  0.88000000000E+00 0.  1.
        -11    1    4    4    0    0 -0.37450615869E-01 -0.55472463842E-03 -0.19767646172E-01  0.42354188748E-01  0.51100000000E-03 0.  1.
         11    1    4    4    0    0 -0.58971152532E-01  0.16479510731E-02 -0.63575158274E-01  0.86731623093E-01  0.51100000000E-03 0. -1.
</event>
<event>
 8    1  0.1064839E+005  0.1043930E+01  0.7957747E-01            NaN
         13   -1    0    0    0    0  0.00000000000E+00  0.00000000000E+00  0.74505805969E-08  0.10566000000E+00  0.10566000000E+00 0. -1.
     999900   -1    0    0    0    0 -0.00000000000E+00 -0.00000000000E+00 -0.74505805969E-08  0.93827000000E+00  0.93827000000E+00 0.  1.
     999902    2    1    2    0    0 -0.19189184290E-01 -0.12903715624E-01 -0.27987183767E-02  0.10206370076E+01  0.10203711765E+01 0.  0.
     999903    2    3    3    0    0  0.16521355502E-01 -0.10703622199E+00  0.72510581241E-01  0.13170075453E+00  0.18910218002E-01 0.  0.
         14    1    1    2    0    0  0.19189184290E-01  0.12903715624E-01  0.27987183767E-02  0.23292992405E-01  0.00000000000E+00 0. -1.
     999901    1    3    3    0    0 -0.35710539792E-01  0.94132506370E-01 -0.75309299618E-01  0.88893625307E+00  0.88000000000E+00 0. -1.
        -11    1    4    4    0    0 -0.39874309683E-02 -0.15600643815E-01  0.12902533918E-01  0.20640159778E-01  0.51100000000E-03 0.  1.
         11    1    4    4    0    0  0.20508786470E-01 -0.91435578179E-01  0.59608047323E-01  0.11106059475E+00  0.51100000000E-03 0. -1.
</event>
<event>
 8    1  0.1064839E+005  0.1043930E+01  0.7957747E-01            NaN
         13   -1    0    0    0    0  0.00000000000E+00  0.00000000000E+00  0.74505805969E-08  0.10566000000E+00  0.10566000000E+00 0. -1.
     999900   -1    0    0    0    0 -0.00000000000E+00 -0.00000000000E+00 -0.74505805969E-08  0.93827000000E+00  0.93827000000E+00 0.  1.
     999902    2    1    2    0    0 -0.21755615428E-01  0.64016680316E-02  0.66085800624E-02  0.10203087916E+01  0.10200353272E+01 0.  0.
     999903    2    3    3    0    0 -0.28230653258E-02 -0.44159108275E-01  0.12176800915E+00  0.13116508686E+00  0.20465468887E-01 0.  0.
         14    1    1    2    0    0  0.21755615428E-01 -0.64016680316E-02 -0.66085800624E-02  0.23621208408E-01  0.00000000000E+00 0.  1.
     999901    1    3    3    0    0 -0.18932550102E-01  0.50560776306E-01 -0.11515942909E+00  0.88914370473E+00  0.88000000000E+00 0.  1.
        -11    1    4    4    0    0  0.74637248057E-02 -0.76117006482E-02  0.23235632264E-01  0.25569530744E-01  0.51100000000E-03 0.  1.
         11    1    4    4    0    0 -0.10286790132E-01 -0.36547407626E-01  0.98532376888E-01  0.10559555612E+00  0.51100000000E-03 0. -1.
</event>
<event>
 8    1  0.1064839E+005  0.1043930E+01  0.7957747E-01            NaN
         13   -1    0    0    0    0  0.00000000000E+00  0.00000000000E+00  0.74505805969E-08  0.10566000000E+00  0.10566000000E+00 0.  1.
     999900   -1    0    0    0    0 -0.00000000000E+00 -0.00000000000E+00 -0.74505805969E-08  0.93827000000E+00  0.93827000000E+00 0. -1.
     999902    2    1    2    0    0 -0.11766282827E-01  0.21215596454E-01 -0.60247903304E-02  0.10189330993E+01  0.10186264359E+01 0.  0.
     999903    2    3    3    0    0  0.99946594785E-01 -0.65709788128E-01 -0.38391777969E-01  0.12703433187E+00  0.18886365288E-01 0.  0.
         14    1    1    2    0    0  0.11766282827E-01 -0.21215596454E-01  0.60247903304E-02  0.24996900667E-01  0.00000000000E+00 0.  1.
     999901    1    3    3    0    0 -0.11171287761E+00  0.86925384581E-01  0.32366987638E-01  0.89189876746E+00  0.88000000000E+00 0.  1.
        -11    1    4    4    0    0  0.86635296139E-01 -0.50525035495E-01 -0.27087745505E-01  0.10388676926E+00  0.51100000000E-03 0.  1.
         11    1    4    4    0    0  0.13311298646E-01 -0.15184752632E-01 -0.11304032464E-01  0.23147562616E-01  0.51100000000E-03 0. -1.
</event>
<event>
 8    1  0.1064839E+005  0.1043930E+01  0.7957747E-01            NaN
         13   -1    0    0    0    0  0.00000000000E+00  0.00000000000E+00  0.74505805969E-08  0.10566000000E+00  0.10566000000E+00 0.  1.
     999900   -1    0    0    0    0 -0.00000000000E+00 -0.00000000000E+00 -0.74505805969E-08  0.93827000000E+00  0.93827000000E+00 0. -1.
     999902    2    1    2    0    0  0.85105836366E-02  0.16100744633E-01  0.15290488958E-01  0.10201505327E+01  0.10198733482E+01 0.  0.
     999903    2    3    3    0    0  0.11986726540E+00 -0.34839695702E-01  0.35969582565E-01  0.13143074339E+00  0.19956545991E-01 0.  0.
         14    1    1    2    0    0 -0.85105836366E-02 -0.16100744633E-01 -0.15290488958E-01  0.23779467281E-01  0.00000000000E+00 0. -1.
     999901    1    3    3    0    0 -0.11135668176E+00  0.50940440335E-01 -0.20679093606E-01  0.88871978933E+00  0.88000000000E+00 0. -1.
        -11    1    4    4    0    0  0.30536671934E-01 -0.22906851737E-02  0.28873460656E-02  0.30762533375E-01  0.51100000000E-03 0.  1.
         11    1    4    4    0    0  0.89330593462E-01 -0.32549010529E-01  0.33082236499E-01  0.10066821001E+00  0.51100000000E-03 0. -1.
</event>
<event>
 8    1  0.1064839E+005  0.1043930E+01  0.7957747E-01            NaN
         13   -1    0    0    0    0  0.00000000000E+00  0.00000000000E+00  0.74505805969E-08  0.10566000000E+00  0.10566000000E+00 0.  1.
     999900   -1    0    0    0    0 -0.00000000000E+00 -0.00000000000E+00 -0.74505805969E-08  0.93827000000E+00  0.93827000000E+00 0.  1.
     999902    2    1    2    0    0 -0.12331756862E-01 -0.98528185695E-02 -0.17993359931E-01  0.10199944352E+01  0.10197135561E+01 0.  0.
     999903    2    3    3    0    0 -0.26607924298E-01 -0.10328045766E+00 -0.76799140807E-01  0.13298222977E+00  0.20281292768E-01 0.  0.
         14    1    1    2    0    0  0.12331756862E-01  0.98528185695E-02  0.17993359931E-01  0.23935564808E-01  0.00000000000E+00 0.  1.
     999901    1    3    3    0    0  0.14276167436E-01  0.93427639089E-01  0.58805780875E-01  0.88701220542E+00  0.88000000000E+00 0. -1.
        -11    1    4    4    0    0 -0.18674522040E-01 -0.33924320662E-01 -0.28797952684E-01  0.48261584160E-01  0.51100000000E-03 0.  1.
         11    1    4    4    0    0 -0.79334022582E-02 -0.69356136996E-01 -0.48001188122E-01  0.84720645610E-01  0.51100000000E-03 0. -1.
</event>
<event>
 8    1  0.1064839E+005  0.1043930E+01  0.7957747E-01            NaN
         13   -1    0    0    0    0  0.00000000000E+00  0.00000000000E+00  0.74505805969E-08  0.10566000000E+00  0.10566000000E+00 0. -1.
     999900   -1    0    0    0    0 -0.00000000000E+00 -0.00000000000E+00 -0.74505805969E-08  0.93827000000E+00  0.93827000000E+00 0.  1.
     999902    2    1    2    0    0 -0.18143698322E-01 -0.42457502896E-02  0.97165871916E-02  0.10229149518E+01  0.10226990595E+01 0.  0.
     999903    2    3    3    0    0 -0.54403426161E-01 -0.11896098370E+00 -0.21642571744E-01  0.13417553583E+00  0.20572435039E-01 0.  0.
         14    1    1    2    0    0  0.18143698322E-01  0.42457502896E-02 -0.97165871916E-02  0.21015048203E-01  0.00000000000E+00 0.  1.
     999901    1    3    3    0    0  0.36259727839E-01  0.11471523341E+00  0.31359158936E-01  0.88873941596E+00  0.88000000000E+00 0.  1.
        -11    1    4    4    0    0 -0.66912487843E-02 -0.27345785422E-01 -0.11384082452E-01  0.30371421516E-01  0.51100000000E-03 0. -1.
         11    1    4    4    0    0 -0.47712177377E-01 -0.91615198278E-01 -0.10258489292E-01  0.10380411432E+00  0.51100000000E-03 0.  1.
</event>
<event>
 8    1  0.1064839E+005  0.1043930E+01  0.7957747E-01            NaN
         13   -1    0    0    0    0  0.00000000000E+00  0.00000000000E+00  0.74505805969E-08  0.10566000000E+00  0.10566000000E+00 0.  1.
     999900   -1    0    0    0    0 -0.00000000000E+00 -0.00000000000E+00 -0.74505805969E-08  0.93827000000E+00  0.93827000000E+00 0. -1.
     999902    2    1    2    0    0  0.18093759568E-01  0.13792488791E-01 -0.65876797548E-02  0.10202442573E+01  0.10199692790E+01 0.  0.
     999903    2    3    3    0    0 -0.69363596472E-01 -0.61006652656E-01 -0.87896791277E-01  0.12903447712E+00  0.19771954499E-01 0.  0.
         14    1    1    2    0    0 -0.18093759568E-01 -0.13792488791E-01  0.65876797548E-02  0.23685742693E-01  0.00000000000E+00 0. -1.
     999901    1    3    3    0    0  0.87457356041E-01  0.74799141447E-01  0.81309111522E-01  0.89120978019E+00  0.88000000000E+00 0.  1.
        -11    1    4    4    0    0 -0.26789713521E-01 -0.28855029405E-01 -0.49746580841E-01  0.63445132980E-01  0.51100000000E-03 0. -1.
         11    1    4    4    0    0 -0.42573882952E-01 -0.32151623252E-01 -0.38150210436E-01  0.65589344139E-01  0.51100000000E-03 0.  1.
</event>
<event>
 8    1  0.1064839E+005  0.1043930E+01  0.7957747E-01            NaN
         13   -1    0    0    0    0  0.00000000000E+00  0.00000000000E+00  0.74505805969E-08  0.10566000000E+00  0.10566000000E+00 0. -1.
     999900   -1    0    0    0    0 -0.00000000000E+00 -0.00000000000E+00 -0.74505805969E-08  0.93827000000E+00  0.93827000000E+00 0. -1.
     999902    2    1    2    0    0  0.11697478009E-01 -0.22888754644E-01 -0.97773853956E-02  0.10164286665E+01  0.10160565490E+01 0.  0.
     999903    2    3    3    0    0 -0.49036023079E-01  0.10523554289E+00 -0.40448217838E-01  0.12455138021E+00  0.19948356798E-01 0.  0.
         14    1    1    2    0    0 -0.11697478009E-01  0.22888754644E-01  0.97773853956E-02  0.27501333533E-01  0.00000000000E+00 0. -1.
     999901    1    3    3    0    0  0.60733501089E-01 -0.12812429754E+00  0.30670832443E-01  0.89187728625E+00  0.88000000000E+00 0.  1.
        -11    1    4    4    0    0 -0.30015045956E-01  0.52146659272E-01 -0.29853683130E-01  0.67169044763E-01  0.51100000000E-03 0. -1.
         11    1    4    4    0    0 -0.19020977124E-01  0.53088883621E-01 -0.10594534709E-01  0.57382335449E-01  0.51100000000E-03 0.  1.
</event>
<event>
 8    1  0.1064839E+005  0.1043930E+01  0.7957747E-01            NaN
         13   -1    0    0    0    0  0.00000000000E+00  0.00000000000E+00  0.74505805969E-08  0.10566000000E+00  0.10566000000E+00 0. -1.
     999900   -1    0    0    0    0 -0.00000000000E+00 -0.00000000000E+00 -0.74505805969E-08  0.93827000000E+00  0.93827000000E+00 0. -1.
     999902    2    1    2    0    0  0.18914198390E-01 -0.92181956934E-02 -0.18441328497E-02  0.10228083794E+01  0.10225902689E+01 0.  0.
     999903    2    3    3    0    0  0.18934941401E-01 -0.12573415713E+00 -0.38462646506E-01  0.13437330281E+00  0.20228669181E-01 0.  0.
         14    1    1    2    0    0 -0.18914198390E-01  0.92181956934E-02  0.18441328497E-02  0.21121620642E-01  0.00000000000E+00 0. -1.
     999901    1    3    3    0    0 -0.20743010534E-04  0.11651596144E+00  0.36618513656E-01  0.88843507655E+00  0.88000000000E+00 0.  1.
        -11    1    4    4    0    0  0.18756292887E-01 -0.65632736781E-01 -0.25627683484E-01  0.72914291754E-01  0.51100000000E-03 0. -1.
         11    1    4    4    0    0  0.17864851430E-03 -0.60101420348E-01 -0.12834963022E-01  0.61459011055E-01  0.51100000000E-03 0.  1.
</event>
<event>
 8    1  0.1064839E+005  0.1043930E+01  0.7957747E-01            NaN
         13   -1    0    0    0    0  0.00000000000E+00  0.00000000000E+00  0.74505805969E-08  0.10566000000E+00  0.10566000000E+00 0.  1.
     999900   -1    0    0    0    0 -0.00000000000E+00 -0.00000000000E+00 -0.74505805969E-08  0.93827000000E+00  0.93827000000E+00 0.  1.
     999902    2    1    2    0    0 -0.11684234316E-01  0.13437160815E-02 -0.21105597327E-01  0.10197686022E+01  0.10194823338E+01 0.  0.
     999903    2    3    3    0    0 -0.71312615438E-01  0.10738981416E+00  0.10436699444E-01  0.13083877639E+00  0.19793923483E-01 0.  0.
         14    1    1    2    0    0  0.11684234316E-01 -0.13437160815E-02  0.21105597327E-01  0.24161397786E-01  0.00000000000E+00 0.  1.
     999901    1    3    3    0    0  0.59628381123E-01 -0.10604609808E+00 -0.31542296770E-01  0.88892982582E+00  0.88000000000E+00 0. -1.
        -11    1    4    4    0    0 -0.48351864474E-01  0.72485730315E-01 -0.22810509765E-02  0.87163915767E-01  0.51100000000E-03 0.  1.
         11    1    4    4    0    0 -0.22960750964E-01  0.34904083842E-01  0.12717750420E-01  0.43674860623E-01  0.51100000000E-03 0. -1.
</event>
<event>
 8    1  0.1064839E+005  0.1043930E+01  0.7957747E-01            NaN
         13   -1    0    0    0    0  0.00000000000E+00  0.00000000000E+00  0.74505805969E-08  0.10566000000E+00  0.10566000000E+00 0. -1.
     999900   -1    0    0    0    0 -0.00000000000E+00 -0.00000000000E+00 -0.74505805969E-08  0.93827000000E+00  0.93827000000E+00 0.  1.
     999902    2    1    2    0    0 -0.15423203973E-01 -0.13343613845E-01  0.11687985944E-01  0.10204239100E+01  0.10201531355E+01 0.  0.
     999903    2    3    3    0    0 -0.91605211902E-01  0.83378672929E-01  0.41186140652E-01  0.13136314706E+00  0.14712589023E-01 0.  0.
         14    1    1    2    0    0  0.15423203973E-01  0.13343613845E-01 -0.11687985944E-01  0.23506089991E-01  0.00000000000E+00 0.  1.
     999901    1    3    3    0    0  0.76182007928E-01 -0.96722286774E-01 -0.29498154707E-01  0.88906076295E+00  0.88000000000E+00 0.  1.
        -11    1    4    4    0    0 -0.32265035176E-01  0.20949711530E-01  0.99260804308E-02  0.39732997645E-01  0.51100000000E-03 0.  1.
         11    1    4    4    0    0 -0.59340176726E-01  0.62428961399E-01  0.31260060221E-01  0.91630149411E-01  0.51100000000E-03 0. -1.
</event>
<event>
 8    1  0.1064839E+005  0.1043930E+01  0.7957747E-01            NaN
         13   -1    0    0    0    0  0.00000000000E+00  0.00000000000E+00  0.74505805969E-08  0.10566000000E+00  0.10566000000E+00 0. -1.
     999900   -1    0    0    0    0 -0.00000000000E+00 -0.00000000000E+00 -0.74505805969E-08  0.93827000000E+00  0.93827000000E+00 0.  1.
     999902    2    1    2    0    0  0.42820188537E-02 -0.20487827602E-01 -0.11803200454E-01  0.10199008030E+01  0.10196176959E+01 0.  0.
     999903    2    3    3    0    0 -0.97267617368E-01 -0.32727089704E-01 -0.79290917345E-01  0.13140954249E+00  0.21198266320E-01 0.  0.
         14    1    1    2    0    0 -0.42820188537E-02  0.20487827602E-01  0.11803200454E-01  0.24029196954E-01  0.00000000000E+00 0. -1.
     999901    1    3    3    0    0  0.10154963622E+00  0.12239262102E-01  0.67487716891E-01  0.88849126056E+00  0.88000000000E+00 0.  1.
        -11    1    4    4    0    0 -0.22795473759E-01 -0.15493921869E-01 -0.14200677341E-01  0.31009927390E-01  0.51100000000E-03 0. -1.
         11    1    4    4    0    0 -0.74472143609E-01 -0.17233167834E-01 -0.65090240004E-01  0.10039961510E+00  0.51100000000E-03 0.  1.
</event>
<event>
 8    1  0.1064839E+005  0.1043930E+01  0.7957747E-01            NaN
         13   -1    0    0    0    0  0.00000000000E+00  0.00000000000E+00  0.74505805969E-08  0.10566000000E+00  0.10566000000E+00 0.  1.
     999900   -1    0    0    0    0 -0.00000000000E+00 -0.00000000000E+00 -0.74505805969E-08  0.93827000000E+00  0.93827000000E+00 0. -1.
     999902    2    1    2    0    0  0.16295187752E-01 -0.10087893176E-01  0.13740524752E-01  0.10203482114E+01  0.10200756696E+01 0.  0.
     999903    2    3    3    0    0 -0.28784292091E-01  0.94725414133E-01  0.82782381194E-01  0.13030059087E+00  0.17996716108E-01 0.  0.
         14    1    1    2    0    0 -0.16295187752E-01  0.10087893176E-01 -0.13740524752E-01  0.23581788589E-01  0.00000000000E+00 0. -1.
     999901    1    3    3    0    0  0.45079479843E-01 -0.10481330731E+00 -0.69041856442E-01  0.89004762054E+00  0.88000000000E+00 0. -1.
        -11    1    4    4    0    0 -0.12344819290E-01  0.25728324702E-01  0.33073948916E-01  0.43686250391E-01  0.51100000000E-03 0. -1.
         11    1    4    4    0    0 -0.16439472801E-01  0.68997089431E-01  0.49708432277E-01  0.86614340477E-01  0.51100000000E-03 0.  1.
</event>
<event>
 8    1  0.1064839E+005  0.1043930E+01  0.7957747E-01            NaN
         13   -1    0    0    0    0  0.00000000000E+00  0.00000000000E+00  0.74505805969E-08  0.10566000000E+00  0.10566000000E+00 0.  1.
     999900   -1    0    0    0    0 -0.00000000000E+00 -0.00000000000E+00 -0.74505805969E-08  0.93827000000E+00  0.93827000000E+00 0. -1.
     999902    2    1    2    0    0  0.11132492628E-01  0.68069932389E-02 -0.23831803219E-01  0.10167597517E+01  0.10163966599E+01 0.  0.
     999903    2    3    3    0    0 -0.41168173599E-01  0.10838098975E+00 -0.52791979086E-01  0.12890203321E+00  0.19684604466E-01 0.  0.
         14    1    1    2    0    0 -0.11132492628E-01 -0.68069932389E-02  0.23831803219E-01  0.27170248319E-01  0.00000000000E+00 0.  1.
     999901    1    3    3    0    0  0.52300666226E-01 -0.10157399652E+00  0.28960175867E-01  0.88785771847E+00  0.88000000000E+00 0.  1.
        -11    1    4    4    0    0 -0.26157810491E-01  0.89466960575E-01 -0.45128019041E-01  0.10356334925E+00  0.51100000000E-03 0. -1.
         11    1    4    4    0    0 -0.15010363108E-01  0.18914029180E-01 -0.76639600452E-02  0.25338683964E-01  0.51100000000E-03 0.  1.
</event>
<event>
 8    1  0.1142271E+005  0.1043930E+01  0.7957747E-01            NaN
         13   -1    0    0    0    0  0.00000000000E+00  0.00000000000E+00  0.74505805969E-08  0.10566000000E+00  0.10566000000E+00 0.  1.
     999900   -1    0    0    0    0 -0.00000000000E+00 -0.00000000000E+00 -0.74505805969E-08  0.93827000000E+00  0.93827000000E+00 0. -1.
     999902    2    1    2    0    0  0.23132080908E-01  0.61043198026E-03  0.39556612770E-02  0.10204542029E+01  0.10201841339E+01 0.  0.
     999903    2    3    3    0    0 -0.67200294913E-01  0.10697833098E+00  0.18053457858E-01  0.12934656857E+00  0.21079955496E-01 0.  0.
         14    1    1    2    0    0 -0.23132080908E-01 -0.61043198026E-03 -0.39556612770E-02  0.23475797121E-01  0.00000000000E+00 0. -1.
     999901    1    3    3    0    0  0.90332375821E-01 -0.10636789900E+00 -0.14097796581E-01  0.89110763431E+00  0.88000000000E+00 0.  1.
        -11    1    4    4    0    0 -0.26165469163E-01  0.47429899801E-01  0.17819553554E-01  0.57026526999E-01  0.51100000000E-03 0.  1.
         11    1    4    4    0    0 -0.41034825750E-01  0.59548431180E-01  0.23390430383E-03  0.72320041569E-01  0.51100000000E-03 0. -1.
</event>
<event>
 8    1  0.1064839E+005  0.1043930E+01  0.7957747E-01            NaN
         13   -1    0    0    0    0  0.00000000000E+00  0.00000000000E+00  0.74505805969E-08  0.10566000000E+00  0.10566000000E+00 0.  1.
     999900   -1    0    0    0    0 -0.00000000000E+00 -0.00000000000E+00 -0.74505805969E-08  0.93827000000E+00  0.93827000000E+00 0.  1.
     999902    2    1    2    0    0 -0.18076453800E-02 -0.23207927795E-01 -0.37853524702E-02  0.10203460142E+01  0.10200734210E+01 0.  0.
     999903    2    3    3    0    0  0.46545675842E-01 -0.11701692386E+00 -0.40576260101E-01  0.13327682730E+00  0.16025585799E-01 0.  0.
         14    1    1    2    0    0  0.18076453800E-02  0.23207927795E-01  0.37853524702E-02  0.23583985831E-01  0.00000000000E+00 0. -1.
     999901    1    3    3    0    0 -0.48353321221E-01  0.93808996068E-01  0.36790907631E-01  0.88706918687E+00  0.88000000000E+00 0. -1.
        -11    1    4    4    0    0  0.37704858090E-01 -0.91977667348E-01 -0.38620162048E-01  0.10664579529E+00  0.51100000000E-03 0. -1.
         11    1    4    4    0    0  0.88408177518E-02 -0.25039256515E-01 -0.19560980531E-02  0.26631032010E-01  0.51100000000E-03 0.  1.
</event>
<event>
 8    1  0.1064839E+005  0.1043930E+01  0.7957747E-01            NaN
         13   -1    0    0    0    0  0.00000000000E+00  0.00000000000E+00  0.74505805969E-08  0.10566000000E+00  0.10566000000E+00 0.  1.
     999900   -1    0    0    0    0 -0.00000000000E+00 -0.00000000000E+00 -0.74505805969E-08  0.93827000000E+00  0.93827000000E+00 0. -1.
     999902    2    1    2    0    0 -0.27497334249E-02  0.22282475845E-01 -0.56759553662E-02  0.10207721453E+01  0.10205094250E+01 0.  0.
     999903    2    3    3    0    0  0.30838632248E-01 -0.83912070334E-01 -0.91646312523E-01  0.12959519194E+00  0.20090056931E-01 0.  0.
         14    1    1    2    0    0  0.27497334249E-02 -0.22282475845E-01  0.56759553662E-02  0.23157854672E-01  0.00000000000E+00 0.  1.
     999901    1    3    3    0    0 -0.33588365672E-01  0.10619454618E+00  0.85970357157E-01  0.89117695339E+00  0.88000000000E+00 0.  1.
        -11    1    4    4    0    0  0.16037113768E-01 -0.35830484784E-01 -0.53980160620E-01  0.66746771603E-01  0.51100000000E-03 0. -1.
         11    1    4    4    0    0  0.14801518480E-01 -0.48081585550E-01 -0.37666151903E-01  0.62848420334E-01  0.51100000000E-03 0.  1.
</event>
<event>
 8    1  0.1064839E+005  0.1043930E+01  0.7957747E-01            NaN
         13   -1    0    0    0    0  0.00000000000E+00  0.00000000000E+00  0.74505805969E-08  0.10566000000E+00  0.10566000000E+00 0.  1.
     999900   -1    0    0    0    0 -0.00000000000E+00 -0.00000000000E+00 -0.74505805969E-08  0.93827000000E+00  0.93827000000E+00 0. -1.
     999902    2    1    2    0    0 -0.45344747723E-02 -0.70779592098E-02 -0.21953767407E-01  0.10204219828E+01  0.10201511634E+01 0.  0.
     999903    2    3    3    0    0 -0.83843552240E-01  0.97061765477E-01 -0.14840675551E-01  0.13071101397E+00  0.20356717634E-01 0.  0.
         14    1    1    2    0    0  0.45344747723E-02  0.70779592098E-02  0.21953767407E-01  0.23508017173E-01  0.00000000000E+00 0.  1.
     999901    1    3    3    0    0  0.79309077468E-01 -0.10413972469E+00 -0.71130918563E-02  0.88971096886E+00  0.88000000000E+00 0. -1.
        -11    1    4    4    0    0 -0.80265897262E-02  0.26992765146E-02  0.13293000840E-02  0.85872228368E-02  0.51100000000E-03 0. -1.
         11    1    4    4    0    0 -0.75816962514E-01  0.94362488963E-01 -0.16169975635E-01  0.12212379113E+00  0.51100000000E-03 0.  1.
</event>
<event>
 8    1  0.1064839E+005  0.1043930E+01  0.7957747E-01            NaN
         13   -1    0    0    0    0  0.00000000000E+00  0.00000000000E+00  0.74505805969E-08  0.10566000000E+00  0.10566000000E+00 0.  1.
     999900   -1    0    0    0    0 -0.00000000000E+00 -0.00000000000E+00 -0.74505805969E-08  0.93827000000E+00  0.93827000000E+00 0.  1.
     999902    2    1    2    0    0  0.16891792656E-01 -0.81337060565E-02 -0.14021210168E-01  0.10205188025E+01  0.10202502350E+01 0.  0.
     999903    2    3    3    0    0 -0.37285800685E-02 -0.56096969808E-01  0.11497605034E+00  0.12958335723E+00  0.20287483518E-01 0.  0.
         14    1    1    2    0    0 -0.16891792656E-01  0.81337060565E-02  0.14021210168E-01  0.23411197490E-01  0.00000000000E+00 0. -1.
     999901    1    3    3    0    0  0.20620372725E-01  0.47963263752E-01 -0.12899726051E+00  0.89093544528E+00  0.88000000000E+00 0.  1.
        -11    1    4    4    0    0 -0.11948347353E-01 -0.35757271976E-01  0.76594435258E-01  0.85371623723E-01  0.51100000000E-03 0. -1.
         11    1    4    4    0    0  0.82197672850E-02 -0.20339697832E-01  0.38381615083E-01  0.44211733505E-01  0.51100000000E-03 0.  1.
</event>
<event>
 8    1  0.1064839E+005  0.1043930E+01  0.7957747E-01            NaN
         13   -1    0    0    0    0  0.00000000000E+00  0.00000000000E+00  0.74505805969E-08  0.10566000000E+00  0.10566000000E+00 0.  1.
     999900   -1    0    0    0    0 -0.00000000000E+00 -0.00000000000E+00 -0.74505805969E-08  0.93827000000E+00  0.93827000000E+00 0.  1.
     999902    2    1    2    0    0 -0.21718481676E-01  0.91022474580E-02  0.16959198990E-03  0.10203806451E+01  0.10201088612E+01 0.  0.
     999903    2    3    3    0    0 -0.12168954305E+00 -0.42828949068E-01 -0.25556887092E-01  0.13282618817E+00  0.18627345959E-01 0.  0.
         14    1    1    2    0    0  0.21718481676E-01 -0.91022474580E-02 -0.16959198990E-03  0.23549354907E-01  0.00000000000E+00 0. -1.
     999901    1    3    3    0    0  0.99971061379E-01  0.51931196526E-01  0.25726479082E-01  0.88755445693E+00  0.88000000000E+00 0. -1.
        -11    1    4    4    0    0 -0.85559645683E-01 -0.20910225969E-01 -0.17710488210E-01  0.89842156214E-01  0.51100000000E-03 0.  1.
         11    1    4    4    0    0 -0.36129897371E-01 -0.21918723099E-01 -0.78463988829E-02  0.42984031951E-01  0.51100000000E-03 0. -1.
</event>
<event>
 8    1  0.1064839E+005  0.1043930E+01  0.7957747E-01            NaN
         13   -1    0    0    0    0  0.00000000000E+00  0.00000000000E+00  0.74505805969E-08  0.10566000000E+00  0.10566000000E+00 0. -1.
     999900   -1    0    0    0    0 -0.00000000000E+00 -0.00000000000E+00 -0.74505805969E-08  0.93827000000E+00  0.93827000000E+00 0.  1.
     999902    2    1    2    0    0 -0.19468224369E-01  0.16069575270E-01 -0.67162571878E-02  0.10178081486E+01  0.10174728872E+01 0.  0.
     999903    2    3    3    0    0 -0.62129797824E-01  0.46923167888E-01  0.10159032168E+00  0.12960644345E+00  0.20379923000E-01 0.  0.
         14    1    1    2    0    0  0.19468224369E-01 -0.16069575270E-01  0.67162571878E-02  0.26121851390E-01  0.00000000000E+00 0.  1.
     999901    1    3    3    0    0  0.42661573455E-01 -0.30853592618E-01 -0.10830657887E+00  0.88820170516E+00  0.88000000000E+00 0.  1.
        -11    1    4    4    0    0 -0.27768292122E-01  0.15443285946E-01  0.56133943641E-01  0.64504681054E-01  0.51100000000E-03 0. -1.
         11    1    4    4    0    0 -0.34361505702E-01  0.31479881942E-01  0.45456378040E-01  0.65101762393E-01  0.51100000000E-03 0.  1.
</event>
<event>
 8    1  0.1064839E+005  0.1043930E+01  0.7957747E-01            NaN
         13   -1    0    0    0    0  0.00000000000E+00  0.00000000000E+00  0.74505805969E-08  0.10566000000E+00  0.10566000000E+00 0.  1.
     999900   -1    0    0    0    0 -0.00000000000E+00 -0.00000000000E+00 -0.74505805969E-08  0.93827000000E+00  0.93827000000E+00 0. -1.
     999902    2    1    2    0    0  0.84906149724E-02 -0.20514084559E-01  0.67919034218E-02  0.10207125893E+01  0.10204485003E+01 0.  0.
     999903    2    3    3    0    0  0.10712314518E+00  0.72476007955E-02 -0.72575909672E-01  0.13121928581E+00  0.20575285006E-01 0.  0.
         14    1    1    2    0    0 -0.84906149724E-02  0.20514084559E-01 -0.67919034218E-02  0.23217410708E-01  0.00000000000E+00 0. -1.
     999901    1    3    3    0    0 -0.98632530205E-01 -0.27761685354E-01  0.79367813094E-01  0.88949330348E+00  0.88000000000E+00 0.  1.
        -11    1    4    4    0    0  0.48835934629E-01 -0.65748297375E-02 -0.29501507959E-01  0.57434980544E-01  0.51100000000E-03 0.  1.
         11    1    4    4    0    0  0.58287210548E-01  0.13822430533E-01 -0.43074401714E-01  0.73784305264E-01  0.51100000000E-03 0. -1.
</event>
<event>
 8    1  0.1064839E+005  0.1043930E+01  0.7957747E-01            NaN
         13   -1    0    0    0    0  0.00000000000E+00  0.00000000000E+00  0.74505805969E-08  0.10566000000E+00  0.10566000000E+00 0.  1.
     999900   -1    0    0    0    0 -0.00000000000E+00 -0.00000000000E+00 -0.74505805969E-08  0.93827000000E+00  0.93827000000E+00 0. -1.
     999902    2    1    2    0    0  0.17413974648E-02 -0.46436386345E-02 -0.21235453210E-01  0.10221231131E+01  0.10218904628E+01 0.  0.
     999903    2    3    3    0    0 -0.90793548604E-01  0.14713045860E-01  0.91437869951E-01  0.12991648048E+00  0.75806102180E-02 0.  0.
         14    1    1    2    0    0 -0.17413974648E-02  0.46436386345E-02  0.21235453210E-01  0.21806886938E-01  0.00000000000E+00 0.  1.
     999901    1    3    3    0    0  0.92534946069E-01 -0.19356684494E-01 -0.11267332316E+00  0.89220663259E+00  0.88000000000E+00 0. -1.
        -11    1    4    4    0    0 -0.86777328035E-01  0.15251655661E-01  0.86070614232E-01  0.12317195061E+00  0.51100000000E-03 0. -1.
         11    1    4    4    0    0 -0.40162205699E-02 -0.53860980108E-03  0.53672557192E-02  0.67445298679E-02  0.51100000000E-03 0.  1.
</event>
<event>
 8    1  0.1064839E+005  0.1043930E+01  0.7957747E-01            NaN
         13   -1    0    0    0    0  0.00000000000E+00  0.00000000000E+00  0.74505805969E-08  0.10566000000E+00  0.10566000000E+00 0.  1.
     999900   -1    0    0    0    0 -0.00000000000E+00 -0.00000000000E+00 -0.74505805969E-08  0.93827000000E+00  0.93827000000E+00 0.  1.
     999902    2    1    2    0    0 -0.95185587075E-02  0.14354238238E-01  0.16533797964E-01  0.10200550426E+01  0.10197756010E+01 0.  0.
     999903    2    3    3    0    0 -0.27982553895E-01  0.80515382145E-01  0.10054294501E+00  0.13338951781E+00  0.20448217189E-01 0.  0.
         14    1    1    2    0    0  0.95185587075E-02 -0.14354238238E-01 -0.16533797964E-01  0.23874957390E-01  0.00000000000E+00 0. -1.
     999901    1    3    3    0    0  0.18463995187E-01 -0.66161143907E-01 -0.84009147045E-01  0.88666552480E+00  0.88000000000E+00 0. -1.
        -11    1    4    4    0    0 -0.29804080751E-01  0.63579900769E-01  0.85667399932E-01  0.11076936193E+00  0.51100000000E-03 0.  1.
         11    1    4    4    0    0  0.18215268560E-02  0.16935481377E-01  0.14875545076E-01  0.22620155876E-01  0.51100000000E-03 0. -1.
</event>
<event>
 8    1  0.1064839E+005  0.1043930E+01  0.7957747E-01            NaN
         13   -1    0    0    0    0  0.00000000000E+00  0.00000000000E+00  0.74505805969E-08  0.10566000000E+00  0.10566000000E+00 0.  1.
     999900   -1    0    0    0    0 -0.00000000000E+00 -0.00000000000E+00 -0.74505805969E-08  0.93827000000E+00  0.93827000000E+00 0.  1.
     999902    2    1    2    0    0  0.23268969232E-01  0.12824399313E-01  0.81909534198E-02  0.10161270889E+01  0.10157466510E+01 0.  0.
     999903    2    3    3    0    0 -0.89987392515E-01 -0.80045827973E-01  0.21082162947E-01  0.12392864357E+00  0.20218449871E-01 0.  0.
         14    1    1    2    0    0 -0.23268969232E-01 -0.12824399313E-01 -0.81909534198E-02  0.27802911085E-01  0.00000000000E+00 0. -1.
     999901    1    3    3    0    0  0.11325636175E+00  0.92870227285E-01 -0.12891209527E-01  0.89219844534E+00  0.88000000000E+00 0. -1.
        -11    1    4    4    0    0 -0.63035939817E-01 -0.61331794789E-01  0.70315827990E-02  0.88231644201E-01  0.51100000000E-03 0. -1.
         11    1    4    4    0    0 -0.26951452698E-01 -0.18714033184E-01  0.14050580148E-01  0.35696999370E-01  0.51100000000E-03 0.  1.
</event>
<event>
 8    1  0.1064839E+005  0.1043930E+01  0.7957747E-01            NaN
         13   -1    0    0    0    0  0.00000000000E+00  0.00000000000E+00  0.74505805969E-08  0.10566000000E+00  0.10566000000E+00 0. -1.
     999900   -1    0    0    0    0 -0.00000000000E+00 -0.00000000000E+00 -0.74505805969E-08  0.93827000000E+00  0.93827000000E+00 0. -1.
     999902    2    1    2    0    0 -0.15541155575E-01 -0.16183244510E-01  0.71806051967E-02  0.10203718589E+01  0.10200998699E+01 0.  0.
     999903    2    3    3    0    0 -0.55909968666E-01  0.69293678135E-01  0.94062281855E-01  0.13105505874E+00  0.20004427679E-01 0.  0.
         14    1    1    2    0    0  0.15541155575E-01  0.16183244510E-01 -0.71806051967E-02  0.23558141066E-01  0.00000000000E+00 0. -1.
     999901    1    3    3    0    0  0.40368813091E-01 -0.85476922645E-01 -0.86881676658E-01  0.88931680020E+00  0.88000000000E+00 0. -1.
        -11    1    4    4    0    0 -0.58464171907E-02  0.31406372559E-02  0.16331437025E-02  0.68536468901E-02  0.51100000000E-03 0. -1.
         11    1    4    4    0    0 -0.50063551476E-01  0.66153040879E-01  0.92429138153E-01  0.12420141185E+00  0.51100000000E-03 0.  1.
</event>
<event>
 8    1  0.1064839E+005  0.1043930E+01  0.7957747E-01            NaN
         13   -1    0    0    0    0  0.00000000000E+00  0.00000000000E+00  0.74505805969E-08  0.10566000000E+00  0.10566000000E+00 0.  1.
     999900   -1    0    0    0    0 -0.00000000000E+00 -0.00000000000E+00 -0.74505805969E-08  0.93827000000E+00  0.93827000000E+00 0.  1.
     999902    2    1    2    0    0  0.18920859961E-01 -0.70288658385E-02 -0.11338152732E-01  0.10207792418E+01  0.10205166843E+01 0.  0.
     999903    2    3    3    0    0  0.12188721867E+00 -0.49032840561E-01  0.85071968814E-02  0.13355872650E+00  0.22468811616E-01 0.  0.
         14    1    1    2    0    0 -0.18920859961E-01  0.70288658385E-02  0.11338152732E-01  0.23150758174E-01  0.00000000000E+00 0.  1.
     999901    1    3    3    0    0 -0.10296635871E+00  0.42003974723E-01 -0.19845349613E-01  0.88722051533E+00  0.88000000000E+00 0.  1.
        -11    1    4    4    0    0  0.11607716448E+00 -0.43909995741E-01  0.31850767542E-02  0.12414669418E+00  0.51100000000E-03 0.  1.
         11    1    4    4    0    0  0.58100541927E-02 -0.51228448206E-02  0.53221201273E-02  0.94120323218E-02  0.51100000000E-03 0. -1.
</event>
<event>
 8    1  0.1064839E+005  0.1043930E+01  0.7957747E-01            NaN
         13   -1    0    0    0    0  0.00000000000E+00  0.00000000000E+00  0.74505805969E-08  0.10566000000E+00  0.10566000000E+00 0. -1.
     999900   -1    0    0    0    0 -0.00000000000E+00 -0.00000000000E+00 -0.74505805969E-08  0.93827000000E+00  0.93827000000E+00 0.  1.
     999902    2    1    2    0    0  0.17192710310E-01  0.40343811433E-02  0.15038151434E-01  0.10207349247E+01  0.10204713494E+01 0.  0.
     999903    2    3    3    0    0 -0.69951640655E-01  0.10221670300E+00  0.36705248081E-01  0.13073303185E+00  0.20059012364E-01 0.  0.
         14    1    1    2    0    0 -0.17192710310E-01 -0.40343811433E-02 -0.15038151434E-01  0.23195075287E-01  0.00000000000E+00 0.  1.
     999901    1    3    3    0    0  0.87144350965E-01 -0.98182321854E-01 -0.21667096647E-01  0.89000189287E+00  0.88000000000E+00 0.  1.
        -11    1    4    4    0    0 -0.23141183624E-01  0.49686073294E-01  0.11613069997E-01  0.56029856100E-01  0.51100000000E-03 0.  1.
         11    1    4    4    0    0 -0.46810457031E-01  0.52530629703E-01  0.25092178084E-01  0.74703175746E-01  0.51100000000E-03 0. -1.
</event>
<event>
 8    1  0.1064839E+005  0.1043930E+01  0.7957747E-01            NaN
         13   -1    0    0    0    0  0.00000000000E+00  0.00000000000E+00  0.74505805969E-08  0.10566000000E+00  0.10566000000E+00 0.  1.
     999900   -1    0    0    0    0 -0.00000000000E+00 -0.00000000000E+00 -0.74505805969E-08  0.93827000000E+00  0.93827000000E+00 0.  1.
     999902    2    1    2    0    0  0.19429214223E-02  0.21222814392E-01 -0.11876980408E-01  0.10195323473E+01  0.10192403847E+01 0.  0.
     999903    2    3    3    0    0  0.11417524394E+00 -0.35954368574E-01 -0.46246887976E-01  0.12989949323E+00  0.20159383560E-01 0.  0.
         14    1    1    2    0    0 -0.19429214223E-02 -0.21222814392E-01  0.11876980408E-01  0.24397652714E-01  0.00000000000E+00 0.  1.
     999901    1    3    3    0    0 -0.11223232252E+00  0.57177182966E-01  0.34369907568E-01  0.88963285406E+00  0.88000000000E+00 0. -1.
        -11    1    4    4    0    0  0.80072903887E-01 -0.31244269575E-01 -0.25308792360E-01  0.89602848225E-01  0.51100000000E-03 0.  1.
         11    1    4    4    0    0  0.34102340052E-01 -0.47100989996E-02 -0.20938095616E-01  0.40296645005E-01  0.51100000000E-03 0. -1.
</event>
<event>
 8    1  0.1064839E+005  0.1043930E+01  0.7957747E-01            NaN
         13   -1    0    0    0    0  0.00000000000E+00  0.00000000000E+00  0.74505805969E-08  0.10566000000E+00  0.10566000000E+00 0. -1.
     999900   -1    0    0    0    0 -0.00000000000E+00 -0.00000000000E+00 -0.74505805969E-08  0.93827000000E+00  0.93827000000E+00 0. -1.
     999902    2    1    2    0    0  0.72228426586E-02  0.21765505220E-01 -0.55875803120E-02  0.10203264467E+01  0.10200533957E+01 0.  0.
     999903    2    3    3    0    0  0.63582281317E-01 -0.52003527102E-01 -0.99467976068E-01  0.13047714197E+00  0.19578891334E-01 0.  0.
         14    1    1    2    0    0 -0.72228426586E-02 -0.21765505220E-01  0.55875803120E-02  0.23603553277E-01  0.00000000000E+00 0. -1.
     999901    1    3    3    0    0 -0.56359438658E-01  0.73769032323E-01  0.93880395756E-01  0.88984930475E+00  0.88000000000E+00 0.  1.
        -11    1    4    4    0    0  0.28315283884E-01 -0.35690866843E-01 -0.55090265558E-01  0.71489801774E-01  0.51100000000E-03 0.  1.
         11    1    4    4    0    0  0.35266997433E-01 -0.16312660260E-01 -0.44377710510E-01  0.58987340199E-01  0.51100000000E-03 0. -1.
</event>
<event>
 8    1  0.1064839E+005  0.1043930E+01  0.7957747E-01            NaN
         13   -1    0    0    0    0  0.00000000000E+00  0.00000000000E+00  0.74505805969E-08  0.10566000000E+00  0.10566000000E+00 0.  1.
     999900   -1    0    0    0    0 -0.00000000000E+00 -0.00000000000E+00 -0.74505805969E-08  0.93827000000E+00  0.93827000000E+00 0.  1.
     999902    2    1    2    0    0 -0.17122085441E-01 -0.20321365542E-01 -0.10316903437E-01  0.10154245233E+01  0.10150243348E+01 0.  0.
     999903    2    3    3    0    0 -0.69071569565E-01  0.44659037080E-01  0.92794944413E-01  0.12550696821E+00  0.19385201727E-01 0.  0.
         14    1    1    2    0    0  0.17122085441E-01  0.20321365542E-01  0.10316903437E-01  0.28505476734E-01  0.00000000000E+00 0.  1.
     999901    1    3    3    0    0  0.51949484124E-01 -0.64980402622E-01 -0.10311184785E+00  0.88991755505E+00  0.88000000000E+00 0.  1.
        -11    1    4    4    0    0 -0.22709856118E-01  0.22862094416E-01  0.26510486618E-01  0.41731042975E-01  0.51100000000E-03 0. -1.
         11    1    4    4    0    0 -0.46361713447E-01  0.21796942664E-01  0.66284457795E-01  0.83775925237E-01  0.51100000000E-03 0.  1.
</event>
<event>
 8    1  0.1064839E+005  0.1043930E+01  0.7957747E-01            NaN
         13   -1    0    0    0    0  0.00000000000E+00  0.00000000000E+00  0.74505805969E-08  0.10566000000E+00  0.10566000000E+00 0.  1.
     999900   -1    0    0    0    0 -0.00000000000E+00 -0.00000000000E+00 -0.74505805969E-08  0.93827000000E+00  0.93827000000E+00 0.  1.
     999902    2    1    2    0    0  0.60605514144E-02  0.18586772962E-01 -0.10443254683E-01  0.10217656146E+01  0.10215251887E+01 0.  0.
     999903    2    3    3    0    0 -0.11076484891E+00 -0.59607780749E-01 -0.29368172426E-01  0.13040669983E+00  0.17929822335E-01 0.  0.
         14    1    1    2    0    0 -0.60605514144E-02 -0.18586772962E-01  0.10443254683E-01  0.22164385419E-01  0.00000000000E+00 0.  1.
     999901    1    3    3    0    0  0.11682540033E+00  0.78194553711E-01  0.18924917743E-01  0.89135891475E+00  0.88000000000E+00 0. -1.
        -11    1    4    4    0    0 -0.94537906162E-01 -0.43184799792E-01 -0.25083365425E-01  0.10691949764E+00  0.51100000000E-03 0.  1.
         11    1    4    4    0    0 -0.16226942751E-01 -0.16422980957E-01 -0.42848070007E-02  0.23487202187E-01  0.51100000000E-03 0. -1.
</event>
<event>
 8    1  0.1064839E+005  0.1043930E+01  0.7957747E-01            NaN
         13   -1    0    0    0    0  0.00000000000E+00  0.00000000000E+00  0.74505805969E-08  0.10566000000E+00  0.10566000000E+00 0. -1.
     999900   -1    0    0    0    0 -0.00000000000E+00 -0.00000000000E+00 -0.74505805969E-08  0.93827000000E+00  0.93827000000E+00 0.  1.
     999902    2    1    2    0    0  0.26696459427E-02  0.23144664754E-01 -0.73993457199E-03  0.10206201304E+01  0.10203539095E+01 0.  0.
     999903    2    3    3    0    0 -0.72073667574E-01 -0.92232876333E-01  0.49251595105E-01  0.12854519359E+00  0.19915575333E-01 0.  0.
         14    1    1    2    0    0 -0.26696459427E-02 -0.23144664754E-01  0.73993457199E-03  0.23309869566E-01  0.00000000000E+00 0. -1.
     999901    1    3    3    0    0  0.74743313517E-01  0.11537754109E+00 -0.49991529677E-01  0.89207493684E+00  0.88000000000E+00 0.  1.
        -11    1    4    4    0    0 -0.10537004494E-01 -0.87581825233E-02  0.12397317486E-01  0.18484826931E-01  0.51100000000E-03 0.  1.
         11    1    4    4    0    0 -0.61536663079E-01 -0.83474693810E-01  0.36854277619E-01  0.11006036666E+00  0.51100000000E-03 0. -1.
</event>
<event>
 8    1  0.1064839E+005  0.1043930E+01  0.7957747E-01            NaN
         13   -1    0    0    0    0  0.00000000000E+00  0.00000000000E+00  0.74505805969E-08  0.10566000000E+00  0.10566000000E+00 0.  1.
     999900   -1    0    0    0    0 -0.00000000000E+00 -0.00000000000E+00 -0.74505805969E-08  0.93827000000E+00  0.93827000000E+00 0.  1.
     999902    2    1    2    0    0  0.69144776161E-02 -0.21860860777E-01  0.39222347356E-02  0.10206686337E+01  0.10204035323E+01 0.  0.
     999903    2    3    3    0    0 -0.38714933932E-01  0.63925744659E-01  0.10432161510E+00  0.12964595141E+00  0.18431668389E-01 0.  0.
         14    1    1    2    0    0 -0.69144776161E-02  0.21860860777E-01 -0.39222347356E-02  0.23261366253E-01  0.00000000000E+00 0. -1.
     999901    1    3    3    0    0  0.45629411548E-01 -0.85786605436E-01 -0.10039938036E+00  0.89102268234E+00  0.88000000000E+00 0.  1.
        -11    1    4    4    0    0 -0.34162310983E-01  0.63773421069E-01  0.97043240864E-01  0.12104447300E+00  0.51100000000E-03 0. -1.
         11    1    4    4    0    0 -0.45526229490E-02  0.15232358983E-03  0.72783742340E-02  0.86014784009E-02  0.51100000000E-03 0.  1.
</event>
<event>
 8    1  0.1064839E+005  0.1043930E+01  0.7957747E-01            NaN
         13   -1    0    0    0    0  0.00000000000E+00  0.00000000000E+00  0.74505805969E-08  0.10566000000E+00  0.10566000000E+00 0.  1.
     999900   -1    0    0    0    0 -0.00000000000E+00 -0.00000000000E+00 -0.74505805969E-08  0.93827000000E+00  0.93827000000E+00 0.  1.
     999902    2    1    2    0    0 -0.23587151415E-01 -0.43110811521E-03 -0.72053451917E-02  0.10192630876E+01  0.10189645653E+01 0.  0.
     999903    2    3    3    0    0 -0.13315176041E-01 -0.58864869123E-01 -0.11428107419E+00  0.13078954856E+00  0.20084206858E-01 0.  0.
         14    1    1    2    0    0  0.23587151415E-01  0.43110811521E-03  0.72053451917E-02  0.24666912361E-01  0.00000000000E+00 0. -1.
     999901    1    3    3    0    0 -0.10271975375E-01  0.58433761008E-01  0.10707572900E+00  0.88847353908E+00  0.88000000000E+00 0. -1.
        -11    1    4    4    0    0 -0.13198959084E-01 -0.16476624653E-01 -0.41461809357E-01  0.46529930550E-01  0.51100000000E-03 0. -1.
         11    1    4    4    0    0 -0.11621695652E-03 -0.42388244470E-01 -0.72819264831E-01  0.84259618009E-01  0.51100000000E-03 0.  1.
</event>
<event>
 8    1  0.1064839E+005  0.1043930E+01  0.7957747E-01            NaN
         13   -1    0    0    0    0  0.00000000000E+00  0.00000000000E+00  0.74505805969E-08  0.10566000000E+00  0.10566000000E+00 0.  1.
     999900   -1    0    0    0    0 -0.00000000000E+00 -0.00000000000E+00 -0.74505805969E-08  0.93827000000E+00  0.93827000000E+00 0. -1.
     999902    2    1    2    0    0  0.78322527875E-02 -0.13041436906E-01  0.17134802662E-01  0.10210165820E+01  0.10207594408E+01 0.  0.
     999903    2    3    3    0    0  0.72736861473E-01  0.93768225042E-01 -0.48490925116E-01  0.12976597292E+00  0.20117327472E-01 0.  0.
         14    1    1    2    0    0 -0.78322527875E-02  0.13041436906E-01 -0.17134802662E-01  0.22913417959E-01  0.00000000000E+00 0. -1.
     999901    1    3    3    0    0 -0.64904608685E-01 -0.10680966195E+00  0.65625727778E-01  0.89125060912E+00  0.88000000000E+00 0.  1.
        -11    1    4    4    0    0  0.43933681189E-01  0.41592428767E-01 -0.28723012805E-01  0.66972912877E-01  0.51100000000E-03 0. -1.
         11    1    4    4    0    0  0.28803180284E-01  0.52175796275E-01 -0.19767912311E-01  0.62793060043E-01  0.51100000000E-03 0.  1.
</event>
<event>
 8    1  0.1064839E+005  0.1043930E+01  0.7957747E-01            NaN
         13   -1    0    0    0    0  0.00000000000E+00  0.00000000000E+00  0.74505805969E-08  0.10566000000E+00  0.10566000000E+00 0.  1.
     999900   -1    0    0    0    0 -0.00000000000E+00 -0.00000000000E+00 -0.74505805969E-08  0.93827000000E+00  0.93827000000E+00 0.  1.
     999902    2    1    2    0    0 -0.74037329787E-02 -0.23395897259E-01  0.33415709252E-02  0.10191641088E+01  0.10188631563E+01 0.  0.
     999903    2    3    3    0    0  0.53687318600E-01 -0.83986812558E-01  0.83180734143E-01  0.13137040102E+00  0.20075728342E-01 0.  0.
         14    1    1    2    0    0  0.74037329787E-02  0.23395897259E-01 -0.33415709252E-02  0.24765891198E-01  0.00000000000E+00 0.  1.
     999901    1    3    3    0    0 -0.61091051579E-01  0.60590915299E-01 -0.79839163218E-01  0.88779370779E+00  0.88000000000E+00 0.  1.
        -11    1    4    4    0    0  0.45704303456E-01 -0.54894362697E-01  0.56112061633E-01  0.90835560173E-01  0.51100000000E-03 0. -1.
         11    1    4    4    0    0  0.79830151445E-02 -0.29092449861E-01  0.27068672510E-01  0.40534840843E-01  0.51100000000E-03 0.  1.
</event>
<event>
 8    1  0.1064839E+005  0.1043930E+01  0.7957747E-01            NaN
         13   -1    0    0    0    0  0.00000000000E+00  0.00000000000E+00  0.74505805969E-08  0.10566000000E+00  0.10566000000E+00 0.  1.
     999900   -1    0    0    0    0 -0.00000000000E+00 -0.00000000000E+00 -0.74505805969E-08  0.93827000000E+00  0.93827000000E+00 0. -1.
     999902    2    1    2    0    0  0.19963097422E-01 -0.10333515364E-01  0.80452479044E-02  0.10200546401E+01  0.10197751889E+01 0.  0.
     999903    2    3    3    0    0 -0.51116544697E-01  0.10962194438E+00  0.40139033283E-01  0.12849889929E+00  0.16460658966E-01 0.  0.
         14    1    1    2    0    0 -0.19963097422E-01  0.10333515364E-01 -0.80452479044E-02  0.23875359941E-01  0.00000000000E+00 0.  1.
     999901    1    3    3    0    0  0.71079642119E-01 -0.11995545974E+00 -0.32093785379E-01  0.89155574077E+00  0.88000000000E+00 0. -1.
        -11    1    4    4    0    0 -0.24419543858E-01  0.49124700968E-01  0.26721848003E-01  0.61023508987E-01  0.51100000000E-03 0.  1.
         11    1    4    4    0    0 -0.26697000839E-01  0.60497243410E-01  0.13417185281E-01  0.67475390298E-01  0.51100000000E-03 0. -1.
</event>
<event>
 8    1  0.1064839E+005  0.1043930E+01  0.7957747E-01            NaN
         13   -1    0    0    0    0  0.00000000000E+00  0.00000000000E+00  0.74505805969E-08  0.10566000000E+00  0.10566000000E+00 0. -1.
     999900   -1    0    0    0    0 -0.00000000000E+00 -0.00000000000E+00 -0.74505805969E-08  0.93827000000E+00  0.93827000000E+00 0. -1.
     999902    2    1    2    0    0  0.29541827505E-01 -0.42276302172E-02  0.16278517589E-01  0.10099361393E+01  0.10093638704E+01 0.  0.
     999903    2    3    3    0    0 -0.18467735520E-01  0.81511507801E-01 -0.82382608947E-01  0.11898713077E+00  0.19643316244E-01 0.  0.
         14    1    1    2    0    0 -0.29541827505E-01  0.42276302172E-02 -0.16278517589E-01  0.33993860688E-01  0.00000000000E+00 0. -1.
     999901    1    3    3    0    0  0.48009563025E-01 -0.85739138018E-01  0.98661126536E-01  0.89094900854E+00  0.88000000000E+00 0.  1.
        -11    1    4    4    0    0 -0.19230369836E-01  0.58835413057E-01 -0.50692398057E-01  0.80008707623E-01  0.51100000000E-03 0. -1.
         11    1    4    4    0    0  0.76263431611E-03  0.22676094744E-01 -0.31690210890E-01  0.38978423149E-01  0.51100000000E-03 0.  1.
</event>
<event>
 8    1  0.1064839E+005  0.1043930E+01  0.7957747E-01            NaN
         13   -1    0    0    0    0  0.00000000000E+00  0.00000000000E+00  0.74505805969E-08  0.10566000000E+00  0.10566000000E+00 0.  1.
     999900   -1    0    0    0    0 -0.00000000000E+00 -0.00000000000E+00 -0.74505805969E-08  0.93827000000E+00  0.93827000000E+00 0. -1.
     999902    2    1    2    0    0 -0.62795182268E-03  0.23485511059E-01 -0.52699010070E-02  0.10198523047E+01  0.10195680399E+01 0.  0.
     999903    2    3    3    0    0  0.11140206694E+00  0.57012989785E-01  0.34182584335E-01  0.13124028841E+00  0.19866119611E-01 0.  0.
         14    1    1    2    0    0  0.62795182268E-03 -0.23485511059E-01  0.52699010070E-02  0.24077695277E-01  0.00000000000E+00 0.  1.
     999901    1    3    3    0    0 -0.11203001876E+00 -0.33527478726E-01 -0.39452485342E-01  0.88861201631E+00  0.88000000000E+00 0.  1.
        -11    1    4    4    0    0  0.73074782378E-01  0.37537887401E-01  0.12538894492E-01  0.83105365689E-01  0.51100000000E-03 0.  1.
         11    1    4    4    0    0  0.38327284560E-01  0.19475102384E-01  0.21643689843E-01  0.48134922723E-01  0.51100000000E-03 0. -1.
</event>
<event>
 8    1  0.1064839E+005  0.1043930E+01  0.7957747E-01            NaN
         13   -1    0    0    0    0  0.00000000000E+00  0.00000000000E+00  0.74505805969E-08  0.10566000000E+00  0.10566000000E+00 0. -1.
     999900   -1    0    0    0    0 -0.00000000000E+00 -0.00000000000E+00 -0.74505805969E-08  0.93827000000E+00  0.93827000000E+00 0. -1.
     999902    2    1    2    0    0 -0.12906157631E-01 -0.13903582152E-01  0.14628126286E-01  0.10199746127E+01  0.10196932627E+01 0.  0.
     999903    2    3    3    0    0 -0.11441801200E+00 -0.59734539537E-01 -0.19199301156E-01  0.13230945733E+00  0.21851376372E-01 0.  0.
         14    1    1    2    0    0  0.12906157631E-01  0.13903582152E-01 -0.14628126286E-01  0.23955387288E-01  0.00000000000E+00 0. -1.
     999901    1    3    3    0    0  0.10151185437E+00  0.45830957385E-01  0.33827427443E-01  0.88766515538E+00  0.88000000000E+00 0. -1.
        -11    1    4    4    0    0 -0.76997266918E-01 -0.43980101695E-01 -0.34009956064E-02  0.88739260478E-01  0.51100000000E-03 0.  1.
         11    1    4    4    0    0 -0.37420745085E-01 -0.15754437842E-01 -0.15798305550E-01  0.43570196852E-01  0.51100000000E-03 0. -1.
</event>
<event>
 8    1  0.1064839E+005  0.1043930E+01  0.7957747E-01            NaN
         13   -1    0    0    0    0  0.00000000000E+00  0.00000000000E+00  0.74505805969E-08  0.10566000000E+00  0.10566000000E+00 0. -1.
     999900   -1    0    0    0    0 -0.00000000000E+00 -0.00000000000E+00 -0.74505805969E-08  0.93827000000E+00  0.93827000000E+00 0. -1.
     999902    2    1    2    0    0  0.21572915062E-01 -0.73131248757E-02  0.63804333067E-02  0.10202745062E+01  0.10200002380E+01 0.  0.
     999903    2    3    3    0    0  0.90549093641E-01 -0.17200314741E-01 -0.93032104317E-01  0.13193992821E+00  0.16068075094E-01 0.  0.
         14    1    1    2    0    0 -0.21572915062E-01  0.73131248757E-02 -0.63804333067E-02  0.23655493842E-01  0.00000000000E+00 0.  1.
     999901    1    3    3    0    0 -0.68976178579E-01  0.98871898652E-02  0.99412537623E-01  0.88833457794E+00  0.88000000000E+00 0.  1.
        -11    1    4    4    0    0  0.62296063020E-01 -0.17668617992E-01 -0.58028458733E-01  0.86951381090E-01  0.51100000000E-03 0.  1.
         11    1    4    4    0    0  0.28253030621E-01  0.46830325122E-03 -0.35003645584E-01  0.44988547124E-01  0.51100000000E-03 0. -1.
</event>
<event>
 8    1  0.1064839E+005  0.1043930E+01  0.7957747E-01            NaN
         13   -1    0    0    0    0  0.00000000000E+00  0.00000000000E+00  0.74505805969E-08  0.10566000000E+00  0.10566000000E+00 0. -1.
     999900   -1    0    0    0    0 -0.00000000000E+00 -0.00000000000E+00 -0.74505805969E-08  0.93827000000E+00  0.93827000000E+00 0.  1.
     999902    2    1    2    0    0  0.20879659961E-01  0.71310943684E-02  0.46619666542E-02  0.10213790213E+01  0.10211300400E+01 0.  0.
     999903    2    3    3    0    0  0.12078919666E+00  0.46457515384E-01  0.30536288279E-01  0.13447543949E+00  0.20071077711E-01 0.  0.
         14    1    1    2    0    0 -0.20879659961E-01 -0.71310943684E-02 -0.46619666542E-02  0.22550978694E-01  0.00000000000E+00 0.  1.
     999901    1    3    3    0    0 -0.99909536695E-01 -0.39326421016E-01 -0.25874321625E-01  0.88690358181E+00  0.88000000000E+00 0.  1.
        -11    1    4    4    0    0  0.65372697823E-01  0.34416439626E-01  0.22271428760E-01  0.77164490520E-01  0.51100000000E-03 0.  1.
         11    1    4    4    0    0  0.55416498833E-01  0.12041075759E-01  0.82648595192E-02  0.57310948973E-01  0.51100000000E-03 0. -1.
</event>
<event>
 8    1  0.1064839E+005  0.1043930E+01  0.7957747E-01            NaN
         13   -1    0    0    0    0  0.00000000000E+00  0.00000000000E+00  0.74505805969E-08  0.10566000000E+00  0.10566000000E+00 0.  1.
     999900   -1    0    0    0    0 -0.00000000000E+00 -0.00000000000E+00 -0.74505805969E-08  0.93827000000E+00  0.93827000000E+00 0. -1.
     999902    2    1    2    0    0 -0.14163881192E-01 -0.85478622354E-02 -0.18212515962E-01  0.10193255854E+01  0.10190285923E+01 0.  0.
     999903    2    3    3    0    0  0.62795512649E-01  0.32285251434E-01  0.10335224740E+00  0.12670691927E+00  0.19681018217E-01 0.  0.
         14    1    1    2    0    0  0.14163881192E-01  0.85478622354E-02  0.18212515962E-01  0.24604414581E-01  0.00000000000E+00 0.  1.
     999901    1    3    3    0    0 -0.76959393841E-01 -0.40833113669E-01 -0.12156476336E+00  0.89261866615E+00  0.88000000000E+00 0. -1.
        -11    1    4    4    0    0  0.19577461236E-01  0.49372954993E-03  0.25487385332E-01  0.32146363548E-01  0.51100000000E-03 0. -1.
         11    1    4    4    0    0  0.43218051413E-01  0.31791521884E-01  0.77864862070E-01  0.94560555718E-01  0.51100000000E-03 0.  1.
</event>
<event>
 8    1  0.1064839E+005  0.1043930E+01  0.7957747E-01            NaN
         13   -1    0    0    0    0  0.00000000000E+00  0.00000000000E+00  0.74505805969E-08  0.10566000000E+00  0.10566000000E+00 0. -1.
     999900   -1    0    0    0    0 -0.00000000000E+00 -0.00000000000E+00 -0.74505805969E-08  0.93827000000E+00  0.93827000000E+00 0.  1.
     999902    2    1    2    0    0 -0.21497492572E-01 -0.49376477463E-02  0.76370278191E-02  0.10205880475E+01  0.10203210847E+01 0.  0.
     999903    2    3    3    0    0 -0.16393539127E-01  0.37697515547E-01  0.12418592856E+00  0.13186567593E+00  0.16630118244E-01 0.  0.
         14    1    1    2    0    0  0.21497492572E-01  0.49376477463E-02 -0.76370278191E-02  0.23341952490E-01  0.00000000000E+00 0.  1.
     999901    1    3    3    0    0 -0.51039534452E-02 -0.42635163294E-01 -0.11654890074E+00  0.88872237158E+00  0.88000000000E+00 0.  1.
        -11    1    4    4    0    0 -0.17629101452E-01  0.33449955365E-01  0.11975614879E+00  0.12558455727E+00  0.51100000000E-03 0.  1.
         11    1    4    4    0    0  0.12355623247E-02  0.42475601818E-02  0.44297797696E-02  0.62811186554E-02  0.51100000000E-03 0. -1.
</event>
<event>
 8    1  0.1064839E+005  0.1043930E+01  0.7957747E-01            NaN
         13   -1    0    0    0    0  0.00000000000E+00  0.00000000000E+00  0.74505805969E-08  0.10566000000E+00  0.10566000000E+00 0.  1.
     999900   -1    0    0    0    0 -0.00000000000E+00 -0.00000000000E+00 -0.74505805969E-08  0.93827000000E+00  0.93827000000E+00 0. -1.
     999902    2    1    2    0    0 -0.13407191654E-01  0.19157325897E-01  0.80321385400E-02  0.10192061012E+01  0.10189061809E+01 0.  0.
     999903    2    3    3    0    0  0.74238749816E-01  0.53932960249E-01 -0.88234321228E-01  0.12894861759E+00  0.20549801966E-01 0.  0.
         14    1    1    2    0    0  0.13407191654E-01 -0.19157325897E-01 -0.80321385400E-02  0.24723898825E-01  0.00000000000E+00 0. -1.
     999901    1    3    3    0    0 -0.87645941470E-01 -0.34775634353E-01  0.96266459768E-01  0.89025748358E+00  0.88000000000E+00 0. -1.
        -11    1    4    4    0    0  0.45192126610E-01  0.27296002458E-01 -0.62775214460E-01  0.82026756179E-01  0.51100000000E-03 0. -1.
         11    1    4    4    0    0  0.29046623205E-01  0.26636957792E-01 -0.25459106768E-01  0.46921861413E-01  0.51100000000E-03 0.  1.
</event>
<event>
 8    1  0.1064839E+005  0.1043930E+01  0.7957747E-01            NaN
         13   -1    0    0    0    0  0.00000000000E+00  0.00000000000E+00  0.74505805969E-08  0.10566000000E+00  0.10566000000E+00 0.  1.
     999900   -1    0    0    0    0 -0.00000000000E+00 -0.00000000000E+00 -0.74505805969E-08  0.93827000000E+00  0.93827000000E+00 0. -1.
     999902    2    1    2    0    0  0.20670686698E-01  0.10155132003E-01 -0.62087821805E-02  0.10200772649E+01  0.10197983494E+01 0.  0.
     999903    2    3    3    0    0 -0.34398610681E-01 -0.11923474362E+00  0.26475300985E-01  0.12831349759E+00  0.19058425912E-01 0.  0.
         14    1    1    2    0    0 -0.20670686698E-01 -0.10155132003E-01  0.62087821805E-02  0.23852735078E-01  0.00000000000E+00 0. -1.
     999901    1    3    3    0    0  0.55069297378E-01  0.12938987563E+00 -0.32684083165E-01  0.89176376733E+00  0.88000000000E+00 0.  1.
        -11    1    4    4    0    0 -0.34241104880E-01 -0.89986891390E-01  0.21196830660E-01  0.98588339252E-01  0.51100000000E-03 0. -1.
         11    1    4    4    0    0 -0.15750580092E-03 -0.29247852234E-01  0.52784703248E-02  0.29725158340E-01  0.51100000000E-03 0.  1.
</event>
<event>
 8    1  0.1064839E+005  0.1043930E+01  0.7957747E-01            NaN
         13   -1    0    0    0    0  0.00000000000E+00  0.00000000000E+00  0.74505805969E-08  0.10566000000E+00  0.10566000000E+00 0. -1.
     999900   -1    0    0    0    0 -0.00000000000E+00 -0.00000000000E+00 -0.74505805969E-08  0.93827000000E+00  0.93827000000E+00 0.  1.
     999902    2    1    2    0    0  0.94641606787E-02 -0.16518409126E-01 -0.12660309794E-01  0.10210671126E+01  0.10208111171E+01 0.  0.
     999903    2    3    3    0    0  0.39030353877E-01 -0.68907992386E-01  0.10214231134E+00  0.13157373428E+00  0.24635662101E-01 0.  0.
         14    1    1    2    0    0 -0.94641606787E-02  0.16518409126E-01  0.12660309794E-01  0.22862887427E-01  0.00000000000E+00 0. -1.
     999901    1    3    3    0    0 -0.29566193198E-01  0.52389583259E-01 -0.11480262113E+00  0.88949337830E+00  0.88000000000E+00 0.  1.
        -11    1    4    4    0    0  0.22148136292E-01 -0.28578119670E-01  0.28970441255E-01  0.46333534859E-01  0.51100000000E-03 0.  1.
         11    1    4    4    0    0  0.16882217585E-01 -0.40329872716E-01  0.73171870085E-01  0.85240199417E-01  0.51100000000E-03 0. -1.
</event>
<event>
 8    1  0.1064839E+005  0.1043930E+01  0.7957747E-01            NaN
         13   -1    0    0    0    0  0.00000000000E+00  0.00000000000E+00  0.74505805969E-08  0.10566000000E+00  0.10566000000E+00 0.  1.
     999900   -1    0    0    0    0 -0.00000000000E+00 -0.00000000000E+00 -0.74505805969E-08  0.93827000000E+00  0.93827000000E+00 0. -1.
     999902    2    1    2    0    0  0.28613680709E-02  0.34523804305E-02 -0.22623176417E-01  0.10208667290E+01  0.10206061747E+01 0.  0.
     999903    2    3    3    0    0  0.66733426396E-01 -0.70337922590E-01 -0.88816842017E-01  0.13300060733E+00  0.19998914235E-01 0.  0.
         14    1    1    2    0    0 -0.28613680709E-02 -0.34523804305E-02  0.22623176417E-01  0.23063270997E-01  0.00000000000E+00 0.  1.
     999901    1    3    3    0    0 -0.63872058325E-01  0.73790303021E-01  0.66193665600E-01  0.88786612168E+00  0.88000000000E+00 0.  1.
        -11    1    4    4    0    0  0.40649658925E-01 -0.52183210649E-01 -0.68782575660E-01  0.95429482236E-01  0.51100000000E-03 0.  1.
         11    1    4    4    0    0  0.26083767471E-01 -0.18154711941E-01 -0.20034266357E-01  0.37571125091E-01  0.51100000000E-03 0. -1.
</event>
<event>
 8    1  0.1064839E+005  0.1043930E+01  0.7957747E-01            NaN
         13   -1    0    0    0    0  0.00000000000E+00  0.00000000000E+00  0.74505805969E-08  0.10566000000E+00  0.10566000000E+00 0. -1.
     999900   -1    0    0    0    0 -0.00000000000E+00 -0.00000000000E+00 -0.74505805969E-08  0.93827000000E+00  0.93827000000E+00 0.  1.
     999902    2    1    2    0    0  0.20318969436E-02 -0.11539118455E-01  0.19862982107E-01  0.10208688223E+01  0.10206083158E+01 0.  0.
     999903    2    3    3    0    0 -0.22293756269E-01  0.85419622087E-01 -0.90906498399E-01  0.12830923738E+00  0.20143126377E-01 0.  0.
         14    1    1    2    0    0 -0.20318969436E-02  0.11539118455E-01 -0.19862982107E-01  0.23061177726E-01  0.00000000000E+00 0.  1.
     999901    1    3    3    0    0  0.24325653213E-01 -0.96958740542E-01  0.11076948051E+00  0.89255958489E+00  0.88000000000E+00 0. -1.
        -11    1    4    4    0    0 -0.19663061378E-01  0.42263277171E-01 -0.55057597250E-01  0.72141671148E-01  0.51100000000E-03 0.  1.
         11    1    4    4    0    0 -0.26306948916E-02  0.43156344916E-01 -0.35848901149E-01  0.56167566234E-01  0.51100000000E-03 0. -1.
</event>
<event>
 8    1  0.1064839E+005  0.1043930E+01  0.7957747E-01            NaN
         13   -1    0    0    0    0  0.00000000000E+00  0.00000000000E+00  0.74505805969E-08  0.10566000000E+00  0.10566000000E+00 0. -1.
     999900   -1    0    0    0    0 -0.00000000000E+00 -0.00000000000E+00 -0.74505805969E-08  0.93827000000E+00  0.93827000000E+00 0. -1.
     999902    2    1    2    0    0  0.13929871242E-01  0.11896152252E-01  0.15007252025E-01  0.10202492617E+01  0.10199744010E+01 0.  0.
     999903    2    3    3    0    0  0.61493636426E-01 -0.50229328322E-01 -0.10096325502E+00  0.12919873253E+00  0.13938467615E-01 0.  0.
         14    1    1    2    0    0 -0.13929871242E-01 -0.11896152252E-01 -0.15007252025E-01  0.23680738261E-01  0.00000000000E+00 0.  1.
     999901    1    3    3    0    0 -0.47563765185E-01  0.62125480575E-01  0.11597050704E+00  0.89105052921E+00  0.88000000000E+00 0.  1.
        -11    1    4    4    0    0  0.56638998441E-01 -0.47829669613E-01 -0.87528651447E-01  0.11470474875E+00  0.51100000000E-03 0. -1.
         11    1    4    4    0    0  0.48546379853E-02 -0.23996587098E-02 -0.13434603572E-01  0.14493983787E-01  0.51100000000E-03 0.  1.
</event>
<event>
 8    1  0.1064839E+005  0.1043930E+01  0.7957747E-01            NaN
         13   -1    0    0    0    0  0.00000000000E+00  0.00000000000E+00  0.74505805969E-08  0.10566000000E+00  0.10566000000E+00 0. -1.
     999900   -1    0    0    0    0 -0.00000000000E+00 -0.00000000000E+00 -0.74505805969E-08  0.93827000000E+00  0.93827000000E+00 0.  1.
     999902    2    1    2    0    0 -0.14993406709E-02  0.22830949867E-01  0.10148496979E-01  0.10189001721E+01  0.10185926901E+01 0.  0.
     999903    2    3    3    0    0  0.93519089307E-01 -0.41629680791E-01 -0.73433967905E-01  0.12751377811E+00  0.19706993108E-01 0.  0.
         14    1    1    2    0    0  0.14993406709E-02 -0.22830949867E-01 -0.10148496979E-01  0.25029827910E-01  0.00000000000E+00 0.  1.
     999901    1    3    3    0    0 -0.95018429978E-01  0.64460630658E-01  0.83582464884E-01  0.89138639398E+00  0.88000000000E+00 0. -1.
        -11    1    4    4    0    0  0.55575482366E-01 -0.26099353165E-01 -0.55479565993E-01  0.82752968766E-01  0.51100000000E-03 0.  1.
         11    1    4    4    0    0  0.37943606941E-01 -0.15530327626E-01 -0.17954401912E-01  0.44760809341E-01  0.51100000000E-03 0. -1.
</event>
<event>
 8    1  0.1064839E+005  0.1043930E+01  0.7957747E-01            NaN
         13   -1    0    0    0    0  0.00000000000E+00  0.00000000000E+00  0.74505805969E-08  0.10566000000E+00  0.10566000000E+00 0.  1.
     999900   -1    0    0    0    0 -0.00000000000E+00 -0.00000000000E+00 -0.74505805969E-08  0.93827000000E+00  0.93827000000E+00 0. -1.
     999902    2    1    2    0    0 -0.22719493177E-01  0.56180710942E-02  0.64909930632E-03  0.10205171953E+01  0.10202485906E+01 0.  0.
     999903    2    3    3    0    0  0.12226203851E+00  0.31337792209E-01 -0.98773523070E-02  0.12822130562E+00  0.20324316616E-01 0.  0.
         14    1    1    2    0    0  0.22719493177E-01 -0.56180710942E-02 -0.64909930632E-03  0.23412804679E-01  0.00000000000E+00 0. -1.
     999901    1    3    3    0    0 -0.14498153169E+00 -0.25719721114E-01  0.10526451613E-01  0.89229588970E+00  0.88000000000E+00 0.  1.
        -11    1    4    4    0    0  0.71597311766E-01  0.10852469033E-01 -0.12585387117E-01  0.73502409662E-01  0.51100000000E-03 0.  1.
         11    1    4    4    0    0  0.50664726746E-01  0.20485323176E-01  0.27080348099E-02  0.54718895963E-01  0.51100000000E-03 0. -1.
</event>
<event>
 8    1  0.1064839E+005  0.1043930E+01  0.7957747E-01            NaN
         13   -1    0    0    0    0  0.00000000000E+00  0.00000000000E+00  0.74505805969E-08  0.10566000000E+00  0.10566000000E+00 0. -1.
     999900   -1    0    0    0    0 -0.00000000000E+00 -0.00000000000E+00 -0.74505805969E-08  0.93827000000E+00  0.93827000000E+00 0. -1.
     999902    2    1    2    0    0  0.22466782641E-01 -0.52257921905E-02  0.63561937764E-02  0.10200037294E+01  0.10197230710E+01 0.  0.
     999903    2    3    3    0    0 -0.12835832822E-01 -0.27707294829E-01  0.12576956339E+00  0.13095297411E+00  0.19956090845E-01 0.  0.
         14    1    1    2    0    0 -0.22466782641E-01  0.52257921905E-02 -0.63561937764E-02  0.23926270616E-01  0.00000000000E+00 0. -1.
     999901    1    3    3    0    0  0.35302615463E-01  0.22481502639E-01 -0.11941336961E+00  0.88905075528E+00  0.88000000000E+00 0. -1.
        -11    1    4    4    0    0 -0.12212645745E-01 -0.41518612058E-02  0.44250613679E-01  0.46095168939E-01  0.51100000000E-03 0. -1.
         11    1    4    4    0    0 -0.62318707685E-03 -0.23555433624E-01  0.81518949707E-01  0.84857805167E-01  0.51100000000E-03 0.  1.
</event>
<event>
 8    1  0.1064839E+005  0.1043930E+01  0.7957747E-01            NaN
         13   -1    0    0    0    0  0.00000000000E+00  0.00000000000E+00  0.74505805969E-08  0.10566000000E+00  0.10566000000E+00 0. -1.
     999900   -1    0    0    0    0 -0.00000000000E+00 -0.00000000000E+00 -0.74505805969E-08  0.93827000000E+00  0.93827000000E+00 0.  1.
     999902    2    1    2    0    0 -0.43681297766E-02 -0.20996615354E-01  0.96805497335E-02  0.10204002007E+01  0.10201288733E+01 0.  0.
     999903    2    3    3    0    0  0.96818542539E-01 -0.60257121244E-01 -0.61314190043E-01  0.13089450475E+00  0.19214334031E-01 0.  0.
         14    1    1    2    0    0  0.43681297766E-02  0.20996615354E-01 -0.96805497335E-02  0.23529799345E-01  0.00000000000E+00 0. -1.
     999901    1    3    3    0    0 -0.10118667232E+00  0.39260505890E-01  0.70994739777E-01  0.88950569591E+00  0.88000000000E+00 0. -1.
        -11    1    4    4    0    0  0.48838341920E-01 -0.41617017344E-01 -0.33612844101E-01  0.72437864295E-01  0.51100000000E-03 0. -1.
         11    1    4    4    0    0  0.47980200620E-01 -0.18640103900E-01 -0.27701345942E-01  0.58456640452E-01  0.51100000000E-03 0.  1.
</event>
<event>
 8    1  0.1064839E+005  0.1043930E+01  0.7957747E-01            NaN
         13   -1    0    0    0    0  0.00000000000E+00  0.00000000000E+00  0.74505805969E-08  0.10566000000E+00  0.10566000000E+00 0. -1.
     999900   -1    0    0    0    0 -0.00000000000E+00 -0.00000000000E+00 -0.74505805969E-08  0.93827000000E+00  0.93827000000E+00 0. -1.
     999902    2    1    2    0    0  0.16432684984E-01  0.12881986425E-01 -0.92168946774E-02  0.10211061121E+01  0.10208509991E+01 0.  0.
     999903    2    3    3    0    0  0.24302542371E-01  0.26417856817E-01  0.12428779523E+00  0.13089902573E+00  0.19964522773E-01 0.  0.
         14    1    1    2    0    0 -0.16432684984E-01 -0.12881986425E-01  0.92168946774E-02  0.22823887870E-01  0.00000000000E+00 0. -1.
     999901    1    3    3    0    0 -0.78698573873E-02 -0.13535870392E-01 -0.13350468991E+00  0.89020708640E+00  0.88000000000E+00 0. -1.
        -11    1    4    4    0    0  0.10518628689E-02  0.42623783658E-02  0.46931253186E-01  0.47138921620E-01  0.51100000000E-03 0. -1.
         11    1    4    4    0    0  0.23250679502E-01  0.22155478451E-01  0.77356542046E-01  0.83760104113E-01  0.51100000000E-03 0.  1.
</event>
<event>
 8    1  0.1064839E+005  0.1043930E+01  0.7957747E-01            NaN
         13   -1    0    0    0    0  0.00000000000E+00  0.00000000000E+00  0.74505805969E-08  0.10566000000E+00  0.10566000000E+00 0. -1.
     999900   -1    0    0    0    0 -0.00000000000E+00 -0.00000000000E+00 -0.74505805969E-08  0.93827000000E+00  0.93827000000E+00 0.  1.
     999902    2    1    2    0    0  0.19077594603E-02 -0.12964996332E-01 -0.19406379596E-01  0.10205133767E+01  0.10202446833E+01 0.  0.
     999903    2    3    3    0    0 -0.24977029754E-01  0.11902932426E+00 -0.41685945448E-01  0.12998450488E+00  0.19142137029E-01 0.  0.
         14    1    1    2    0    0 -0.19077594603E-02  0.12964996332E-01  0.19406379596E-01  0.23416623264E-01  0.00000000000E+00 0. -1.
     999901    1    3    3    0    0  0.26884789215E-01 -0.13199432060E+00  0.22279565852E-01  0.89052887186E+00  0.88000000000E+00 0.  1.
        -11    1    4    4    0    0 -0.22192176821E-01  0.59265987032E-01 -0.21081343686E-01  0.66705577754E-01  0.51100000000E-03 0. -1.
         11    1    4    4    0    0 -0.27848529329E-02  0.59763337233E-01 -0.20604601762E-01  0.63278927123E-01  0.51100000000E-03 0.  1.
</event>
<event>
 7    1  0.1064839E+005  0.1043930E+01  0.7957747E-01            NaN
         13   -1    0    0    0    0  0.00000000000E+00  0.00000000000E+00  0.74505805969E-08  0.10566000000E+00  0.10566000000E+00 0. -1.
     999900   -1    0    0    0    0 -0.00000000000E+00 -0.00000000000E+00 -0.74505805969E-08  0.93827000000E+00  0.93827000000E+00 0.  1.
     999903    2    1    2    0    0  0.75716816548E-01  0.34327828759E-01 -0.82053843178E-01  0.11841569896E+00  0.19442439232E-01 0.  0.
         14    1    1    2    0    0 -0.38173848801E-01  0.10045525152E-01  0.96098247249E-02  0.40626395842E-01  0.00000000000E+00 0.  1.
     999901    1    1    2    0    0 -0.37542967747E-01 -0.44373353911E-01  0.72444018453E-01  0.88488790520E+00  0.88000000000E+00 0. -1.
        -11    1    3    3    0    0  0.30161593518E-01  0.12657381157E-01 -0.45832181904E-01  0.56309688690E-01  0.51100000000E-03 0.  1.
         11    1    3    3    0    0  0.45555223030E-01  0.21670447602E-01 -0.36221661274E-01  0.62106010265E-01  0.51100000000E-03 0. -1.
</event>
<event>
 8    1  0.1064839E+005  0.1043930E+01  0.7957747E-01            NaN
         13   -1    0    0    0    0  0.00000000000E+00  0.00000000000E+00  0.74505805969E-08  0.10566000000E+00  0.10566000000E+00 0.  1.
     999900   -1    0    0    0    0 -0.00000000000E+00 -0.00000000000E+00 -0.74505805969E-08  0.93827000000E+00  0.93827000000E+00 0. -1.
     999902    2    1    2    0    0  0.20744516978E-01  0.97877737622E-02  0.69929984974E-02  0.10199500599E+01  0.10196681260E+01 0.  0.
     999903    2    3    3    0    0 -0.24410003318E-01 -0.11038810226E+00 -0.57336435516E-01  0.12831142907E+00  0.19873968179E-01 0.  0.
         14    1    1    2    0    0 -0.20744516978E-01 -0.97877737622E-02 -0.69929984974E-02  0.23979940113E-01  0.00000000000E+00 0.  1.
     999901    1    3    3    0    0  0.45154520296E-01  0.12017587602E+00  0.64329434013E-01  0.89163863081E+00  0.88000000000E+00 0.  1.
        -11    1    4    4    0    0 -0.17469544448E-02 -0.22784770489E-01 -0.37982727560E-02  0.23170792239E-01  0.51100000000E-03 0. -1.
         11    1    4    4    0    0 -0.22663048873E-01 -0.87603331768E-01 -0.53538162760E-01  0.10514063683E+00  0.51100000000E-03 0.  1.
</event>
<event>
 8    1  0.1064839E+005  0.1043930E+01  0.7957747E-01            NaN
         13   -1    0    0    0    0  0.00000000000E+00  0.00000000000E+00  0.74505805969E-08  0.10566000000E+00  0.10566000000E+00 0. -1.
     999900   -1    0    0    0    0 -0.00000000000E+00 -0.00000000000E+00 -0.74505805969E-08  0.93827000000E+00  0.93827000000E+00 0. -1.
     999902    2    1    2    0    0  0.11414002975E-01 -0.13839057605E-01 -0.93622778661E-02  0.10236950988E+01  0.10234950924E+01 0.  0.
     999903    2    3    3    0    0  0.27232743166E-01  0.16770774688E-01  0.12706250427E+00  0.13251671288E+00  0.19822159726E-01 0.  0.
         14    1    1    2    0    0 -0.11414002975E-01  0.13839057605E-01  0.93622778661E-02  0.20234901190E-01  0.00000000000E+00 0. -1.
     999901    1    3    3    0    0 -0.15818740191E-01 -0.30609832293E-01 -0.13642478214E+00  0.89117838593E+00  0.88000000000E+00 0. -1.
        -11    1    4    4    0    0  0.20249851221E-01  0.63326928719E-02  0.48292178484E-01  0.52749929832E-01  0.51100000000E-03 0. -1.
         11    1    4    4    0    0  0.69828919450E-02  0.10438081816E-01  0.78770325786E-01  0.79766783045E-01  0.51100000000E-03 0.  1.
</event>
<event>
 8    1  0.1064839E+005  0.1043930E+01  0.7957747E-01            NaN
         13   -1    0    0    0    0  0.00000000000E+00  0.00000000000E+00  0.74505805969E-08  0.10566000000E+00  0.10566000000E+00 0.  1.
     999900   -1    0    0    0    0 -0.00000000000E+00 -0.00000000000E+00 -0.74505805969E-08  0.93827000000E+00  0.93827000000E+00 0. -1.
     999902    2    1    2    0    0 -0.11723685723E-01  0.19065861971E-01 -0.13498801579E-02  0.10215073758E+01  0.10212612520E+01 0.  0.
     999903    2    3    3    0    0  0.72764219789E-01  0.85902243649E-01  0.66740741278E-01  0.13232705617E+00  0.19552393766E-01 0.  0.
         14    1    1    2    0    0  0.11723685723E-01 -0.19065861971E-01  0.13498801579E-02  0.22422624201E-01  0.00000000000E+00 0.  1.
     999901    1    3    3    0    0 -0.84487905512E-01 -0.66836381678E-01 -0.68090621436E-01  0.88918031963E+00  0.88000000000E+00 0. -1.
        -11    1    4    4    0    0  0.29381957546E-01  0.41480532243E-01  0.40156795854E-01  0.64782430942E-01  0.51100000000E-03 0. -1.
         11    1    4    4    0    0  0.43382262242E-01  0.44421711406E-01  0.26583945424E-01  0.67544625225E-01  0.51100000000E-03 0.  1.
</event>
<event>
 8    1  0.1064839E+005  0.1043930E+01  0.7957747E-01            NaN
         13   -1    0    0    0    0  0.00000000000E+00  0.00000000000E+00  0.74505805969E-08  0.10566000000E+00  0.10566000000E+00 0.  1.
     999900   -1    0    0    0    0 -0.00000000000E+00 -0.00000000000E+00 -0.74505805969E-08  0.93827000000E+00  0.93827000000E+00 0. -1.
     999902    2    1    2    0    0 -0.39456307835E-02 -0.10969102239E-01  0.20682104079E-01  0.10201889251E+01  0.10199126455E+01 0.  0.
     999903    2    3    3    0    0  0.74255016917E-01  0.47466876584E-01 -0.91333215358E-01  0.12773302331E+00  0.14389479055E-01 0.  0.
         14    1    1    2    0    0  0.39456307835E-02  0.10969102239E-01 -0.20682104079E-01  0.23741074856E-01  0.00000000000E+00 0. -1.
     999901    1    3    3    0    0 -0.78200647700E-01 -0.58435978823E-01  0.11201531944E+00  0.89245590183E+00  0.88000000000E+00 0.  1.
        -11    1    4    4    0    0  0.10558228852E-01  0.67030842422E-02 -0.21053147462E-01  0.24492931101E-01  0.51100000000E-03 0. -1.
         11    1    4    4    0    0  0.63696788065E-01  0.40763792341E-01 -0.70280067896E-01  0.10324009221E+00  0.51100000000E-03 0.  1.
</event>
<event>
 8    1  0.1064839E+005  0.1043930E+01  0.7957747E-01            NaN
         13   -1    0    0    0    0  0.00000000000E+00  0.00000000000E+00  0.74505805969E-08  0.10566000000E+00  0.10566000000E+00 0.  1.
     999900   -1    0    0    0    0 -0.00000000000E+00 -0.00000000000E+00 -0.74505805969E-08  0.93827000000E+00  0.93827000000E+00 0.  1.
     999902    2    1    2    0    0 -0.18624820550E-01  0.14539686560E-01  0.78230294672E-02  0.10190405200E+01  0.10187365190E+01 0.  0.
     999903    2    3    3    0    0 -0.27463040865E-01  0.87988838060E-01  0.92478303305E-01  0.13188810501E+00  0.18600575904E-01 0.  0.
         14    1    1    2    0    0  0.18624820550E-01 -0.14539686560E-01 -0.78230294672E-02  0.24889480024E-01  0.00000000000E+00 0. -1.
     999901    1    3    3    0    0  0.88382203143E-02 -0.73449151500E-01 -0.84655273838E-01  0.88715241497E+00  0.88000000000E+00 0.  1.
        -11    1    4    4    0    0 -0.19690577052E-01  0.52359986448E-01  0.67574479869E-01  0.87726042063E-01  0.51100000000E-03 0. -1.
         11    1    4    4    0    0 -0.77724638131E-02  0.35628851611E-01  0.24903823436E-01  0.44162062945E-01  0.51100000000E-03 0.  1.
</event>
<event>
 8    1  0.1064839E+005  0.1043930E+01  0.7957747E-01            NaN
         13   -1    0    0    0    0  0.00000000000E+00  0.00000000000E+00  0.74505805969E-08  0.10566000000E+00  0.10566000000E+00 0. -1.
     999900   -1    0    0    0    0 -0.00000000000E+00 -0.00000000000E+00 -0.74505805969E-08  0.93827000000E+00  0.93827000000E+00 0.  1.
     999902    2    1    2    0    0  0.30888000712E-03 -0.22391140626E-01  0.38528790234E-02  0.10212076924E+01  0.10209548706E+01 0.  0.
     999903    2    3    3    0    0 -0.14981482474E-01 -0.27548262086E-01  0.12708659968E+00  0.13247435727E+00  0.20374001922E-01 0.  0.
         14    1    1    2    0    0 -0.30888000712E-03  0.22391140626E-01 -0.38528790234E-02  0.22722307589E-01  0.00000000000E+00 0.  1.
     999901    1    3    3    0    0  0.15290362481E-01  0.51571214597E-02 -0.12323372066E+00  0.88873333514E+00  0.88000000000E+00 0.  1.
        -11    1    4    4    0    0 -0.18655474072E-01 -0.15054419082E-01  0.72878542111E-01  0.76721608873E-01  0.51100000000E-03 0. -1.
         11    1    4    4    0    0  0.36739915983E-02 -0.12493843004E-01  0.54208057569E-01  0.55752748396E-01  0.51100000000E-03 0.  1.
</event>
<event>
 8    1  0.1064839E+005  0.1043930E+01  0.7957747E-01            NaN
         13   -1    0    0    0    0  0.00000000000E+00  0.00000000000E+00  0.74505805969E-08  0.10566000000E+00  0.10566000000E+00 0. -1.
     999900   -1    0    0    0    0 -0.00000000000E+00 -0.00000000000E+00 -0.74505805969E-08  0.93827000000E+00  0.93827000000E+00 0.  1.
     999902    2    1    2    0    0  0.86037493837E-02  0.72217949436E-02 -0.20680340272E-01  0.10203958695E+01  0.10201244410E+01 0.  0.
     999903    2    3    3    0    0 -0.11084585200E+00  0.44719434112E-01  0.44583175886E-01  0.12914191759E+00  0.20083441284E-01 0.  0.
         14    1    1    2    0    0 -0.86037493837E-02 -0.72217949436E-02  0.20680340272E-01  0.23534130522E-01  0.00000000000E+00 0. -1.
     999901    1    3    3    0    0  0.11944960138E+00 -0.37497639168E-01 -0.65263516159E-01  0.89125395189E+00  0.88000000000E+00 0.  1.
        -11    1    4    4    0    0 -0.28410462793E-01  0.36224352740E-02  0.59563945878E-02  0.29257754372E-01  0.51100000000E-03 0.  1.
         11    1    4    4    0    0 -0.82435389207E-01  0.41096998838E-01  0.38626781299E-01  0.99884163217E-01  0.51100000000E-03 0. -1.
</event>
<event>
 8    1  0.1064839E+005  0.1043930E+01  0.7957747E-01            NaN
         13   -1    0    0    0    0  0.00000000000E+00  0.00000000000E+00  0.74505805969E-08  0.10566000000E+00  0.10566000000E+00 0. -1.
     999900   -1    0    0    0    0 -0.00000000000E+00 -0.00000000000E+00 -0.74505805969E-08  0.93827000000E+00  0.93827000000E+00 0. -1.
     999902    2    1    2    0    0 -0.12342649182E-01  0.13435513772E-01  0.13037501936E-01  0.10215061182E+01  0.10212599664E+01 0.  0.
     999903    2    3    3    0    0  0.33245445486E-01 -0.52525464681E-02  0.12695024394E+00  0.13279714964E+00  0.19643564493E-01 0.  0.
         14    1    1    2    0    0  0.12342649182E-01 -0.13435513772E-01 -0.13037501936E-01  0.22423881821E-01  0.00000000000E+00 0.  1.
     999901    1    3    3    0    0 -0.45588094669E-01  0.18688060240E-01 -0.11391274200E+00  0.88870896854E+00  0.88000000000E+00 0. -1.
        -11    1    4    4    0    0  0.95078200506E-02  0.34174209381E-02  0.66651874930E-01  0.67415213125E-01  0.51100000000E-03 0. -1.
         11    1    4    4    0    0  0.23737625436E-01 -0.86699674062E-02  0.60298369011E-01  0.65381936516E-01  0.51100000000E-03 0.  1.
</event>
<event>
 7    1  0.1064839E+005  0.1043930E+01  0.7957747E-01            NaN
         13   -1    0    0    0    0  0.00000000000E+00  0.00000000000E+00  0.74505805969E-08  0.10566000000E+00  0.10566000000E+00 0.  1.
     999900   -1    0    0    0    0 -0.00000000000E+00 -0.00000000000E+00 -0.74505805969E-08  0.93827000000E+00  0.93827000000E+00 0. -1.
     999903    2    1    2    0    0 -0.23979493333E-01  0.10715052583E+00  0.44719375299E-01  0.12036526651E+00  0.20777958735E-01 0.  0.
         14    1    1    2    0    0 -0.77499409969E-02 -0.34611565642E-01 -0.17597223432E-01  0.39593993663E-01  0.00000000000E+00 0. -1.
     999901    1    1    2    0    0  0.31729434330E-01 -0.72538960187E-01 -0.27122151867E-01  0.88397073983E+00  0.88000000000E+00 0. -1.
        -11    1    3    3    0    0 -0.14705633486E-01  0.93253032904E-01  0.33240127887E-01  0.10008771665E+00  0.51100000000E-03 0. -1.
         11    1    3    3    0    0 -0.92738598466E-02  0.13897492925E-01  0.11479247413E-01  0.20277549857E-01  0.51100000000E-03 0.  1.
</event>
<event>
 8    1  0.1064839E+005  0.1043930E+01  0.7957747E-01            NaN
         13   -1    0    0    0    0  0.00000000000E+00  0.00000000000E+00  0.74505805969E-08  0.10566000000E+00  0.10566000000E+00 0. -1.
     999900   -1    0    0    0    0 -0.00000000000E+00 -0.00000000000E+00 -0.74505805969E-08  0.93827000000E+00  0.93827000000E+00 0.  1.
     999902    2    1    2    0    0 -0.48339530621E-02  0.20913624824E-01 -0.11565602685E-01  0.10195474248E+01  0.10192558273E+01 0.  0.
     999903    2    3    3    0    0  0.49037849951E-01 -0.80091886516E-01  0.83276442154E-01  0.12707933133E+00  0.19868810230E-01 0.  0.
         14    1    1    2    0    0  0.48339530621E-02 -0.20913624824E-01  0.11565602685E-01  0.24382575150E-01  0.00000000000E+00 0. -1.
     999901    1    3    3    0    0 -0.53871803014E-01  0.10100551134E+00 -0.94842044839E-01  0.89246809352E+00  0.88000000000E+00 0. -1.
        -11    1    4    4    0    0  0.43272789841E-01 -0.55340494950E-01  0.65600143966E-01  0.96118389142E-01  0.51100000000E-03 0. -1.
         11    1    4    4    0    0  0.57650601104E-02 -0.24751391566E-01  0.17676298188E-01  0.30960942188E-01  0.51100000000E-03 0.  1.
</event>
<event>
 8    1  0.1064839E+005  0.1043930E+01  0.7957747E-01            NaN
         13   -1    0    0    0    0  0.00000000000E+00  0.00000000000E+00  0.74505805969E-08  0.10566000000E+00  0.10566000000E+00 0.  1.
     999900   -1    0    0    0    0 -0.00000000000E+00 -0.00000000000E+00 -0.74505805969E-08  0.93827000000E+00  0.93827000000E+00 0. -1.
     999902    2    1    2    0    0 -0.13899153028E-01 -0.16484708869E-01  0.20999322882E-01  0.10138317668E+01  0.10133848961E+01 0.  0.
     999903    2    3    3    0    0 -0.72777812519E-01  0.61506429866E-01 -0.75443901110E-01  0.12318559140E+00  0.20081255053E-01 0.  0.
         14    1    1    2    0    0  0.13899153028E-01  0.16484708869E-01 -0.20999322882E-01  0.30098233219E-01  0.00000000000E+00 0. -1.
     999901    1    3    3    0    0  0.58878659491E-01 -0.77991138735E-01  0.96443223991E-01  0.89064617538E+00  0.88000000000E+00 0.  1.
        -11    1    4    4    0    0 -0.49446731751E-01  0.42922949371E-01 -0.39486951284E-01  0.76464627811E-01  0.51100000000E-03 0. -1.
         11    1    4    4    0    0 -0.23331080768E-01  0.18583480495E-01 -0.35956949826E-01  0.46720963591E-01  0.51100000000E-03 0.  1.
</event>
<event>
 8    1  0.1064839E+005  0.1043930E+01  0.7957747E-01            NaN
         13   -1    0    0    0    0  0.00000000000E+00  0.00000000000E+00  0.74505805969E-08  0.10566000000E+00  0.10566000000E+00 0.  1.
     999900   -1    0    0    0    0 -0.00000000000E+00 -0.00000000000E+00 -0.74505805969E-08  0.93827000000E+00  0.93827000000E+00 0.  1.
     999902    2    1    2    0    0 -0.15410792530E-01  0.15820024293E-01  0.66618257252E-02  0.10208617184E+01  0.10206010496E+01 0.  0.
     999903    2    3    3    0    0 -0.82201270127E-01  0.82355945957E-02 -0.10063975726E+00  0.13179922272E+00  0.20440169772E-01 0.  0.
         14    1    1    2    0    0  0.15410792530E-01 -0.15820024293E-01 -0.66618257252E-02  0.23068281623E-01  0.00000000000E+00 0. -1.
     999901    1    3    3    0    0  0.66790477597E-01  0.75844296973E-02  0.10730158298E+00  0.88906249566E+00  0.88000000000E+00 0. -1.
        -11    1    4    4    0    0 -0.50755591143E-01  0.13630392251E-02 -0.46716862936E-01  0.68997929764E-01  0.51100000000E-03 0. -1.
         11    1    4    4    0    0 -0.31445678984E-01  0.68725553706E-02 -0.53922894321E-01  0.62801292957E-01  0.51100000000E-03 0.  1.
</event>
<event>
 8    1  0.1064839E+005  0.1043930E+01  0.7957747E-01            NaN
         13   -1    0    0    0    0  0.00000000000E+00  0.00000000000E+00  0.74505805969E-08  0.10566000000E+00  0.10566000000E+00 0. -1.
     999900   -1    0    0    0    0 -0.00000000000E+00 -0.00000000000E+00 -0.74505805969E-08  0.93827000000E+00  0.93827000000E+00 0.  1.
     999902    2    1    2    0    0 -0.10363469272E-01 -0.87683617477E-02 -0.20488251909E-01  0.10193524873E+01  0.10190561512E+01 0.  0.
     999903    2    3    3    0    0  0.52845495469E-02 -0.95348175510E-01 -0.89455358933E-01  0.13228011908E+00  0.19405350440E-01 0.  0.
         14    1    1    2    0    0  0.10363469272E-01  0.87683617477E-02  0.20488251909E-01  0.24577512677E-01  0.00000000000E+00 0. -1.
     999901    1    3    3    0    0 -0.15648018819E-01  0.86579813763E-01  0.68967107024E-01  0.88707236824E+00  0.88000000000E+00 0. -1.
        -11    1    4    4    0    0 -0.21962519563E-02 -0.26215338900E-01 -0.14528145103E-01  0.30056540677E-01  0.51100000000E-03 0. -1.
         11    1    4    4    0    0  0.74808015032E-02 -0.69132836610E-01 -0.74927213830E-01  0.10222357841E+00  0.51100000000E-03 0.  1.
</event>
<event>
 8    1  0.1064839E+005  0.1043930E+01  0.7957747E-01            NaN
         13   -1    0    0    0    0  0.00000000000E+00  0.00000000000E+00  0.74505805969E-08  0.10566000000E+00  0.10566000000E+00 0. -1.
     999900   -1    0    0    0    0 -0.00000000000E+00 -0.00000000000E+00 -0.74505805969E-08  0.93827000000E+00  0.93827000000E+00 0.  1.
     999902    2    1    2    0    0 -0.35656002389E-02 -0.21462186333E-01  0.91075184246E-02  0.10203442874E+01  0.10200716538E+01 0.  0.
     999903    2    3    3    0    0  0.93118425997E-01  0.85921022405E-01 -0.36684724039E-02  0.12846863441E+00  0.20910977634E-01 0.  0.
         14    1    1    2    0    0  0.35656002389E-02  0.21462186333E-01 -0.91075184246E-02  0.23585712606E-01  0.00000000000E+00 0. -1.
     999901    1    3    3    0    0 -0.96684026236E-01 -0.10738320874E+00  0.12775990829E-01  0.89187565299E+00  0.88000000000E+00 0. -1.
        -11    1    4    4    0    0  0.44325974699E-01  0.35285312829E-01  0.78908043200E-02  0.57204643590E-01  0.51100000000E-03 0. -1.
         11    1    4    4    0    0  0.48792451298E-01  0.50635709576E-01 -0.11559276724E-01  0.71263990818E-01  0.51100000000E-03 0.  1.
</event>
<event>
 8    1  0.1064839E+005  0.1043930E+01  0.7957747E-01            NaN
         13   -1    0    0    0    0  0.00000000000E+00  0.00000000000E+00  0.74505805969E-08  0.10566000000E+00  0.10566000000E+00 0.  1.
     999900   -1    0    0    0    0 -0.00000000000E+00 -0.00000000000E+00 -0.74505805969E-08  0.93827000000E+00  0.93827000000E+00 0. -1.
     999902    2    1    2    0    0 -0.14995878908E-01  0.96892485388E-02  0.16027427756E-01  0.10199375770E+01  0.10196553460E+01 0.  0.
     999903    2    3    3    0    0 -0.43522034055E-03  0.74570315090E-01  0.10790961728E+00  0.13265864547E+00  0.19821942548E-01 0.  0.
         14    1    1    2    0    0  0.14995878908E-01 -0.96892485388E-02 -0.16027427756E-01  0.23992423011E-01  0.00000000000E+00 0. -1.
     999901    1    3    3    0    0 -0.14560658568E-01 -0.64881066552E-01 -0.91882189521E-01  0.88727893152E+00  0.88000000000E+00 0. -1.
        -11    1    4    4    0    0 -0.83638986820E-02  0.31746962993E-01  0.37261296474E-01  0.49663767440E-01  0.51100000000E-03 0.  1.
         11    1    4    4    0    0  0.79286783414E-02  0.42823352098E-01  0.70648320803E-01  0.82994878025E-01  0.51100000000E-03 0. -1.
</event>
<event>
 8    1  0.1064839E+005  0.1043930E+01  0.7957747E-01            NaN
         13   -1    0    0    0    0  0.00000000000E+00  0.00000000000E+00  0.74505805969E-08  0.10566000000E+00  0.10566000000E+00 0.  1.
     999900   -1    0    0    0    0 -0.00000000000E+00 -0.00000000000E+00 -0.74505805969E-08  0.93827000000E+00  0.93827000000E+00 0.  1.
     999902    2    1    2    0    0  0.61970645323E-02  0.22603231081E-01 -0.43415111705E-02  0.10200939268E+01  0.10198154055E+01 0.  0.
     999903    2    3    3    0    0 -0.10819615050E+00  0.69154519154E-01 -0.18822679047E-01  0.13135181898E+00  0.20254693309E-01 0.  0.
         14    1    1    2    0    0 -0.61970645323E-02 -0.22603231081E-01  0.43415111705E-02  0.23836073153E-01  0.00000000000E+00 0.  1.
     999901    1    3    3    0    0  0.11439321503E+00 -0.46551288073E-01  0.14481167876E-01  0.88874210786E+00  0.88000000000E+00 0.  1.
        -11    1    4    4    0    0 -0.61881357917E-01  0.51189123364E-01 -0.11056116475E-01  0.81068660041E-01  0.51100000000E-03 0.  1.
         11    1    4    4    0    0 -0.46314792583E-01  0.17965395791E-01 -0.77665625720E-02  0.50283158942E-01  0.51100000000E-03 0. -1.
</event>
<event>
 8    1  0.1064839E+005  0.1043930E+01  0.7957747E-01            NaN
         13   -1    0    0    0    0  0.00000000000E+00  0.00000000000E+00  0.74505805969E-08  0.10566000000E+00  0.10566000000E+00 0. -1.
     999900   -1    0    0    0    0 -0.00000000000E+00 -0.00000000000E+00 -0.74505805969E-08  0.93827000000E+00  0.93827000000E+00 0. -1.
     999902    2    1    2    0    0  0.14733609171E-01 -0.18613292561E-01 -0.20294115767E-02  0.10201045428E+01  0.10198262724E+01 0.  0.
     999903    2    3    3    0    0  0.11926894884E+00 -0.13018022422E-01  0.51821744493E-01  0.13226509150E+00  0.20347239672E-01 0.  0.
         14    1    1    2    0    0 -0.14733609171E-01  0.18613292561E-01  0.20294115767E-02  0.23825457194E-01  0.00000000000E+00 0.  1.
     999901    1    3    3    0    0 -0.10453533967E+00 -0.55952701390E-02 -0.53851156070E-01  0.88783945131E+00  0.88000000000E+00 0. -1.
        -11    1    4    4    0    0  0.81448083551E-01 -0.44058300138E-02  0.44045560165E-01  0.92700993218E-01  0.51100000000E-03 0.  1.
         11    1    4    4    0    0  0.37820865287E-01 -0.86121924078E-02  0.77761843274E-02  0.39564098281E-01  0.51100000000E-03 0. -1.
</event>
<event>
 8    1  0.1064839E+005  0.1043930E+01  0.7957747E-01            NaN
         13   -1    0    0    0    0  0.00000000000E+00  0.00000000000E+00  0.74505805969E-08  0.10566000000E+00  0.10566000000E+00 0. -1.
     999900   -1    0    0    0    0 -0.00000000000E+00 -0.00000000000E+00 -0.74505805969E-08  0.93827000000E+00  0.93827000000E+00 0. -1.
     999902    2    1    2    0    0  0.70010409744E-03  0.33869426510E-01  0.38119616524E-02  0.10098395431E+01  0.10092639613E+01 0.  0.
     999903    2    3    3    0    0  0.38599275580E-01  0.11017975288E+00 -0.39330128533E-01  0.12467241029E+00  0.19153821007E-01 0.  0.
         14    1    1    2    0    0 -0.70010409744E-03 -0.33869426510E-01 -0.38119616524E-02  0.34090456869E-01  0.00000000000E+00 0.  1.
     999901    1    3    3    0    0 -0.37899171482E-01 -0.76310326365E-01  0.43142090185E-01  0.88516713284E+00  0.88000000000E+00 0.  1.
        -11    1    4    4    0    0  0.23223273230E-01  0.38264513677E-01 -0.14712755724E-01  0.47119207638E-01  0.51100000000E-03 0.  1.
         11    1    4    4    0    0  0.15376002350E-01  0.71915239198E-01 -0.24617372809E-01  0.77553202656E-01  0.51100000000E-03 0. -1.
</event>
<event>
 8    1  0.1064839E+005  0.1043930E+01  0.7957747E-01            NaN
         13   -1    0    0    0    0  0.00000000000E+00  0.00000000000E+00  0.74505805969E-08  0.10566000000E+00  0.10566000000E+00 0.  1.
     999900   -1    0    0    0    0 -0.00000000000E+00 -0.00000000000E+00 -0.74505805969E-08  0.93827000000E+00  0.93827000000E+00 0. -1.
     999902    2    1    2    0    0 -0.12831488577E-01  0.14216539085E-01  0.16723755931E-01  0.10185047941E+01  0.10181873966E+01 0.  0.
     999903    2    3    3    0    0 -0.16339987722E-01  0.26798145259E-01  0.12605254464E+00  0.13164325450E+00  0.21344007534E-01 0.  0.
         14    1    1    2    0    0  0.12831488577E-01 -0.14216539085E-01 -0.16723755931E-01  0.25425205901E-01  0.00000000000E+00 0. -1.
     999901    1    3    3    0    0  0.35084991452E-02 -0.12581606173E-01 -0.10932878871E+00  0.88686153960E+00  0.88000000000E+00 0. -1.
        -11    1    4    4    0    0 -0.16775408817E-01  0.11287909750E-01  0.48437691437E-01  0.52490973703E-01  0.51100000000E-03 0.  1.
         11    1    4    4    0    0  0.43542109475E-03  0.15510235509E-01  0.77614853200E-01  0.79152280797E-01  0.51100000000E-03 0. -1.
</event>
<event>
 8    1  0.1064839E+005  0.1043930E+01  0.7957747E-01            NaN
         13   -1    0    0    0    0  0.00000000000E+00  0.00000000000E+00  0.74505805969E-08  0.10566000000E+00  0.10566000000E+00 0. -1.
     999900   -1    0    0    0    0 -0.00000000000E+00 -0.00000000000E+00 -0.74505805969E-08  0.93827000000E+00  0.93827000000E+00 0.  1.
     999902    2    1    2    0    0 -0.80576917108E-02 -0.22084314682E-01  0.54645187675E-02  0.10197948738E+01  0.10195092350E+01 0.  0.
     999903    2    3    3    0    0 -0.67710968542E-01 -0.57261368839E-01 -0.94773306400E-01  0.13140106464E+00  0.20509036091E-01 0.  0.
         14    1    1    2    0    0  0.80576917108E-02  0.22084314682E-01 -0.54645187675E-02  0.24135126187E-01  0.00000000000E+00 0.  1.
     999901    1    3    3    0    0  0.59653276831E-01  0.35177054157E-01  0.10023782517E+00  0.88839380917E+00  0.88000000000E+00 0. -1.
        -11    1    4    4    0    0 -0.28628530622E-01 -0.15060407099E-01 -0.44431711755E-01  0.54962230286E-01  0.51100000000E-03 0.  1.
         11    1    4    4    0    0 -0.39082437919E-01 -0.42200961740E-01 -0.50341594645E-01  0.76438834358E-01  0.51100000000E-03 0. -1.
</event>
<event>
 8    1  0.1064839E+005  0.1043930E+01  0.7957747E-01            NaN
         13   -1    0    0    0    0  0.00000000000E+00  0.00000000000E+00  0.74505805969E-08  0.10566000000E+00  0.10566000000E+00 0. -1.
     999900   -1    0    0    0    0 -0.00000000000E+00 -0.00000000000E+00 -0.74505805969E-08  0.93827000000E+00  0.93827000000E+00 0. -1.
     999902    2    1    2    0    0  0.11455300595E-01  0.50601185582E-02 -0.20326046420E-01  0.10200558115E+01  0.10197763881E+01 0.  0.
     999903    2    3    3    0    0  0.10938848434E+00 -0.16664601405E-01 -0.71060342971E-01  0.13290484311E+00  0.19250338497E-01 0.  0.
         14    1    1    2    0    0 -0.11455300595E-01 -0.50601185582E-02  0.20326046420E-01  0.23874188460E-01  0.00000000000E+00 0. -1.
     999901    1    3    3    0    0 -0.97933183750E-01  0.21724719963E-01  0.50734296550E-01  0.88715096843E+00  0.88000000000E+00 0.  1.
        -11    1    4    4    0    0  0.36359231840E-01 -0.10112195213E-02 -0.14265476445E-01  0.39074048218E-01  0.51100000000E-03 0. -1.
         11    1    4    4    0    0  0.73029252504E-01 -0.15653381884E-01 -0.56794866525E-01  0.93830794893E-01  0.51100000000E-03 0.  1.
</event>
<event>
 8    1  0.1064839E+005  0.1043930E+01  0.7957747E-01            NaN
         13   -1    0    0    0    0  0.00000000000E+00  0.00000000000E+00  0.74505805969E-08  0.10566000000E+00  0.10566000000E+00 0. -1.
     999900   -1    0    0    0    0 -0.00000000000E+00 -0.00000000000E+00 -0.74505805969E-08  0.93827000000E+00  0.93827000000E+00 0.  1.
     999902    2    1    2    0    0 -0.23590826586E-01  0.97369312492E-04  0.10020818674E-02  0.10203176992E+01  0.10200444434E+01 0.  0.
     999903    2    3    3    0    0 -0.49741259476E-02  0.96951226609E-01 -0.85027450605E-01  0.13063891917E+00  0.20312005729E-01 0.  0.
         14    1    1    2    0    0  0.23590826586E-01 -0.97369312492E-04 -0.10020818674E-02  0.23612300775E-01  0.00000000000E+00 0.  1.
     999901    1    3    3    0    0 -0.18616700639E-01 -0.96853857296E-01  0.86029532472E-01  0.88967878005E+00  0.88000000000E+00 0. -1.
        -11    1    4    4    0    0  0.23283450634E-02  0.61548954841E-01 -0.42563055264E-01  0.74870353459E-01  0.51100000000E-03 0. -1.
         11    1    4    4    0    0 -0.73024710109E-02  0.35402271768E-01 -0.42464395341E-01  0.55768565715E-01  0.51100000000E-03 0.  1.
</event>
<event>
 8    1  0.1064839E+005  0.1043930E+01  0.7957747E-01            NaN
         13   -1    0    0    0    0  0.00000000000E+00  0.00000000000E+00  0.74505805969E-08  0.10566000000E+00  0.10566000000E+00 0.  1.
     999900   -1    0    0    0    0 -0.00000000000E+00 -0.00000000000E+00 -0.74505805969E-08  0.93827000000E+00  0.93827000000E+00 0. -1.
     999902    2    1    2    0    0  0.21498889189E-01  0.46407964543E-02  0.11897358997E-01  0.10189242731E+01  0.10186173903E+01 0.  0.
     999903    2    3    3    0    0  0.45077202611E-01 -0.11256423708E+00 -0.40177100120E-01  0.12931497341E+00  0.20137063070E-01 0.  0.
         14    1    1    2    0    0 -0.21498889189E-01 -0.46407964543E-02 -0.11897358997E-01  0.25005726928E-01  0.00000000000E+00 0. -1.
     999901    1    3    3    0    0 -0.23578313422E-01  0.11720503354E+00  0.52074459116E-01  0.88960929966E+00  0.88000000000E+00 0.  1.
        -11    1    4    4    0    0  0.15629040382E-01 -0.47728066047E-01 -0.68479024920E-02  0.50689151516E-01  0.51100000000E-03 0.  1.
         11    1    4    4    0    0  0.29448162229E-01 -0.64836171036E-01 -0.33329197628E-01  0.78625821896E-01  0.51100000000E-03 0. -1.
</event>
<event>
 8    1  0.1064839E+005  0.1043930E+01  0.7957747E-01            NaN
         13   -1    0    0    0    0  0.00000000000E+00  0.00000000000E+00  0.74505805969E-08  0.10566000000E+00  0.10566000000E+00 0. -1.
     999900   -1    0    0    0    0 -0.00000000000E+00 -0.00000000000E+00 -0.74505805969E-08  0.93827000000E+00  0.93827000000E+00 0.  1.
     999902    2    1    2    0    0 -0.11035487541E-01 -0.10673884669E-01  0.18259679596E-01  0.10200735607E+01  0.10197945575E+01 0.  0.
     999903    2    3    3    0    0 -0.29068864835E-01  0.12435033030E+00  0.96160778322E-02  0.12955042610E+00  0.19566307821E-01 0.  0.
         14    1    1    2    0    0  0.11035487541E-01  0.10673884669E-01 -0.18259679596E-01  0.23856439343E-01  0.00000000000E+00 0.  1.
     999901    1    3    3    0    0  0.18033377293E-01 -0.13502421497E+00  0.86436017637E-02  0.89052313455E+00  0.88000000000E+00 0.  1.
        -11    1    4    4    0    0 -0.23874998629E-01  0.91577610789E-01  0.15338653330E-01  0.95874969436E-01  0.51100000000E-03 0. -1.
         11    1    4    4    0    0 -0.51938662060E-02  0.32772719511E-01 -0.57225754983E-02  0.33675456666E-01  0.51100000000E-03 0.  1.
</event>
<event>
 8    1  0.1064839E+005  0.1043930E+01  0.7957747E-01            NaN
         13   -1    0    0    0    0  0.00000000000E+00  0.00000000000E+00  0.74505805969E-08  0.10566000000E+00  0.10566000000E+00 0.  1.
     999900   -1    0    0    0    0 -0.00000000000E+00 -0.00000000000E+00 -0.74505805969E-08  0.93827000000E+00  0.93827000000E+00 0.  1.
     999902    2    1    2    0    0  0.11419524858E-01  0.18746937228E-01  0.74132348722E-02  0.10207608555E+01  0.10204978760E+01 0.  0.
     999903    2    3    3    0    0  0.77656497526E-01  0.59850557352E-01  0.88445035090E-01  0.13360641759E+00  0.20384547247E-01 0.  0.
         14    1    1    2    0    0 -0.11419524858E-01 -0.18746937228E-01 -0.74132348722E-02  0.23169144453E-01  0.00000000000E+00 0. -1.
     999901    1    3    3    0    0 -0.66236972669E-01 -0.41103620124E-01 -0.81031800218E-01  0.88715443795E+00  0.88000000000E+00 0.  1.
        -11    1    4    4    0    0  0.65211273970E-01  0.46416575594E-01  0.61136115126E-01  0.10072186672E+00  0.51100000000E-03 0.  1.
         11    1    4    4    0    0  0.12445223556E-01  0.13433981758E-01  0.27308919964E-01  0.32884550869E-01  0.51100000000E-03 0. -1.
</event>
<event>
 8    1  0.1064839E+005  0.1043930E+01  0.7957747E-01            NaN
         13   -1    0    0    0    0  0.00000000000E+00  0.00000000000E+00  0.74505805969E-08  0.10566000000E+00  0.10566000000E+00 0.  1.
     999900   -1    0    0    0    0 -0.00000000000E+00 -0.00000000000E+00 -0.74505805969E-08  0.93827000000E+00  0.93827000000E+00 0.  1.
     999902    2    1    2    0    0  0.20991684341E-02  0.62957736984E-02  0.23314932267E-01  0.10196889328E+01  0.10194007506E+01 0.  0.
     999903    2    3    3    0    0  0.71919012638E-01  0.31753804226E-02  0.10968599887E+00  0.13270273859E+00  0.19914092005E-01 0.  0.
         14    1    1    2    0    0 -0.20991684341E-02 -0.62957736984E-02 -0.23314932267E-01  0.24241067246E-01  0.00000000000E+00 0. -1.
     999901    1    3    3    0    0 -0.69819844204E-01  0.31203932758E-02 -0.86371066603E-01  0.88698619417E+00  0.88000000000E+00 0.  1.
        -11    1    4    4    0    0  0.24317076025E-01  0.82824418945E-02  0.49733935879E-01  0.55978965060E-01  0.51100000000E-03 0.  1.
         11    1    4    4    0    0  0.47601936613E-01 -0.51070614719E-02  0.59952062991E-01  0.76723773526E-01  0.51100000000E-03 0. -1.
</event>
<event>
 8    1  0.1064839E+005  0.1043930E+01  0.7957747E-01            NaN
         13   -1    0    0    0    0  0.00000000000E+00  0.00000000000E+00  0.74505805969E-08  0.10566000000E+00  0.10566000000E+00 0. -1.
     999900   -1    0    0    0    0 -0.00000000000E+00 -0.00000000000E+00 -0.74505805969E-08  0.93827000000E+00  0.93827000000E+00 0. -1.
     999902    2    1    2    0    0 -0.27334853485E-02  0.18538914856E-01 -0.85175275687E-03  0.10251713010E+01  0.10249996622E+01 0.  0.
     999903    2    3    3    0    0  0.10901573880E+00  0.78969008129E-01  0.96631208203E-03  0.13604645562E+00  0.19676604819E-01 0.  0.
         14    1    1    2    0    0  0.27334853485E-02 -0.18538914856E-01  0.85175275687E-03  0.18758699021E-01  0.00000000000E+00 0. -1.
     999901    1    3    3    0    0 -0.11174922415E+00 -0.60430093273E-01 -0.18180648389E-02  0.88912484536E+00  0.88000000000E+00 0. -1.
        -11    1    4    4    0    0  0.95154011565E-02  0.92437616109E-03  0.52083239157E-03  0.95879986356E-02  0.51100000000E-03 0. -1.
         11    1    4    4    0    0  0.99500337645E-01  0.78044631968E-01  0.44547969046E-03  0.12645845699E+00  0.51100000000E-03 0.  1.
</event>
<event>
 8    1  0.1064839E+005  0.1043930E+01  0.7957747E-01            NaN
         13   -1    0    0    0    0  0.00000000000E+00  0.00000000000E+00  0.74505805969E-08  0.10566000000E+00  0.10566000000E+00 0. -1.
     999900   -1    0    0    0    0 -0.00000000000E+00 -0.00000000000E+00 -0.74505805969E-08  0.93827000000E+00  0.93827000000E+00 0.  1.
     999902    2    1    2    0    0  0.88933335676E-02  0.19119624532E-01  0.69731308277E-02  0.10217201829E+01  0.10214787595E+01 0.  0.
     999903    2    3    3    0    0 -0.20008239098E-01  0.10476939305E+00 -0.77124534191E-01  0.13310125383E+00  0.19768526628E-01 0.  0.
         14    1    1    2    0    0 -0.88933335676E-02 -0.19119624532E-01 -0.69731308277E-02  0.22209817148E-01  0.00000000000E+00 0. -1.
     999901    1    3    3    0    0  0.28901572665E-01 -0.85649768522E-01  0.84097665018E-01  0.88861892902E+00  0.88000000000E+00 0. -1.
        -11    1    4    4    0    0  0.29125785095E-02  0.33014671594E-01 -0.24097435921E-01  0.40980473313E-01  0.51100000000E-03 0.  1.
         11    1    4    4    0    0 -0.22920817607E-01  0.71754721460E-01 -0.53027098270E-01  0.92120780520E-01  0.51100000000E-03 0. -1.
</event>
<event>
 8    1  0.1064839E+005  0.1043930E+01  0.7957747E-01            NaN
         13   -1    0    0    0    0  0.00000000000E+00  0.00000000000E+00  0.74505805969E-08  0.10566000000E+00  0.10566000000E+00 0. -1.
     999900   -1    0    0    0    0 -0.00000000000E+00 -0.00000000000E+00 -0.74505805969E-08  0.93827000000E+00  0.93827000000E+00 0. -1.
     999902    2    1    2    0    0  0.18790712166E-01 -0.11023036689E-01  0.12078124538E-01  0.10190205782E+01  0.10187160839E+01 0.  0.
     999903    2    3    3    0    0 -0.70002973523E-01  0.51805908760E-01 -0.89580339730E-01  0.12651498251E+00  0.19928247489E-01 0.  0.
         14    1    1    2    0    0 -0.18790712166E-01  0.11023036689E-01 -0.12078124538E-01  0.24909421790E-01  0.00000000000E+00 0.  1.
     999901    1    3    3    0    0  0.88793685689E-01 -0.62828945449E-01  0.10165846427E+00  0.89250559570E+00  0.88000000000E+00 0.  1.
        -11    1    4    4    0    0 -0.37332280306E-01  0.29383197728E-01 -0.62538815842E-01  0.78539391833E-01  0.51100000000E-03 0.  1.
         11    1    4    4    0    0 -0.32670693217E-01  0.22422711032E-01 -0.27041523888E-01  0.47975590674E-01  0.51100000000E-03 0. -1.
</event>
<event>
 8    1  0.1064839E+005  0.1043930E+01  0.7957747E-01            NaN
         13   -1    0    0    0    0  0.00000000000E+00  0.00000000000E+00  0.74505805969E-08  0.10566000000E+00  0.10566000000E+00 0. -1.
     999900   -1    0    0    0    0 -0.00000000000E+00 -0.00000000000E+00 -0.74505805969E-08  0.93827000000E+00  0.93827000000E+00 0. -1.
     999902    2    1    2    0    0  0.15858703406E-01  0.14454585685E-01 -0.88587568596E-02  0.10207155413E+01  0.10204515202E+01 0.  0.
     999903    2    3    3    0    0  0.31910728729E-01 -0.45944140872E-01  0.11537753286E+00  0.12979448451E+00  0.20136395732E-01 0.  0.
         14    1    1    2    0    0 -0.15858703406E-01 -0.14454585685E-01  0.88587568596E-02  0.23214458731E-01  0.00000000000E+00 0. -1.
     999901    1    3    3    0    0 -0.16052025323E-01  0.60398726557E-01 -0.12423628972E+00  0.89092105676E+00  0.88000000000E+00 0.  1.
        -11    1    4    4    0    0 -0.28193103559E-02 -0.49781484344E-02  0.11177216810E-01  0.12566692856E-01  0.51100000000E-03 0.  1.
         11    1    4    4    0    0  0.34730039085E-01 -0.40965992437E-01  0.10420031605E+00  0.11722779166E+00  0.51100000000E-03 0. -1.
</event>
<event>
 8    1  0.1064839E+005  0.1043930E+01  0.7957747E-01            NaN
         13   -1    0    0    0    0  0.00000000000E+00  0.00000000000E+00  0.74505805969E-08  0.10566000000E+00  0.10566000000E+00 0.  1.
     999900   -1    0    0    0    0 -0.00000000000E+00 -0.00000000000E+00 -0.74505805969E-08  0.93827000000E+00  0.93827000000E+00 0.  1.
     999902    2    1    2    0    0 -0.13676799970E-01  0.14225291412E-01 -0.82957817833E-03  0.10241790007E+01  0.10239885368E+01 0.  0.
     999903    2    3    3    0    0 -0.11944688875E+00 -0.14235098268E-01 -0.59197044775E-01  0.13546978695E+00  0.19431310082E-01 0.  0.
         14    1    1    2    0    0  0.13676799970E-01 -0.14225291412E-01  0.82957817833E-03  0.19750999295E-01  0.00000000000E+00 0.  1.
     999901    1    3    3    0    0  0.10577008878E+00  0.28460389680E-01  0.58367466597E-01  0.88870921376E+00  0.88000000000E+00 0. -1.
        -11    1    4    4    0    0 -0.58778637346E-01  0.21171168544E-02 -0.32472693520E-01  0.67187404604E-01  0.51100000000E-03 0.  1.
         11    1    4    4    0    0 -0.60668251401E-01 -0.16352215123E-01 -0.26724351255E-01  0.68282382344E-01  0.51100000000E-03 0. -1.
</event>
<event>
 8    1  0.1064839E+005  0.1043930E+01  0.7957747E-01            NaN
         13   -1    0    0    0    0  0.00000000000E+00  0.00000000000E+00  0.74505805969E-08  0.10566000000E+00  0.10566000000E+00 0. -1.
     999900   -1    0    0    0    0 -0.00000000000E+00 -0.00000000000E+00 -0.74505805969E-08  0.93827000000E+00  0.93827000000E+00 0.  1.
     999902    2    1    2    0    0 -0.30600901025E-03  0.66649557144E-02 -0.22326871676E-01  0.10206275436E+01  0.10203614939E+01 0.  0.
     999903    2    3    3    0    0 -0.28691906144E-01 -0.12518618278E+00 -0.73436935934E-02  0.13022596143E+00  0.20250070567E-01 0.  0.
         14    1    1    2    0    0  0.30600901025E-03 -0.66649557144E-02  0.22326871676E-01  0.23302456416E-01  0.00000000000E+00 0. -1.
     999901    1    3    3    0    0  0.28385897134E-01  0.13185113849E+00 -0.14983178083E-01  0.89040158215E+00  0.88000000000E+00 0.  1.
        -11    1    4    4    0    0 -0.22127211884E-01 -0.62047928949E-01 -0.10294190554E-01  0.66676761115E-01  0.51100000000E-03 0. -1.
         11    1    4    4    0    0 -0.65646942596E-02 -0.63138253828E-01  0.29504969605E-02  0.63549200314E-01  0.51100000000E-03 0.  1.
</event>
<event>
 8    1  0.1064839E+005  0.1043930E+01  0.7957747E-01            NaN
         13   -1    0    0    0    0  0.00000000000E+00  0.00000000000E+00  0.74505805969E-08  0.10566000000E+00  0.10566000000E+00 0. -1.
     999900   -1    0    0    0    0 -0.00000000000E+00 -0.00000000000E+00 -0.74505805969E-08  0.93827000000E+00  0.93827000000E+00 0. -1.
     999902    2    1    2    0    0 -0.11342202730E-01 -0.34205589701E-02 -0.19496990955E-01  0.10211160034E+01  0.10208611139E+01 0.  0.
     999903    2    3    3    0    0  0.20044408015E-01  0.10862057150E+00  0.64567258156E-01  0.12948540035E+00  0.19933169146E-01 0.  0.
         14    1    1    2    0    0  0.11342202730E-01  0.34205589701E-02  0.19496990955E-01  0.22813996641E-01  0.00000000000E+00 0. -1.
     999901    1    3    3    0    0 -0.31386610745E-01 -0.11204113047E+00 -0.84064249111E-01  0.89163060301E+00  0.88000000000E+00 0. -1.
        -11    1    4    4    0    0  0.15977049375E-01  0.50249726090E-01  0.39216857520E-01  0.65715478493E-01  0.51100000000E-03 0.  1.
         11    1    4    4    0    0  0.40673586399E-02  0.58370845406E-01  0.25350400637E-01  0.63769921853E-01  0.51100000000E-03 0. -1.
</event>
<event>
 8    1  0.1064839E+005  0.1043930E+01  0.7957747E-01            NaN
         13   -1    0    0    0    0  0.00000000000E+00  0.00000000000E+00  0.74505805969E-08  0.10566000000E+00  0.10566000000E+00 0.  1.
     999900   -1    0    0    0    0 -0.00000000000E+00 -0.00000000000E+00 -0.74505805969E-08  0.93827000000E+00  0.93827000000E+00 0. -1.
     999902    2    1    2    0    0 -0.11684948793E-01  0.18796854252E-01 -0.68324822887E-02  0.10207666114E+01  0.10205037640E+01 0.  0.
     999903    2    3    3    0    0 -0.80725396294E-02 -0.72975047911E-01 -0.10593634251E+00  0.13045390978E+00  0.20129341745E-01 0.  0.
         14    1    1    2    0    0  0.11684948793E-01 -0.18796854252E-01  0.68324822887E-02  0.23163388619E-01  0.00000000000E+00 0.  1.
     999901    1    3    3    0    0 -0.36124091640E-02  0.91771902163E-01  0.99103860217E-01  0.89031270160E+00  0.88000000000E+00 0.  1.
        -11    1    4    4    0    0 -0.43430684815E-02 -0.38095256918E-01 -0.37950871395E-01  0.53950353142E-01  0.51100000000E-03 0.  1.
         11    1    4    4    0    0 -0.37294711479E-02 -0.34879790992E-01 -0.67985471111E-01  0.76503556636E-01  0.51100000000E-03 0. -1.
</event>
<event>
 8    1  0.1064839E+005  0.1043930E+01  0.7957747E-01            NaN
         13   -1    0    0    0    0  0.00000000000E+00  0.00000000000E+00  0.74505805969E-08  0.10566000000E+00  0.10566000000E+00 0.  1.
     999900   -1    0    0    0    0 -0.00000000000E+00 -0.00000000000E+00 -0.74505805969E-08  0.93827000000E+00  0.93827000000E+00 0.  1.
     999902    2    1    2    0    0  0.18519842708E-01  0.72764339778E-02 -0.12426249017E-01  0.10204706153E+01  0.10202009282E+01 0.  0.
     999903    2    3    3    0    0  0.45927466836E-01 -0.93134170557E-01 -0.78728695820E-01  0.13185963079E+00  0.20135758009E-01 0.  0.
         14    1    1    2    0    0 -0.18519842708E-01 -0.72764339778E-02  0.12426249017E-01  0.23459384690E-01  0.00000000000E+00 0. -1.
     999901    1    3    3    0    0 -0.27407624127E-01  0.10041060453E+00  0.66302446803E-01  0.88861098452E+00  0.88000000000E+00 0. -1.
        -11    1    4    4    0    0  0.33341183745E-01 -0.65987104663E-01 -0.44085196587E-01  0.86079603823E-01  0.51100000000E-03 0. -1.
         11    1    4    4    0    0  0.12586283091E-01 -0.27147065894E-01 -0.34643499233E-01  0.45780026964E-01  0.51100000000E-03 0.  1.
</event>
<event>
 8    1  0.1064839E+005  0.1043930E+01  0.7957747E-01            NaN
         13   -1    0    0    0    0  0.00000000000E+00  0.00000000000E+00  0.74505805969E-08  0.10566000000E+00  0.10566000000E+00 0. -1.
     999900   -1    0    0    0    0 -0.00000000000E+00 -0.00000000000E+00 -0.74505805969E-08  0.93827000000E+00  0.93827000000E+00 0. -1.
     999902    2    1    2    0    0 -0.36954972103E-02 -0.84828625225E-02  0.21809107694E-01  0.10202392247E+01  0.10199641282E+01 0.  0.
     999903    2    3    3    0    0  0.79327453921E-01 -0.32219000095E-01  0.99275566599E-01  0.13262598296E+00  0.20077458014E-01 0.  0.
         14    1    1    2    0    0  0.36954972103E-02  0.84828625225E-02 -0.21809107694E-01  0.23690775306E-01  0.00000000000E+00 0.  1.
     999901    1    3    3    0    0 -0.83022951132E-01  0.23736137573E-01 -0.77466458905E-01  0.88761324173E+00  0.88000000000E+00 0. -1.
        -11    1    4    4    0    0  0.18464070395E-01 -0.17190274302E-01  0.27316579839E-01  0.37187149410E-01  0.51100000000E-03 0. -1.
         11    1    4    4    0    0  0.60863383527E-01 -0.15028725793E-01  0.71958986760E-01  0.95438833553E-01  0.51100000000E-03 0.  1.
</event>
<event>
 8    1  0.1064839E+005  0.1043930E+01  0.7957747E-01            NaN
         13   -1    0    0    0    0  0.00000000000E+00  0.00000000000E+00  0.74505805969E-08  0.10566000000E+00  0.10566000000E+00 0.  1.
     999900   -1    0    0    0    0 -0.00000000000E+00 -0.00000000000E+00 -0.74505805969E-08  0.93827000000E+00  0.93827000000E+00 0. -1.
     999902    2    1    2    0    0  0.14001449305E-01  0.60857832001E-04 -0.18725001844E-01  0.10205490252E+01  0.10202811588E+01 0.  0.
     999903    2    3    3    0    0 -0.88333978243E-01 -0.67950810068E-01 -0.66440761494E-01  0.13073167297E+00  0.16005974743E-01 0.  0.
         14    1    1    2    0    0 -0.14001449305E-01 -0.60857832001E-04  0.18725001844E-01  0.23380974753E-01  0.00000000000E+00 0.  1.
     999901    1    3    3    0    0  0.10233542755E+00  0.68011667900E-01  0.47715759650E-01  0.88981735228E+00  0.88000000000E+00 0.  1.
        -11    1    4    4    0    0 -0.70233453628E-01 -0.59706554199E-01 -0.59214695023E-01  0.10956391674E+00  0.51100000000E-03 0. -1.
         11    1    4    4    0    0 -0.18100524615E-01 -0.82442558689E-02 -0.72260664705E-02  0.21167756230E-01  0.51100000000E-03 0.  1.
</event>
<event>
 8    1  0.1064839E+005  0.1043930E+01  0.7957747E-01            NaN
         13   -1    0    0    0    0  0.00000000000E+00  0.00000000000E+00  0.74505805969E-08  0.10566000000E+00  0.10566000000E+00 0. -1.
     999900   -1    0    0    0    0 -0.00000000000E+00 -0.00000000000E+00 -0.74505805969E-08  0.93827000000E+00  0.93827000000E+00 0. -1.
     999902    2    1    2    0    0  0.17744149705E-01  0.17208657400E-01  0.79447384720E-02  0.10179663406E+01  0.10176351797E+01 0.  0.
     999903    2    3    3    0    0  0.56038500089E-01 -0.10962276669E+00 -0.25850955235E-01  0.12740763043E+00  0.20173446297E-01 0.  0.
         14    1    1    2    0    0 -0.17744149705E-01 -0.17208657400E-01 -0.79447384720E-02  0.25963659365E-01  0.00000000000E+00 0.  1.
     999901    1    3    3    0    0 -0.38294350384E-01  0.12683142409E+00  0.33795693707E-01  0.89055871020E+00  0.88000000000E+00 0.  1.
        -11    1    4    4    0    0  0.43323376160E-01 -0.65825816226E-01 -0.11795811012E-01  0.79682841831E-01  0.51100000000E-03 0.  1.
         11    1    4    4    0    0  0.12715123929E-01 -0.43796950467E-01 -0.14055144222E-01  0.47724788599E-01  0.51100000000E-03 0. -1.
</event>
<event>
 8    1  0.1064839E+005  0.1043930E+01  0.7957747E-01            NaN
         13   -1    0    0    0    0  0.00000000000E+00  0.00000000000E+00  0.74505805969E-08  0.10566000000E+00  0.10566000000E+00 0. -1.
     999900   -1    0    0    0    0 -0.00000000000E+00 -0.00000000000E+00 -0.74505805969E-08  0.93827000000E+00  0.93827000000E+00 0.  1.
     999902    2    1    2    0    0 -0.17358698576E-01  0.79403144418E-03  0.16456133207E-01  0.10199976114E+01  0.10197168078E+01 0.  0.
     999903    2    3    3    0    0 -0.10686150189E+00  0.24178677295E-02 -0.73201105374E-01  0.13092404357E+00  0.18907053909E-01 0.  0.
         14    1    1    2    0    0  0.17358698576E-01 -0.79403144418E-03 -0.16456133207E-01  0.23932388562E-01  0.00000000000E+00 0.  1.
     999901    1    3    3    0    0  0.89502803312E-01 -0.16238362853E-02  0.89657238581E-01  0.88907356786E+00  0.88000000000E+00 0. -1.
        -11    1    4    4    0    0 -0.87590349241E-01  0.89049503180E-02 -0.62211943214E-01  0.10780516880E+00  0.51100000000E-03 0. -1.
         11    1    4    4    0    0 -0.19271152647E-01 -0.64870825885E-02 -0.10989162160E-01  0.23118874774E-01  0.51100000000E-03 0.  1.
</event>
<event>
 8    1  0.1064839E+005  0.1043930E+01  0.7957747E-01            NaN
         13   -1    0    0    0    0  0.00000000000E+00  0.00000000000E+00  0.74505805969E-08  0.10566000000E+00  0.10566000000E+00 0.  1.
     999900   -1    0    0    0    0 -0.00000000000E+00 -0.00000000000E+00 -0.74505805969E-08  0.93827000000E+00  0.93827000000E+00 0.  1.
     999902    2    1    2    0    0 -0.17717775665E-01  0.19973983537E-01  0.30266028471E-02  0.10170591995E+01  0.10167041730E+01 0.  0.
     999903    2    3    3    0    0 -0.75809006959E-01 -0.94876069302E-01  0.31961348172E-01  0.12722643700E+00  0.20409910165E-01 0.  0.
         14    1    1    2    0    0  0.17717775665E-01 -0.19973983537E-01 -0.30266028471E-02  0.26870800465E-01  0.00000000000E+00 0. -1.
     999901    1    3    3    0    0  0.58091231295E-01  0.11485005284E+00 -0.28934745325E-01  0.88983276253E+00  0.88000000000E+00 0.  1.
        -11    1    4    4    0    0 -0.24601959320E-01 -0.34055795356E-01  0.13751364352E-02  0.42038146021E-01  0.51100000000E-03 0.  1.
         11    1    4    4    0    0 -0.51207047639E-01 -0.60820273946E-01  0.30586211736E-01  0.85188290980E-01  0.51100000000E-03 0. -1.
</event>
<event>
 8    1  0.1064839E+005  0.1043930E+01  0.7957747E-01            NaN
         13   -1    0    0    0    0  0.00000000000E+00  0.00000000000E+00  0.74505805969E-08  0.10566000000E+00  0.10566000000E+00 0. -1.
     999900   -1    0    0    0    0 -0.00000000000E+00 -0.00000000000E+00 -0.74505805969E-08  0.93827000000E+00  0.93827000000E+00 0.  1.
     999902    2    1    2    0    0 -0.80645551155E-02  0.49285653353E-05  0.21957708626E-01  0.10205381629E+01  0.10202700446E+01 0.  0.
     999903    2    3    3    0    0  0.11130821543E+00 -0.63698756838E-01 -0.43234946401E-02  0.12980884404E+00  0.19611041250E-01 0.  0.
         14    1    1    2    0    0  0.80645551155E-02 -0.49285653353E-05 -0.21957708626E-01  0.23391837073E-01  0.00000000000E+00 0.  1.
     999901    1    3    3    0    0 -0.11937277055E+00  0.63703685403E-01  0.26281203267E-01  0.89072931889E+00  0.88000000000E+00 0.  1.
        -11    1    4    4    0    0  0.69176538705E-01 -0.44048487968E-01  0.58394947299E-02  0.82219362800E-01  0.51100000000E-03 0.  1.
         11    1    4    4    0    0  0.42131676729E-01 -0.19650268870E-01 -0.10162989370E-01  0.47589481239E-01  0.51100000000E-03 0. -1.
</event>
<event>
 8    1  0.1064839E+005  0.1043930E+01  0.7957747E-01            NaN
         13   -1    0    0    0    0  0.00000000000E+00  0.00000000000E+00  0.74505805969E-08  0.10566000000E+00  0.10566000000E+00 0.  1.
     999900   -1    0    0    0    0 -0.00000000000E+00 -0.00000000000E+00 -0.74505805969E-08  0.93827000000E+00  0.93827000000E+00 0. -1.
     999902    2    1    2    0    0 -0.12817440699E-01  0.11008984999E-01  0.19145757169E-01  0.10183948369E+01  0.10180746531E+01 0.  0.
     999903    2    3    3    0    0 -0.10598257062E+00  0.68058850449E-01 -0.30086289481E-01  0.13027422404E+00  0.14208315634E-01 0.  0.
         14    1    1    2    0    0  0.12817440699E-01 -0.11008984999E-01 -0.19145757169E-01  0.25535163096E-01  0.00000000000E+00 0. -1.
     999901    1    3    3    0    0  0.93165129925E-01 -0.57049865450E-01  0.49232046650E-01  0.88812061287E+00  0.88000000000E+00 0. -1.
        -11    1    4    4    0    0 -0.81512135377E-01  0.55678181017E-01 -0.18189011487E-01  0.10037623880E+00  0.51100000000E-03 0. -1.
         11    1    4    4    0    0 -0.24470435247E-01  0.12380669432E-01 -0.11897277994E-01  0.29897985240E-01  0.51100000000E-03 0.  1.
</event>
<event>
 8    1  0.1064839E+005  0.1043930E+01  0.7957747E-01            NaN
         13   -1    0    0    0    0  0.00000000000E+00  0.00000000000E+00  0.74505805969E-08  0.10566000000E+00  0.10566000000E+00 0. -1.
     999900   -1    0    0    0    0 -0.00000000000E+00 -0.00000000000E+00 -0.74505805969E-08  0.93827000000E+00  0.93827000000E+00 0. -1.
     999902    2    1    2    0    0 -0.14534620601E-01 -0.15841680223E-01  0.90237048464E-02  0.10206138837E+01  0.10203475184E+01 0.  0.
     999903    2    3    3    0    0 -0.10437810082E+00  0.45837066887E-02 -0.77439414792E-01  0.13158918306E+00  0.20076150911E-01 0.  0.
         14    1    1    2    0    0  0.14534620601E-01  0.15841680223E-01 -0.90237048464E-02  0.23316116260E-01  0.00000000000E+00 0.  1.
     999901    1    3    3    0    0  0.89843480222E-01 -0.20425386912E-01  0.86463119639E-01  0.88902470068E+00  0.88000000000E+00 0.  1.
        -11    1    4    4    0    0 -0.78662869614E-01  0.10155453431E-01 -0.64659963143E-01  0.10233353431E+00  0.51100000000E-03 0. -1.
         11    1    4    4    0    0 -0.25715231209E-01 -0.55717467426E-02 -0.12779451649E-01  0.29255648743E-01  0.51100000000E-03 0.  1.
</event>
<event>
 8    1  0.1064839E+005  0.1043930E+01  0.7957747E-01            NaN
         13   -1    0    0    0    0  0.00000000000E+00  0.00000000000E+00  0.74505805969E-08  0.10566000000E+00  0.10566000000E+00 0. -1.
     999900   -1    0    0    0    0 -0.00000000000E+00 -0.00000000000E+00 -0.74505805969E-08  0.93827000000E+00  0.93827000000E+00 0.  1.
     999902    2    1    2    0    0 -0.15191342105E-01 -0.51653187918E-02  0.16385775830E-01  0.10209963775E+01  0.10207387774E+01 0.  0.
     999903    2    3    3    0    0  0.48857884685E-01 -0.11732695120E+00 -0.24060047216E-01  0.13064902960E+00  0.18373260206E-01 0.  0.
         14    1    1    2    0    0  0.15191342105E-01  0.51653187918E-02 -0.16385775830E-01  0.22933622538E-01  0.00000000000E+00 0.  1.
     999901    1    3    3    0    0 -0.64049226790E-01  0.11216163241E+00  0.40445823046E-01  0.89034734786E+00  0.88000000000E+00 0. -1.
        -11    1    4    4    0    0  0.63181851359E-02 -0.28191564794E-01 -0.11444068234E-01  0.31079118515E-01  0.51100000000E-03 0.  1.
         11    1    4    4    0    0  0.42539699549E-01 -0.89135386406E-01 -0.12615978982E-01  0.99569911089E-01  0.51100000000E-03 0. -1.
</event>
<event>
 8    1  0.1064839E+005  0.1043930E+01  0.7957747E-01            NaN
         13   -1    0    0    0    0  0.00000000000E+00  0.00000000000E+00  0.74505805969E-08  0.10566000000E+00  0.10566000000E+00 0. -1.
     999900   -1    0    0    0    0 -0.00000000000E+00 -0.00000000000E+00 -0.74505805969E-08  0.93827000000E+00  0.93827000000E+00 0. -1.
     999902    2    1    2    0    0  0.79008734841E-02  0.18874084541E-01 -0.85056038990E-02  0.10217714764E+01  0.10215311791E+01 0.  0.
     999903    2    3    3    0    0  0.10206078961E+00 -0.13524451997E-02 -0.82072452074E-01  0.13346562625E+00  0.25670062661E-01 0.  0.
         14    1    1    2    0    0 -0.79008734841E-02 -0.18874084541E-01  0.85056038990E-02  0.22158523569E-01  0.00000000000E+00 0. -1.
     999901    1    3    3    0    0 -0.94159916129E-01  0.20226529741E-01  0.73566848175E-01  0.88830585018E+00  0.88000000000E+00 0.  1.
        -11    1    4    4    0    0  0.45586617138E-01  0.62434114929E-02 -0.23205786738E-01  0.51535322918E-01  0.51100000000E-03 0.  1.
         11    1    4    4    0    0  0.56474172475E-01 -0.75958566926E-02 -0.58866665336E-01  0.81930303335E-01  0.51100000000E-03 0. -1.
</event>
<event>
 8    1  0.1064839E+005  0.1043930E+01  0.7957747E-01            NaN
         13   -1    0    0    0    0  0.00000000000E+00  0.00000000000E+00  0.74505805969E-08  0.10566000000E+00  0.10566000000E+00 0. -1.
     999900   -1    0    0    0    0 -0.00000000000E+00 -0.00000000000E+00 -0.74505805969E-08  0.93827000000E+00  0.93827000000E+00 0. -1.
     999902    2    1    2    0    0 -0.13285448100E-01  0.18138984696E-01 -0.63215399673E-02  0.10205743205E+01  0.10203070400E+01 0.  0.
     999903    2    3    3    0    0 -0.38593983749E-01  0.10929481785E-01  0.12291414635E+00  0.13074604408E+00  0.19434287155E-01 0.  0.
         14    1    1    2    0    0  0.13285448100E-01 -0.18138984696E-01  0.63215399673E-02  0.23355679493E-01  0.00000000000E+00 0. -1.
     999901    1    3    3    0    0  0.25308535649E-01  0.72095029109E-02 -0.12923568631E+00  0.88982827643E+00  0.88000000000E+00 0. -1.
        -11    1    4    4    0    0 -0.10806020312E-01 -0.56496531805E-02  0.32772580659E-01  0.34971299948E-01  0.51100000000E-03 0. -1.
         11    1    4    4    0    0 -0.27787963437E-01  0.16579134966E-01  0.90141565688E-01  0.95774744133E-01  0.51100000000E-03 0.  1.
</event>
<event>
 8    1  0.1064839E+005  0.1043930E+01  0.7957747E-01            NaN
         13   -1    0    0    0    0  0.00000000000E+00  0.00000000000E+00  0.74505805969E-08  0.10566000000E+00  0.10566000000E+00 0. -1.
     999900   -1    0    0    0    0 -0.00000000000E+00 -0.00000000000E+00 -0.74505805969E-08  0.93827000000E+00  0.93827000000E+00 0. -1.
     999902    2    1    2    0    0 -0.21130125352E-01  0.49839089810E-02 -0.10469329441E-01  0.10198275436E+01  0.10195426868E+01 0.  0.
     999903    2    3    3    0    0  0.75059847975E-01  0.67934627642E-01  0.76184489361E-01  0.12813017998E+00  0.19083296164E-01 0.  0.
         14    1    1    2    0    0  0.21130125352E-01 -0.49839089810E-02  0.10469329441E-01  0.24102456411E-01  0.00000000000E+00 0. -1.
     999901    1    3    3    0    0 -0.96189973327E-01 -0.62950718661E-01 -0.86653818802E-01  0.89169736361E+00  0.88000000000E+00 0.  1.
        -11    1    4    4    0    0  0.58672744510E-01  0.50635436275E-01  0.67458698734E-01  0.10274909007E+00  0.51100000000E-03 0.  1.
         11    1    4    4    0    0  0.16387103465E-01  0.17299191367E-01  0.87257906265E-02  0.25381089909E-01  0.51100000000E-03 0. -1.
</event>
<event>
 8    1  0.1064839E+005  0.1043930E+01  0.7957747E-01            NaN
         13   -1    0    0    0    0  0.00000000000E+00  0.00000000000E+00  0.74505805969E-08  0.10566000000E+00  0.10566000000E+00 0. -1.
     999900   -1    0    0    0    0 -0.00000000000E+00 -0.00000000000E+00 -0.74505805969E-08  0.93827000000E+00  0.93827000000E+00 0. -1.
     999902    2    1    2    0    0 -0.14321203061E-01  0.18527356784E-01 -0.30461371926E-02  0.10203156239E+01  0.10200423195E+01 0.  0.
     999903    2    3    3    0    0 -0.72931019111E-01  0.48319458309E-01  0.96892060518E-01  0.13222197839E+00  0.20997061156E-01 0.  0.
         14    1    1    2    0    0  0.14321203061E-01 -0.18527356784E-01  0.30461371926E-02  0.23614376094E-01  0.00000000000E+00 0. -1.
     999901    1    3    3    0    0  0.58609816050E-01 -0.29792101525E-01 -0.99938197711E-01  0.88809364552E+00  0.88000000000E+00 0. -1.
        -11    1    4    4    0    0  0.14110242630E-02  0.14260422231E-02  0.23658927604E-02  0.31437486297E-02  0.51100000000E-03 0. -1.
         11    1    4    4    0    0 -0.74342043374E-01  0.46893416086E-01  0.94526167758E-01  0.12907822976E+00  0.51100000000E-03 0.  1.
</event>
<event>
 8    1  0.1064839E+005  0.1043930E+01  0.7957747E-01            NaN
         13   -1    0    0    0    0  0.00000000000E+00  0.00000000000E+00  0.74505805969E-08  0.10566000000E+00  0.10566000000E+00 0.  1.
     999900   -1    0    0    0    0 -0.00000000000E+00 -0.00000000000E+00 -0.74505805969E-08  0.93827000000E+00  0.93827000000E+00 0.  1.
     999902    2    1    2    0    0 -0.76502760229E-02 -0.21170653485E-01  0.62181131921E-02  0.10205764516E+01  0.10203092204E+01 0.  0.
     999903    2    3    3    0    0 -0.92860361061E-01  0.81185212919E-01 -0.32993344736E-01  0.12969204807E+00  0.22746012464E-01 0.  0.
         14    1    1    2    0    0  0.76502760229E-02  0.21170653485E-01 -0.62181131921E-02  0.23353548421E-01  0.00000000000E+00 0.  1.
     999901    1    3    3    0    0  0.85210085038E-01 -0.10235586640E+00  0.39211457928E-01  0.89088440351E+00  0.88000000000E+00 0. -1.
        -11    1    4    4    0    0 -0.35811014176E-01  0.37930687396E-01 -0.35781278973E-02  0.52289864247E-01  0.51100000000E-03 0.  1.
         11    1    4    4    0    0 -0.57049346885E-01  0.43254525523E-01 -0.29415216839E-01  0.77402183825E-01  0.51100000000E-03 0. -1.
</event>
<event>
 8    1  0.1064839E+005  0.1043930E+01  0.7957747E-01            NaN
         13   -1    0    0    0    0  0.00000000000E+00  0.00000000000E+00  0.74505805969E-08  0.10566000000E+00  0.10566000000E+00 0. -1.
     999900   -1    0    0    0    0 -0.00000000000E+00 -0.00000000000E+00 -0.74505805969E-08  0.93827000000E+00  0.93827000000E+00 0.  1.
     999902    2    1    2    0    0 -0.43839110984E-02 -0.20422061572E-01 -0.10492749034E-01  0.10205552902E+01  0.10202875689E+01 0.  0.
     999903    2    3    3    0    0  0.29454121824E-01 -0.27029318700E-01 -0.12484773641E+00  0.13248675037E+00  0.19174263382E-01 0.  0.
         14    1    1    2    0    0  0.43839110984E-02  0.20422061572E-01  0.10492749034E-01  0.23374709788E-01  0.00000000000E+00 0. -1.
     999901    1    3    3    0    0 -0.33838032923E-01  0.66072571281E-02  0.11435498737E+00  0.88806853984E+00  0.88000000000E+00 0. -1.
        -11    1    4    4    0    0 -0.90040555412E-03 -0.64602046594E-02 -0.31952744456E-01  0.32615701336E-01  0.51100000000E-03 0. -1.
         11    1    4    4    0    0  0.30354527378E-01 -0.20569114041E-01 -0.92894991950E-01  0.99871049034E-01  0.51100000000E-03 0.  1.
</event>
<event>
 8    1  0.1064839E+005  0.1043930E+01  0.7957747E-01            NaN
         13   -1    0    0    0    0  0.00000000000E+00  0.00000000000E+00  0.74505805969E-08  0.10566000000E+00  0.10566000000E+00 0. -1.
     999900   -1    0    0    0    0 -0.00000000000E+00 -0.00000000000E+00 -0.74505805969E-08  0.93827000000E+00  0.93827000000E+00 0.  1.
     999902    2    1    2    0    0  0.20470342788E-01 -0.18264939982E-02  0.11653278976E-01  0.10203043799E+01  0.10200308121E+01 0.  0.
     999903    2    3    3    0    0  0.82664665976E-01 -0.41628360075E-01 -0.89959908783E-01  0.13138505718E+00  0.24553629029E-01 0.  0.
         14    1    1    2    0    0 -0.20470342788E-01  0.18264939982E-02 -0.11653278976E-01  0.23625620099E-01  0.00000000000E+00 0.  1.
     999901    1    3    3    0    0 -0.62194323189E-01  0.39801866077E-01  0.10161318776E+00  0.88891932272E+00  0.88000000000E+00 0. -1.
        -11    1    4    4    0    0  0.24119020447E-01 -0.45876671431E-03 -0.24617335360E-01  0.34470450178E-01  0.51100000000E-03 0. -1.
         11    1    4    4    0    0  0.58545645530E-01 -0.41169593361E-01 -0.65342573423E-01  0.96914607003E-01  0.51100000000E-03 0.  1.
</event>
<event>
 8    1  0.1064839E+005  0.1043930E+01  0.7957747E-01            NaN
         13   -1    0    0    0    0  0.00000000000E+00  0.00000000000E+00  0.74505805969E-08  0.10566000000E+00  0.10566000000E+00 0.  1.
     999900   -1    0    0    0    0 -0.00000000000E+00 -0.00000000000E+00 -0.74505805969E-08  0.93827000000E+00  0.93827000000E+00 0.  1.
     999902    2    1    2    0    0 -0.19760243359E-01  0.86396632146E-02 -0.56697582522E-02  0.10216307364E+01  0.10213873430E+01 0.  0.
     999903    2    3    3    0    0  0.32620488602E-01 -0.12270531231E+00  0.21520219191E-01  0.12992756912E+00  0.17244229120E-01 0.  0.
         14    1    1    2    0    0  0.19760243359E-01 -0.86396632146E-02  0.56697582522E-02  0.22299263591E-01  0.00000000000E+00 0.  1.
     999901    1    3    3    0    0 -0.52380731961E-01  0.13134497553E+00 -0.27189977443E-01  0.89170316729E+00  0.88000000000E+00 0.  1.
        -11    1    4    4    0    0  0.21800485572E-01 -0.93824981488E-01  0.23048468569E-01  0.99044845129E-01  0.51100000000E-03 0. -1.
         11    1    4    4    0    0  0.10820003030E-01 -0.28880330823E-01 -0.15282493781E-02  0.30882723992E-01  0.51100000000E-03 0.  1.
</event>
<event>
 8    1  0.1064839E+005  0.1043930E+01  0.7957747E-01            NaN
         13   -1    0    0    0    0  0.00000000000E+00  0.00000000000E+00  0.74505805969E-08  0.10566000000E+00  0.10566000000E+00 0.  1.
     999900   -1    0    0    0    0 -0.00000000000E+00 -0.00000000000E+00 -0.74505805969E-08  0.93827000000E+00  0.93827000000E+00 0.  1.
     999902    2    1    2    0    0  0.17480465359E-02  0.23090423511E-01 -0.65821411247E-02  0.10198561988E+01  0.10195720270E+01 0.  0.
     999903    2    3    3    0    0 -0.46708690340E-01 -0.37080952691E-01 -0.11378603493E+00  0.12999029610E+00  0.19837251072E-01 0.  0.
         14    1    1    2    0    0 -0.17480465359E-02 -0.23090423511E-01  0.65821411247E-02  0.24073801246E-01  0.00000000000E+00 0.  1.
     999901    1    3    3    0    0  0.48456736876E-01  0.60171376202E-01  0.10720389380E+00  0.88986590266E+00  0.88000000000E+00 0. -1.
        -11    1    4    4    0    0 -0.40483701654E-01 -0.38021278215E-01 -0.93590879933E-01  0.10883042601E+00  0.51100000000E-03 0. -1.
         11    1    4    4    0    0 -0.62249886857E-02  0.94032552463E-03 -0.20195154992E-01  0.21159870094E-01  0.51100000000E-03 0.  1.
</event>
<event>
 8    1  0.1064839E+005  0.1043930E+01  0.7957747E-01            NaN
         13   -1    0    0    0    0  0.00000000000E+00  0.00000000000E+00  0.74505805969E-08  0.10566000000E+00  0.10566000000E+00 0. -1.
     999900   -1    0    0    0    0 -0.00000000000E+00 -0.00000000000E+00 -0.74505805969E-08  0.93827000000E+00  0.93827000000E+00 0. -1.
     999902    2    1    2    0    0  0.20129633481E-01  0.10878126891E-01  0.16023328855E-01  0.10159964564E+01  0.10156123850E+01 0.  0.
     999903    2    3    3    0    0  0.10165147709E+00 -0.65851258027E-01 -0.34384936920E-01  0.12747284799E+00  0.19939711886E-01 0.  0.
         14    1    1    2    0    0 -0.20129633481E-01 -0.10878126891E-01 -0.16023328855E-01  0.27933543569E-01  0.00000000000E+00 0. -1.
     999901    1    3    3    0    0 -0.81521843608E-01  0.76729384917E-01  0.50408265775E-01  0.88852360844E+00  0.88000000000E+00 0.  1.
        -11    1    4    4    0    0  0.42145003928E-01 -0.15999123119E-01 -0.14092926882E-01  0.47233939130E-01  0.51100000000E-03 0. -1.
         11    1    4    4    0    0  0.59506473161E-01 -0.49852134908E-01 -0.20292010039E-01  0.80238908862E-01  0.51100000000E-03 0.  1.
</event>
<event>
 8    1  0.1064839E+005  0.1043930E+01  0.7957747E-01            NaN
         13   -1    0    0    0    0  0.00000000000E+00  0.00000000000E+00  0.74505805969E-08  0.10566000000E+00  0.10566000000E+00 0. -1.
     999900   -1    0    0    0    0 -0.00000000000E+00 -0.00000000000E+00 -0.74505805969E-08  0.93827000000E+00  0.93827000000E+00 0. -1.
     999902    2    1    2    0    0  0.10378107772E-01 -0.22588784492E-01 -0.78276031285E-02  0.10178679648E+01  0.10175342570E+01 0.  0.
     999903    2    3    3    0    0  0.60724474868E-01  0.40842675809E-01 -0.10425100546E+00  0.12890464763E+00  0.19812875284E-01 0.  0.
         14    1    1    2    0    0 -0.10378107772E-01  0.22588784492E-01  0.78276031285E-02  0.26062035156E-01  0.00000000000E+00 0. -1.
     999901    1    3    3    0    0 -0.50346367096E-01 -0.63431460301E-01  0.96423402327E-01  0.88896331721E+00  0.88000000000E+00 0.  1.
        -11    1    4    4    0    0  0.55032171568E-01  0.30433346334E-01 -0.94629324483E-01  0.11362085482E+00  0.51100000000E-03 0.  1.
         11    1    4    4    0    0  0.56923033002E-02  0.10409329475E-01 -0.96216809727E-02  0.15283792812E-01  0.51100000000E-03 0. -1.
</event>
<event>
 8    1  0.1064839E+005  0.1043930E+01  0.7957747E-01            NaN
         13   -1    0    0    0    0  0.00000000000E+00  0.00000000000E+00  0.74505805969E-08  0.10566000000E+00  0.10566000000E+00 0.  1.
     999900   -1    0    0    0    0 -0.00000000000E+00 -0.00000000000E+00 -0.74505805969E-08  0.93827000000E+00  0.93827000000E+00 0. -1.
     999902    2    1    2    0    0  0.20023184701E-01 -0.11657496801E-01  0.99554585170E-02  0.10187122223E+01  0.10184000469E+01 0.  0.
     999903    2    3    3    0    0  0.41433108671E-01 -0.91659154847E-01 -0.77199313669E-01  0.13053734964E+00  0.31018743661E-01 0.  0.
         14    1    1    2    0    0 -0.20023184701E-01  0.11657496801E-01 -0.99554585170E-02  0.25217777688E-01  0.00000000000E+00 0. -1.
     999901    1    3    3    0    0 -0.21409923970E-01  0.80001658045E-01  0.87154772186E-01  0.88817487267E+00  0.88000000000E+00 0.  1.
        -11    1    4    4    0    0  0.30377313814E-01 -0.37665140324E-01 -0.24330038403E-01  0.54163233654E-01  0.51100000000E-03 0. -1.
         11    1    4    4    0    0  0.11055794857E-01 -0.53994014523E-01 -0.52869275266E-01  0.76374115984E-01  0.51100000000E-03 0.  1.
</event>
<event>
 8    1  0.1064839E+005  0.1043930E+01  0.7957747E-01            NaN
         13   -1    0    0    0    0  0.00000000000E+00  0.00000000000E+00  0.74505805969E-08  0.10566000000E+00  0.10566000000E+00 0.  1.
     999900   -1    0    0    0    0 -0.00000000000E+00 -0.00000000000E+00 -0.74505805969E-08  0.93827000000E+00  0.93827000000E+00 0. -1.
     999902    2    1    2    0    0  0.20444526250E-01 -0.92045373927E-02  0.60191159373E-02  0.10207150927E+01  0.10204510614E+01 0.  0.
     999903    2    3    3    0    0 -0.13288621971E-01  0.19165023744E-01 -0.12609555318E+00  0.12976220786E+00  0.19855892013E-01 0.  0.
         14    1    1    2    0    0 -0.20444526250E-01  0.92045373927E-02 -0.60191159373E-02  0.23214907255E-01  0.00000000000E+00 0. -1.
     999901    1    3    3    0    0  0.33733148221E-01 -0.28369561136E-01  0.13211466912E+00  0.89095288488E+00  0.88000000000E+00 0.  1.
        -11    1    4    4    0    0 -0.87299889948E-02  0.22429115064E-01 -0.87228035981E-01  0.90489056203E-01  0.51100000000E-03 0. -1.
         11    1    4    4    0    0 -0.45586329766E-02 -0.32640913205E-02 -0.38867517201E-01  0.39273151658E-01  0.51100000000E-03 0.  1.
</event>
<event>
 8    1  0.1064839E+005  0.1043930E+01  0.7957747E-01            NaN
         13   -1    0    0    0    0  0.00000000000E+00  0.00000000000E+00  0.74505805969E-08  0.10566000000E+00  0.10566000000E+00 0. -1.
     999900   -1    0    0    0    0 -0.00000000000E+00 -0.00000000000E+00 -0.74505805969E-08  0.93827000000E+00  0.93827000000E+00 0. -1.
     999902    2    1    2    0    0  0.22448561344E-01 -0.12269638421E-02 -0.61550269406E-02  0.10206206091E+01  0.10203543992E+01 0.  0.
     999903    2    3    3    0    0  0.22107777869E-01 -0.11781202191E+00 -0.50681659004E-01  0.13181533637E+00  0.20933848069E-01 0.  0.
         14    1    1    2    0    0 -0.22448561344E-01  0.12269638421E-02  0.61550269406E-02  0.23309390882E-01  0.00000000000E+00 0.  1.
     999901    1    3    3    0    0  0.34078347453E-03  0.11658505807E+00  0.44526632063E-01  0.88880527275E+00  0.88000000000E+00 0.  1.
        -11    1    4    4    0    0  0.10451190934E-01 -0.38452304541E-01 -0.27156386132E-01  0.48223827567E-01  0.51100000000E-03 0.  1.
         11    1    4    4    0    0  0.11656586935E-01 -0.79359717367E-01 -0.23525272872E-01  0.83591508805E-01  0.51100000000E-03 0. -1.
</event>
<event>
 8    1  0.1064839E+005  0.1043930E+01  0.7957747E-01            NaN
         13   -1    0    0    0    0  0.00000000000E+00  0.00000000000E+00  0.74505805969E-08  0.10566000000E+00  0.10566000000E+00 0.  1.
     999900   -1    0    0    0    0 -0.00000000000E+00 -0.00000000000E+00 -0.74505805969E-08  0.93827000000E+00  0.93827000000E+00 0.  1.
     999902    2    1    2    0    0  0.33155184646E-01 -0.52229402179E-02 -0.11603772723E-02  0.10103458989E+01  0.10097875735E+01 0.  0.
     999903    2    3    3    0    0 -0.87285405450E-02 -0.11888744952E+00  0.15779221835E-01  0.12188609835E+00  0.19920443214E-01 0.  0.
         14    1    1    2    0    0 -0.33155184646E-01  0.52229402179E-02  0.11603772723E-02  0.33584101132E-01  0.00000000000E+00 0.  1.
     999901    1    3    3    0    0  0.41883725191E-01  0.11366450930E+00 -0.16939599107E-01  0.88845980051E+00  0.88000000000E+00 0.  1.
        -11    1    4    4    0    0 -0.13354096382E-01 -0.93241643562E-01  0.72998440933E-02  0.94476901034E-01  0.51100000000E-03 0. -1.
         11    1    4    4    0    0  0.46255558367E-02 -0.25645805954E-01  0.84793777415E-02  0.27409197320E-01  0.51100000000E-03 0.  1.
</event>
<event>
 8    1  0.1064839E+005  0.1043930E+01  0.7957747E-01            NaN
         13   -1    0    0    0    0  0.00000000000E+00  0.00000000000E+00  0.74505805969E-08  0.10566000000E+00  0.10566000000E+00 0.  1.
     999900   -1    0    0    0    0 -0.00000000000E+00 -0.00000000000E+00 -0.74505805969E-08  0.93827000000E+00  0.93827000000E+00 0.  1.
     999902    2    1    2    0    0 -0.13061416726E-01 -0.18920757613E-01  0.13701717782E-01  0.10171656068E+01  0.10168134238E+01 0.  0.
     999903    2    3    3    0    0 -0.43638798869E-01  0.11642637373E+00  0.10893913208E-01  0.12628867585E+00  0.19253753827E-01 0.  0.
         14    1    1    2    0    0  0.13061416726E-01  0.18920757613E-01 -0.13701717782E-01  0.26764393244E-01  0.00000000000E+00 0. -1.
     999901    1    3    3    0    0  0.30577382143E-01 -0.13534713134E+00  0.28078045745E-02  0.89087693091E+00  0.88000000000E+00 0.  1.
        -11    1    4    4    0    0 -0.41204039801E-01  0.11159152553E+00  0.14390627222E-01  0.11982400736E+00  0.51100000000E-03 0.  1.
         11    1    4    4    0    0 -0.24347590679E-02  0.48348481945E-02 -0.34967140137E-02  0.64646684892E-02  0.51100000000E-03 0. -1.
</event>
<event>
 8    1  0.1064839E+005  0.1043930E+01  0.7957747E-01            NaN
         13   -1    0    0    0    0  0.00000000000E+00  0.00000000000E+00  0.74505805969E-08  0.10566000000E+00  0.10566000000E+00 0.  1.
     999900   -1    0    0    0    0 -0.00000000000E+00 -0.00000000000E+00 -0.74505805969E-08  0.93827000000E+00  0.93827000000E+00 0.  1.
     999902    2    1    2    0    0  0.14097711315E-04  0.20046571538E-01  0.12884531179E-01  0.10200998432E+01  0.10198214617E+01 0.  0.
     999903    2    3    3    0    0 -0.89983483691E-01 -0.83768314593E-01 -0.31333285224E-01  0.12834185444E+00  0.19382955682E-01 0.  0.
         14    1    1    2    0    0 -0.14097711315E-04 -0.20046571538E-01 -0.12884531179E-01  0.23830156795E-01  0.00000000000E+00 0. -1.
     999901    1    3    3    0    0  0.89997581403E-01  0.10381488613E+00  0.44217816404E-01  0.89175798877E+00  0.88000000000E+00 0.  1.
        -11    1    4    4    0    0 -0.57481260968E-01 -0.44047438508E-01 -0.25064781161E-01  0.76634043201E-01  0.51100000000E-03 0. -1.
         11    1    4    4    0    0 -0.32502222723E-01 -0.39720876084E-01 -0.62685040630E-02  0.51707811238E-01  0.51100000000E-03 0.  1.
</event>
<event>
 8    1  0.1064839E+005  0.1043930E+01  0.7957747E-01            NaN
         13   -1    0    0    0    0  0.00000000000E+00  0.00000000000E+00  0.74505805969E-08  0.10566000000E+00  0.10566000000E+00 0. -1.
     999900   -1    0    0    0    0 -0.00000000000E+00 -0.00000000000E+00 -0.74505805969E-08  0.93827000000E+00  0.93827000000E+00 0. -1.
     999902    2    1    2    0    0 -0.27341567236E-02 -0.24763131971E-01 -0.26130127711E-02  0.10188797275E+01  0.10185717367E+01 0.  0.
     999903    2    3    3    0    0 -0.85293563265E-01 -0.85453314236E-01 -0.48846973587E-01  0.13172870709E+00  0.19727255121E-01 0.  0.
         14    1    1    2    0    0  0.27341567236E-02  0.24763131971E-01  0.26130127711E-02  0.25050272529E-01  0.00000000000E+00 0. -1.
     999901    1    3    3    0    0  0.82559406541E-01  0.60690182264E-01  0.46233960815E-01  0.88715102038E+00  0.88000000000E+00 0.  1.
        -11    1    4    4    0    0 -0.61714174777E-01 -0.71425995155E-01 -0.32754931896E-01  0.99917259955E-01  0.51100000000E-03 0.  1.
         11    1    4    4    0    0 -0.23579388487E-01 -0.14027319081E-01 -0.16092041691E-01  0.31811447135E-01  0.51100000000E-03 0. -1.
</event>
<event>
 8    1  0.1064839E+005  0.1043930E+01  0.7957747E-01            NaN
         13   -1    0    0    0    0  0.00000000000E+00  0.00000000000E+00  0.74505805969E-08  0.10566000000E+00  0.10566000000E+00 0. -1.
     999900   -1    0    0    0    0 -0.00000000000E+00 -0.00000000000E+00 -0.74505805969E-08  0.93827000000E+00  0.93827000000E+00 0.  1.
     999902    2    1    2    0    0 -0.13108118697E-01 -0.15223945656E-02  0.19400220538E-01  0.10204670714E+01  0.10201973019E+01 0.  0.
     999903    2    3    3    0    0  0.72354853132E-01 -0.80022016280E-01  0.72434230255E-01  0.13126590387E+00  0.18581494725E-01 0.  0.
         14    1    1    2    0    0  0.13108118697E-01  0.15223945656E-02 -0.19400220538E-01  0.23462928588E-01  0.00000000000E+00 0.  1.
     999901    1    3    3    0    0 -0.85462971828E-01  0.78499621714E-01 -0.53034009717E-01  0.88920116754E+00  0.88000000000E+00 0.  1.
        -11    1    4    4    0    0  0.56948488204E-01 -0.66669620250E-01  0.49955695969E-01  0.10091482177E+00  0.51100000000E-03 0.  1.
         11    1    4    4    0    0  0.15406364928E-01 -0.13352396030E-01  0.22478534286E-01  0.30351082101E-01  0.51100000000E-03 0. -1.
</event>
<event>
 8    1  0.1064839E+005  0.1043930E+01  0.7957747E-01            NaN
         13   -1    0    0    0    0  0.00000000000E+00  0.00000000000E+00  0.74505805969E-08  0.10566000000E+00  0.10566000000E+00 0.  1.
     999900   -1    0    0    0    0 -0.00000000000E+00 -0.00000000000E+00 -0.74505805969E-08  0.93827000000E+00  0.93827000000E+00 0.  1.
     999902    2    1    2    0    0  0.18391764759E-01 -0.47900356053E-02  0.14574769329E-01  0.10199795229E+01  0.10196982896E+01 0.  0.
     999903    2    3    3    0    0 -0.36790363978E-01  0.48996955826E-01  0.11425509593E+00  0.13100580266E+00  0.18816504018E-01 0.  0.
         14    1    1    2    0    0 -0.18391764759E-01  0.47900356053E-02 -0.14574769329E-01  0.23950477094E-01  0.00000000000E+00 0. -1.
     999901    1    3    3    0    0  0.55182128737E-01 -0.53786991432E-01 -0.99680326597E-01  0.88897372025E+00  0.88000000000E+00 0.  1.
        -11    1    4    4    0    0 -0.81370624560E-02  0.13684743610E-01  0.48555831567E-01  0.51101995003E-01  0.51100000000E-03 0.  1.
         11    1    4    4    0    0 -0.28653301522E-01  0.35312212216E-01  0.65699264359E-01  0.79903807656E-01  0.51100000000E-03 0. -1.
</event>
<event>
 8    1  0.1064839E+005  0.1043930E+01  0.7957747E-01            NaN
         13   -1    0    0    0    0  0.00000000000E+00  0.00000000000E+00  0.74505805969E-08  0.10566000000E+00  0.10566000000E+00 0.  1.
     999900   -1    0    0    0    0 -0.00000000000E+00 -0.00000000000E+00 -0.74505805969E-08  0.93827000000E+00  0.93827000000E+00 0. -1.
     999902    2    1    2    0    0  0.12598754452E-01 -0.48198304832E-02 -0.19058305772E-01  0.10205809444E+01  0.10203138172E+01 0.  0.
     999903    2    3    3    0    0 -0.54008831524E-01  0.97064441300E-01  0.61524366413E-01  0.12855485597E+00  0.20065983221E-01 0.  0.
         14    1    1    2    0    0 -0.12598754452E-01  0.48198304832E-02  0.19058305772E-01  0.23349055624E-01  0.00000000000E+00 0.  1.
     999901    1    3    3    0    0  0.66607585976E-01 -0.10188427178E+00 -0.80582672185E-01  0.89202608841E+00  0.88000000000E+00 0. -1.
        -11    1    4    4    0    0 -0.47778337060E-01  0.94138651261E-01  0.54917432053E-01  0.11900017066E+00  0.51100000000E-03 0. -1.
         11    1    4    4    0    0 -0.62304944642E-02  0.29257900388E-02  0.66069343601E-02  0.95546853040E-02  0.51100000000E-03 0.  1.
</event>
<event>
 8    1  0.1064839E+005  0.1043930E+01  0.7957747E-01            NaN
         13   -1    0    0    0    0  0.00000000000E+00  0.00000000000E+00  0.74505805969E-08  0.10566000000E+00  0.10566000000E+00 0. -1.
     999900   -1    0    0    0    0 -0.00000000000E+00 -0.00000000000E+00 -0.74505805969E-08  0.93827000000E+00  0.93827000000E+00 0. -1.
     999902    2    1    2    0    0 -0.23334665890E-01 -0.30444231535E-02  0.26228135856E-02  0.10202518604E+01  0.10199770607E+01 0.  0.
     999903    2    3    3    0    0  0.81921510798E-01  0.86319656917E-01  0.44594949203E-01  0.12849715100E+00  0.18989239574E-01 0.  0.
         14    1    1    2    0    0  0.23334665890E-01  0.30444231535E-02 -0.26228135856E-02  0.23678139615E-01  0.00000000000E+00 0.  1.
     999901    1    3    3    0    0 -0.10525617669E+00 -0.89364080070E-01 -0.41972135617E-01  0.89175470938E+00  0.88000000000E+00 0.  1.
        -11    1    4    4    0    0  0.56646518450E-01  0.46278220925E-01  0.26360949917E-01  0.77753858978E-01  0.51100000000E-03 0.  1.
         11    1    4    4    0    0  0.25274992349E-01  0.40041435992E-01  0.18233999286E-01  0.50743292024E-01  0.51100000000E-03 0. -1.
</event>
<event>
 8    1  0.1064839E+005  0.1043930E+01  0.7957747E-01            NaN
         13   -1    0    0    0    0  0.00000000000E+00  0.00000000000E+00  0.74505805969E-08  0.10566000000E+00  0.10566000000E+00 0.  1.
     999900   -1    0    0    0    0 -0.00000000000E+00 -0.00000000000E+00 -0.74505805969E-08  0.93827000000E+00  0.93827000000E+00 0. -1.
     999902    2    1    2    0    0  0.11049313715E-01 -0.20888466266E-01 -0.40129762836E-02  0.10199608670E+01  0.10196791902E+01 0.  0.
     999903    2    3    3    0    0  0.11155110500E+00 -0.34196637822E-01  0.56694869452E-01  0.13206269719E+00  0.24762647293E-01 0.  0.
         14    1    1    2    0    0 -0.11049313715E-01  0.20888466266E-01  0.40129762836E-02  0.23969132967E-01  0.00000000000E+00 0. -1.
     999901    1    3    3    0    0 -0.10050179129E+00  0.13308171556E-01 -0.60707845736E-01  0.88789816985E+00  0.88000000000E+00 0. -1.
        -11    1    4    4    0    0  0.48634352704E-01 -0.27822510557E-01  0.26474867795E-01  0.61972349499E-01  0.51100000000E-03 0. -1.
         11    1    4    4    0    0  0.62916752297E-01 -0.63741272656E-02  0.30220001658E-01  0.70090347689E-01  0.51100000000E-03 0.  1.
</event>
<event>
 7    1  0.1064839E+005  0.1043930E+01  0.7957747E-01            NaN
         13   -1    0    0    0    0  0.00000000000E+00  0.00000000000E+00  0.74505805969E-08  0.10566000000E+00  0.10566000000E+00 0.  1.
     999900   -1    0    0    0    0 -0.00000000000E+00 -0.00000000000E+00 -0.74505805969E-08  0.93827000000E+00  0.93827000000E+00 0.  1.
     999903    2    1    2    0    0  0.74551636466E-01 -0.34057957910E-01  0.83243309366E-01  0.11849846667E+00  0.19863208515E-01 0.  0.
         14    1    1    2    0    0 -0.11742776167E-01 -0.28126062256E-01 -0.24411026086E-01  0.39049537318E-01  0.00000000000E+00 0.  1.
     999901    1    1    2    0    0 -0.62808860299E-01  0.62184020166E-01 -0.58832283280E-01  0.88638199601E+00  0.88000000000E+00 0.  1.
        -11    1    3    3    0    0  0.25841005844E-01 -0.28260116470E-02  0.20201626391E-01  0.32925837190E-01  0.51100000000E-03 0. -1.
         11    1    3    3    0    0  0.48710630623E-01 -0.31231946263E-01  0.63041682975E-01  0.85572629481E-01  0.51100000000E-03 0.  1.
</event>
<event>
 8    1  0.1064839E+005  0.1043930E+01  0.7957747E-01            NaN
         13   -1    0    0    0    0  0.00000000000E+00  0.00000000000E+00  0.74505805969E-08  0.10566000000E+00  0.10566000000E+00 0. -1.
     999900   -1    0    0    0    0 -0.00000000000E+00 -0.00000000000E+00 -0.74505805969E-08  0.93827000000E+00  0.93827000000E+00 0.  1.
     999902    2    1    2    0    0  0.19391178526E-01 -0.11239690604E-01  0.87131756182E-02  0.10198827989E+01  0.10195992623E+01 0.  0.
     999903    2    3    3    0    0 -0.11752938554E+00  0.43122297852E-01  0.13667434256E-01  0.12762330118E+00  0.20693458090E-01 0.  0.
         14    1    1    2    0    0 -0.19391178526E-01  0.11239690604E-01 -0.87131756182E-02  0.24047201061E-01  0.00000000000E+00 0.  1.
     999901    1    3    3    0    0  0.13692056407E+00 -0.54361988456E-01 -0.49542586382E-02  0.89225949775E+00  0.88000000000E+00 0.  1.
        -11    1    4    4    0    0 -0.66170295317E-01  0.18014618866E-01 -0.10525121625E-02  0.68588653421E-01  0.51100000000E-03 0. -1.
         11    1    4    4    0    0 -0.51359090227E-01  0.25107678987E-01  0.14719946419E-01  0.59034647764E-01  0.51100000000E-03 0.  1.
</event>
<event>
 8    1  0.1064839E+005  0.1043930E+01  0.7957747E-01            NaN
         13   -1    0    0    0    0  0.00000000000E+00  0.00000000000E+00  0.74505805969E-08  0.10566000000E+00  0.10566000000E+00 0. -1.
     999900   -1    0    0    0    0 -0.00000000000E+00 -0.00000000000E+00 -0.74505805969E-08  0.93827000000E+00  0.93827000000E+00 0.  1.
     999902    2    1    2    0    0 -0.26549752434E-02 -0.58015983740E-02  0.24880272262E-01  0.10182446854E+01  0.10179206767E+01 0.  0.
     999903    2    3    3    0    0 -0.83599573780E-03  0.11197393187E+00  0.62239863730E-01  0.12961083321E+00  0.19654697699E-01 0.  0.
         14    1    1    2    0    0  0.26549752434E-02  0.58015983740E-02 -0.24880272262E-01  0.25685314580E-01  0.00000000000E+00 0.  1.
     999901    1    3    3    0    0 -0.18189795056E-02 -0.11777553025E+00 -0.37359591468E-01  0.88863385221E+00  0.88000000000E+00 0.  1.
        -11    1    4    4    0    0 -0.82481925750E-02  0.87356465323E-01  0.51505074337E-01  0.10174585258E+00  0.51100000000E-03 0.  1.
         11    1    4    4    0    0  0.74121968372E-02  0.24617466549E-01  0.10734789393E-01  0.27864980631E-01  0.51100000000E-03 0. -1.
</event>
<event>
 8    1  0.1094418E+005  0.1043930E+01  0.7957747E-01            NaN
         13   -1    0    0    0    0  0.00000000000E+00  0.00000000000E+00  0.74505805969E-08  0.10566000000E+00  0.10566000000E+00 0.  1.
     999900   -1    0    0    0    0 -0.00000000000E+00 -0.00000000000E+00 -0.74505805969E-08  0.93827000000E+00  0.93827000000E+00 0. -1.
     999902    2    1    2    0    0 -0.12896958141E-01 -0.19612525370E-01  0.64634370211E-02  0.10195833637E+01  0.10192926355E+01 0.  0.
     999903    2    3    3    0    0 -0.29571515521E-01  0.10965804725E+00 -0.55405198828E-01  0.12783415574E+00  0.19299571477E-01 0.  0.
         14    1    1    2    0    0  0.12896958141E-01  0.19612525370E-01 -0.64634370211E-02  0.24346636293E-01  0.00000000000E+00 0.  1.
     999901    1    3    3    0    0  0.16674557379E-01 -0.12927057262E+00  0.61868635850E-01  0.89174920797E+00  0.88000000000E+00 0. -1.
        -11    1    4    4    0    0 -0.10974731563E-01  0.75458819151E-01 -0.35632205324E-01  0.84168838045E-01  0.51100000000E-03 0.  1.
         11    1    4    4    0    0 -0.18596783958E-01  0.34199228099E-01 -0.19772993505E-01  0.43665317694E-01  0.51100000000E-03 0. -1.
</event>
<event>
 8    1  0.1064839E+005  0.1043930E+01  0.7957747E-01            NaN
         13   -1    0    0    0    0  0.00000000000E+00  0.00000000000E+00  0.74505805969E-08  0.10566000000E+00  0.10566000000E+00 0. -1.
     999900   -1    0    0    0    0 -0.00000000000E+00 -0.00000000000E+00 -0.74505805969E-08  0.93827000000E+00  0.93827000000E+00 0.  1.
     999902    2    1    2    0    0 -0.33883940737E-02 -0.22515818334E-01 -0.61027921366E-02  0.10203569781E+01  0.10200846413E+01 0.  0.
     999903    2    3    3    0    0 -0.83099984648E-01  0.23862832763E-01 -0.96218609889E-01  0.13096067860E+00  0.20436149718E-01 0.  0.
         14    1    1    2    0    0  0.33883940737E-02  0.22515818334E-01  0.61027921366E-02  0.23573021901E-01  0.00000000000E+00 0. -1.
     999901    1    3    3    0    0  0.79711590574E-01 -0.46378651097E-01  0.90115817752E-01  0.88939629950E+00  0.88000000000E+00 0. -1.
        -11    1    4    4    0    0 -0.11737828250E-01  0.11309826892E-01 -0.19785770646E-01  0.25640332241E-01  0.51100000000E-03 0.  1.
         11    1    4    4    0    0 -0.71362156398E-01  0.12553005871E-01 -0.76432839242E-01  0.10532034636E+00  0.51100000000E-03 0. -1.
</event>
<event>
 8    1  0.1064839E+005  0.1043930E+01  0.7957747E-01            NaN
         13   -1    0    0    0    0  0.00000000000E+00  0.00000000000E+00  0.74505805969E-08  0.10566000000E+00  0.10566000000E+00 0.  1.
     999900   -1    0    0    0    0 -0.00000000000E+00 -0.00000000000E+00 -0.74505805969E-08  0.93827000000E+00  0.93827000000E+00 0.  1.
     999902    2    1    2    0    0 -0.22304993880E-01  0.43266359881E-02 -0.56663764579E-02  0.10205133317E+01  0.10202446373E+01 0.  0.
     999903    2    3    3    0    0  0.58503560980E-01 -0.29879628755E-01 -0.11032182503E+00  0.12997818138E+00  0.20198111186E-01 0.  0.
         14    1    1    2    0    0  0.22304993880E-01 -0.43266359881E-02  0.56663764579E-02  0.23416668276E-01  0.00000000000E+00 0.  1.
     999901    1    3    3    0    0 -0.80808554860E-01  0.34206264743E-01  0.10465544857E+00  0.89053515035E+00  0.88000000000E+00 0.  1.
        -11    1    4    4    0    0  0.47674782605E-01 -0.32036284136E-01 -0.88321625697E-01  0.10535738742E+00  0.51100000000E-03 0.  1.
         11    1    4    4    0    0  0.10828778375E-01  0.21566553801E-02 -0.22000199329E-01  0.24620793957E-01  0.51100000000E-03 0. -1.
</event>
<event>
 8    1  0.1064839E+005  0.1043930E+01  0.7957747E-01            NaN
         13   -1    0    0    0    0  0.00000000000E+00  0.00000000000E+00  0.74505805969E-08  0.10566000000E+00  0.10566000000E+00 0. -1.
     999900   -1    0    0    0    0 -0.00000000000E+00 -0.00000000000E+00 -0.74505805969E-08  0.93827000000E+00  0.93827000000E+00 0. -1.
     999902    2    1    2    0    0 -0.12378217556E-01  0.56678838939E-02  0.14506285958E-01  0.10240358423E+01  0.10238425801E+01 0.  0.
     999903    2    3    3    0    0  0.10740671358E+00 -0.22230791332E-01  0.73474083422E-01  0.13352814053E+00  0.20022816272E-01 0.  0.
         14    1    1    2    0    0  0.12378217556E-01 -0.56678838939E-02 -0.14506285958E-01  0.19894157685E-01  0.00000000000E+00 0.  1.
     999901    1    3    3    0    0 -0.11978493114E+00  0.27898675226E-01 -0.58967797465E-01  0.89050770179E+00  0.88000000000E+00 0. -1.
        -11    1    4    4    0    0  0.35500380582E-01  0.56144475773E-03  0.29850822877E-01  0.46388845525E-01  0.51100000000E-03 0.  1.
         11    1    4    4    0    0  0.71906333002E-01 -0.22792236090E-01  0.43623260546E-01  0.87139295001E-01  0.51100000000E-03 0. -1.
</event>
<event>
 8    1  0.1064839E+005  0.1043930E+01  0.7957747E-01            NaN
         13   -1    0    0    0    0  0.00000000000E+00  0.00000000000E+00  0.74505805969E-08  0.10566000000E+00  0.10566000000E+00 0. -1.
     999900   -1    0    0    0    0 -0.00000000000E+00 -0.00000000000E+00 -0.74505805969E-08  0.93827000000E+00  0.93827000000E+00 0.  1.
     999902    2    1    2    0    0 -0.50005326426E-02  0.15768961306E-01  0.16487996628E-01  0.10205736411E+01  0.10203063449E+01 0.  0.
     999903    2    3    3    0    0 -0.12938405239E+00  0.10448472638E-01 -0.66005486965E-02  0.13151084890E+00  0.20053242673E-01 0.  0.
         14    1    1    2    0    0  0.50005326426E-02 -0.15768961306E-01 -0.16487996628E-01  0.23356358881E-01  0.00000000000E+00 0.  1.
     999901    1    3    3    0    0  0.12438351975E+00  0.53204886675E-02  0.23088545325E-01  0.88906279222E+00  0.88000000000E+00 0. -1.
        -11    1    4    4    0    0 -0.69378418691E-01  0.10277105891E-01 -0.12393236823E-01  0.71223853628E-01  0.51100000000E-03 0.  1.
         11    1    4    4    0    0 -0.60005633698E-01  0.17136674730E-03  0.57926881264E-02  0.60286995271E-01  0.51100000000E-03 0. -1.
</event>
<event>
 8    1  0.1064839E+005  0.1043930E+01  0.7957747E-01            NaN
         13   -1    0    0    0    0  0.00000000000E+00  0.00000000000E+00  0.74505805969E-08  0.10566000000E+00  0.10566000000E+00 0.  1.
     999900   -1    0    0    0    0 -0.00000000000E+00 -0.00000000000E+00 -0.74505805969E-08  0.93827000000E+00  0.93827000000E+00 0. -1.
     999902    2    1    2    0    0  0.92632288332E-02 -0.16432523238E-01  0.13430056841E-01  0.10207739715E+01  0.10205112931E+01 0.  0.
     999903    2    3    3    0    0  0.61922520108E-01 -0.92826869907E-01  0.71479200764E-01  0.13399395355E+00  0.19846339004E-01 0.  0.
         14    1    1    2    0    0 -0.92632288332E-02  0.16432523238E-01 -0.13430056841E-01  0.23156028484E-01  0.00000000000E+00 0.  1.
     999901    1    3    3    0    0 -0.52659291275E-01  0.76394346669E-01 -0.58049143923E-01  0.88678001797E+00  0.88000000000E+00 0.  1.
        -11    1    4    4    0    0  0.32113543551E-01 -0.39789365417E-01  0.22408049146E-01  0.55828801413E-01  0.51100000000E-03 0.  1.
         11    1    4    4    0    0  0.29808976556E-01 -0.53037504491E-01  0.49071151617E-01  0.78165152133E-01  0.51100000000E-03 0. -1.
</event>
<event>
 8    1  0.1064839E+005  0.1043930E+01  0.7957747E-01            NaN
         13   -1    0    0    0    0  0.00000000000E+00  0.00000000000E+00  0.74505805969E-08  0.10566000000E+00  0.10566000000E+00 0. -1.
     999900   -1    0    0    0    0 -0.00000000000E+00 -0.00000000000E+00 -0.74505805969E-08  0.93827000000E+00  0.93827000000E+00 0. -1.
     999902    2    1    2    0    0  0.17086129876E-01  0.41735448001E-02 -0.15709494996E-01  0.10203473254E+01  0.10200747629E+01 0.  0.
     999903    2    3    3    0    0 -0.14476328960E-01 -0.33370741289E-01 -0.12548410280E+00  0.13217153941E+00  0.19997132299E-01 0.  0.
         14    1    1    2    0    0 -0.17086129876E-01 -0.41735448001E-02  0.15709494996E-01  0.23582674644E-01  0.00000000000E+00 0.  1.
     999901    1    3    3    0    0  0.31562458836E-01  0.37544286089E-01  0.10977460780E+00  0.88817578595E+00  0.88000000000E+00 0.  1.
        -11    1    4    4    0    0 -0.14084869674E-02 -0.20475968650E-01 -0.42762401888E-01  0.47435569607E-01  0.51100000000E-03 0.  1.
         11    1    4    4    0    0 -0.13067841993E-01 -0.12894772640E-01 -0.82721700910E-01  0.84735969802E-01  0.51100000000E-03 0. -1.
</event>
<event>
 8    1  0.1064839E+005  0.1043930E+01  0.7957747E-01            NaN
         13   -1    0    0    0    0  0.00000000000E+00  0.00000000000E+00  0.74505805969E-08  0.10566000000E+00  0.10566000000E+00 0. -1.
     999900   -1    0    0    0    0 -0.00000000000E+00 -0.00000000000E+00 -0.74505805969E-08  0.93827000000E+00  0.93827000000E+00 0. -1.
     999902    2    1    2    0    0 -0.21782695866E-01  0.81902291958E-02  0.24731929630E-02  0.10205273853E+01  0.10202590170E+01 0.  0.
     999903    2    3    3    0    0 -0.88185130083E-01 -0.48283063752E-02  0.97144309044E-01  0.13286675993E+00  0.20411501743E-01 0.  0.
         14    1    1    2    0    0  0.21782695866E-01 -0.81902291958E-02 -0.24731929630E-02  0.23402614745E-01  0.00000000000E+00 0. -1.
     999901    1    3    3    0    0  0.66402434217E-01  0.13018535571E-01 -0.94671116081E-01  0.88766062533E+00  0.88000000000E+00 0. -1.
        -11    1    4    4    0    0 -0.66152051812E-01 -0.99673117813E-02  0.62940840515E-01  0.91854514254E-01  0.51100000000E-03 0. -1.
         11    1    4    4    0    0 -0.22033078271E-01  0.51390054060E-02  0.34203468529E-01  0.41012245672E-01  0.51100000000E-03 0.  1.
</event>
<event>
 8    1  0.1064839E+005  0.1043930E+01  0.7957747E-01            NaN
         13   -1    0    0    0    0  0.00000000000E+00  0.00000000000E+00  0.74505805969E-08  0.10566000000E+00  0.10566000000E+00 0.  1.
     999900   -1    0    0    0    0 -0.00000000000E+00 -0.00000000000E+00 -0.74505805969E-08  0.93827000000E+00  0.93827000000E+00 0.  1.
     999902    2    1    2    0    0  0.20175925693E-01  0.11553930689E-01  0.20482306577E-02  0.10205899798E+01  0.10203230618E+01 0.  0.
     999903    2    3    3    0    0 -0.10905476880E+00  0.23349695435E-01 -0.61375807002E-01  0.12881516465E+00  0.19702946058E-01 0.  0.
         14    1    1    2    0    0 -0.20175925693E-01 -0.11553930689E-01 -0.20482306577E-02  0.23340020154E-01  0.00000000000E+00 0.  1.
     999901    1    3    3    0    0  0.12923069449E+00 -0.11795764745E-01  0.63424037660E-01  0.89177481520E+00  0.88000000000E+00 0. -1.
        -11    1    4    4    0    0 -0.75729468791E-01  0.12748455134E-01 -0.32220024901E-01  0.83281850828E-01  0.51100000000E-03 0. -1.
         11    1    4    4    0    0 -0.33325300011E-01  0.10601240301E-01 -0.29155782101E-01  0.45533313822E-01  0.51100000000E-03 0.  1.
</event>
<event>
 8    1  0.1064839E+005  0.1043930E+01  0.7957747E-01            NaN
         13   -1    0    0    0    0  0.00000000000E+00  0.00000000000E+00  0.74505805969E-08  0.10566000000E+00  0.10566000000E+00 0.  1.
     999900   -1    0    0    0    0 -0.00000000000E+00 -0.00000000000E+00 -0.74505805969E-08  0.93827000000E+00  0.93827000000E+00 0. -1.
     999902    2    1    2    0    0  0.21566653793E-01 -0.84835976718E-02  0.37678165556E-02  0.10204504679E+01  0.10201803120E+01 0.  0.
     999903    2    3    3    0    0  0.73377094418E-01  0.99839980621E-01 -0.38524385390E-01  0.13128965585E+00  0.20015637571E-01 0.  0.
         14    1    1    2    0    0 -0.21566653793E-01  0.84835976718E-02 -0.37678165556E-02  0.23479532084E-01  0.00000000000E+00 0. -1.
     999901    1    3    3    0    0 -0.51810440625E-01 -0.10832357829E+00  0.42292201946E-01  0.88916081207E+00  0.88000000000E+00 0.  1.
        -11    1    4    4    0    0  0.54800511581E-01  0.60766105159E-01 -0.30230463227E-01  0.87233924787E-01  0.51100000000E-03 0.  1.
         11    1    4    4    0    0  0.18576582837E-01  0.39073875462E-01 -0.82939221631E-02  0.44055731061E-01  0.51100000000E-03 0. -1.
</event>
<event>
 8    1  0.1064839E+005  0.1043930E+01  0.7957747E-01            NaN
         13   -1    0    0    0    0  0.00000000000E+00  0.00000000000E+00  0.74505805969E-08  0.10566000000E+00  0.10566000000E+00 0. -1.
     999900   -1    0    0    0    0 -0.00000000000E+00 -0.00000000000E+00 -0.74505805969E-08  0.93827000000E+00  0.93827000000E+00 0.  1.
     999902    2    1    2    0    0 -0.10519381540E-01  0.92295720705E-02 -0.16653085405E-01  0.10221775831E+01  0.10219461061E+01 0.  0.
     999903    2    3    3    0    0 -0.65627672027E-01  0.44136970485E-01 -0.10767967156E+00  0.13508046915E+00  0.19918784606E-01 0.  0.
         14    1    1    2    0    0  0.10519381540E-01 -0.92295720705E-02  0.16653085405E-01  0.21752416925E-01  0.00000000000E+00 0. -1.
     999901    1    3    3    0    0  0.55108290488E-01 -0.34907398415E-01  0.91026586153E-01  0.88709711392E+00  0.88000000000E+00 0. -1.
        -11    1    4    4    0    0 -0.17913726165E-01  0.13044230407E-01 -0.16731522990E-01  0.27771541451E-01  0.51100000000E-03 0.  1.
         11    1    4    4    0    0 -0.47713945862E-01  0.31092740078E-01 -0.90948148568E-01  0.10730892770E+00  0.51100000000E-03 0. -1.
</event>
<event>
 8    1  0.1064839E+005  0.1043930E+01  0.7957747E-01            NaN
         13   -1    0    0    0    0  0.00000000000E+00  0.00000000000E+00  0.74505805969E-08  0.10566000000E+00  0.10566000000E+00 0. -1.
     999900   -1    0    0    0    0 -0.00000000000E+00 -0.00000000000E+00 -0.74505805969E-08  0.93827000000E+00  0.93827000000E+00 0.  1.
     999902    2    1    2    0    0  0.71533078736E-03  0.17846160585E-01 -0.14600090463E-01  0.10208614112E+01  0.10206007354E+01 0.  0.
     999903    2    3    3    0    0  0.11768379519E+00 -0.34244226746E-01 -0.42297221356E-01  0.13116361919E+00  0.19816592773E-01 0.  0.
         14    1    1    2    0    0 -0.71533078736E-03 -0.17846160585E-01  0.14600090463E-01  0.23068588758E-01  0.00000000000E+00 0. -1.
     999901    1    3    3    0    0 -0.11696846440E+00  0.52090387331E-01  0.27697130893E-01  0.88969779205E+00  0.88000000000E+00 0.  1.
        -11    1    4    4    0    0  0.61244021554E-02 -0.53236865904E-02  0.68820750704E-03  0.81599443164E-02  0.51100000000E-03 0. -1.
         11    1    4    4    0    0  0.11155939304E+00 -0.28920540155E-01 -0.42985428863E-01  0.12300367488E+00  0.51100000000E-03 0.  1.
</event>
<event>
 8    1  0.1064839E+005  0.1043930E+01  0.7957747E-01            NaN
         13   -1    0    0    0    0  0.00000000000E+00  0.00000000000E+00  0.74505805969E-08  0.10566000000E+00  0.10566000000E+00 0. -1.
     999900   -1    0    0    0    0 -0.00000000000E+00 -0.00000000000E+00 -0.74505805969E-08  0.93827000000E+00  0.93827000000E+00 0. -1.
     999902    2    1    2    0    0  0.16000540390E-01 -0.59697259879E-02  0.15757249480E-01  0.10206932655E+01  0.10204287316E+01 0.  0.
     999903    2    3    3    0    0  0.76953943908E-01  0.93860471675E-01 -0.44741151900E-01  0.13089472515E+00  0.19999019270E-01 0.  0.
         14    1    1    2    0    0 -0.16000540390E-01  0.59697259879E-02 -0.15757249480E-01  0.23236734545E-01  0.00000000000E+00 0.  1.
     999901    1    3    3    0    0 -0.60953403518E-01 -0.99830197663E-01  0.60498401380E-01  0.88979854031E+00  0.88000000000E+00 0. -1.
        -11    1    4    4    0    0  0.46772787776E-01  0.50267202570E-01 -0.34679046531E-01  0.76924526127E-01  0.51100000000E-03 0. -1.
         11    1    4    4    0    0  0.30181156132E-01  0.43593269105E-01 -0.10062105369E-01  0.53970199019E-01  0.51100000000E-03 0.  1.
</event>
<event>
 8    1  0.1064839E+005  0.1043930E+01  0.7957747E-01            NaN
         13   -1    0    0    0    0  0.00000000000E+00  0.00000000000E+00  0.74505805969E-08  0.10566000000E+00  0.10566000000E+00 0.  1.
     999900   -1    0    0    0    0 -0.00000000000E+00 -0.00000000000E+00 -0.74505805969E-08  0.93827000000E+00  0.93827000000E+00 0.  1.
     999902    2    1    2    0    0 -0.77767137615E-02 -0.20083126749E-01  0.12553797715E-01  0.10190019617E+01  0.10186970064E+01 0.  0.
     999903    2    3    3    0    0  0.66261097505E-01  0.70624275520E-01  0.82010506150E-01  0.12853373392E+00  0.20417548841E-01 0.  0.
         14    1    1    2    0    0  0.77767137615E-02  0.20083126749E-01 -0.12553797715E-01  0.24928038310E-01  0.00000000000E+00 0.  1.
     999901    1    3    3    0    0 -0.74037811267E-01 -0.90707402269E-01 -0.69456708435E-01  0.89046822777E+00  0.88000000000E+00 0.  1.
        -11    1    4    4    0    0  0.29987501513E-01  0.37251310007E-01  0.52786036516E-01  0.71228766073E-01  0.51100000000E-03 0. -1.
         11    1    4    4    0    0  0.36273595993E-01  0.33372965513E-01  0.29224469634E-01  0.57304967846E-01  0.51100000000E-03 0.  1.
</event>
<event>
 8    1  0.1064839E+005  0.1043930E+01  0.7957747E-01            NaN
         13   -1    0    0    0    0  0.00000000000E+00  0.00000000000E+00  0.74505805969E-08  0.10566000000E+00  0.10566000000E+00 0. -1.
     999900   -1    0    0    0    0 -0.00000000000E+00 -0.00000000000E+00 -0.74505805969E-08  0.93827000000E+00  0.93827000000E+00 0.  1.
     999902    2    1    2    0    0  0.13600425827E-01 -0.13851455638E-01  0.15430190314E-01  0.10191323150E+01  0.10188305798E+01 0.  0.
     999903    2    3    3    0    0  0.26361185014E-01  0.10443536372E+00  0.68348371093E-01  0.12955098517E+00  0.22589835269E-01 0.  0.
         14    1    1    2    0    0 -0.13600425827E-01  0.13851455638E-01 -0.15430190314E-01  0.24797684954E-01  0.00000000000E+00 0.  1.
     999901    1    3    3    0    0 -0.12760759187E-01 -0.11828681935E+00 -0.52918180779E-01  0.88958132988E+00  0.88000000000E+00 0. -1.
        -11    1    4    4    0    0  0.90170286777E-02  0.71253299053E-01  0.52113850321E-01  0.88738120040E-01  0.51100000000E-03 0.  1.
         11    1    4    4    0    0  0.17344156336E-01  0.33182064664E-01  0.16234520772E-01  0.40812865129E-01  0.51100000000E-03 0. -1.
</event>
<event>
 8    1  0.1064839E+005  0.1043930E+01  0.7957747E-01            NaN
         13   -1    0    0    0    0  0.00000000000E+00  0.00000000000E+00  0.74505805969E-08  0.10566000000E+00  0.10566000000E+00 0.  1.
     999900   -1    0    0    0    0 -0.00000000000E+00 -0.00000000000E+00 -0.74505805969E-08  0.93827000000E+00  0.93827000000E+00 0. -1.
     999902    2    1    2    0    0 -0.39071301312E-02 -0.18279172172E-01  0.14608477387E-01  0.10202065641E+01  0.10199306996E+01 0.  0.
     999903    2    3    3    0    0 -0.82432528034E-01 -0.85334081443E-01  0.56992020656E-01  0.13315585316E+00  0.20133645426E-01 0.  0.
         14    1    1    2    0    0  0.39071301312E-02  0.18279172172E-01 -0.14608477387E-01  0.23723435938E-01  0.00000000000E+00 0. -1.
     999901    1    3    3    0    0  0.78525397903E-01  0.67054909271E-01 -0.42383543270E-01  0.88705071090E+00  0.88000000000E+00 0. -1.
        -11    1    4    4    0    0 -0.16666858672E-01 -0.18080548654E-01  0.21330732466E-01  0.32556899209E-01  0.51100000000E-03 0.  1.
         11    1    4    4    0    0 -0.65765669362E-01 -0.67253532790E-01  0.35661288191E-01  0.10059895395E+00  0.51100000000E-03 0. -1.
</event>
<event>
 8    1  0.1064839E+005  0.1043930E+01  0.7957747E-01            NaN
         13   -1    0    0    0    0  0.00000000000E+00  0.00000000000E+00  0.74505805969E-08  0.10566000000E+00  0.10566000000E+00 0.  1.
     999900   -1    0    0    0    0 -0.00000000000E+00 -0.00000000000E+00 -0.74505805969E-08  0.93827000000E+00  0.93827000000E+00 0. -1.
     999902    2    1    2    0    0  0.21667552947E-02  0.92971699445E-02 -0.21251917472E-01  0.10206324423E+01  0.10203665058E+01 0.  0.
     999903    2    3    3    0    0  0.16155545095E-01 -0.10462330750E+00 -0.75497371161E-01  0.13152270181E+00  0.19782060839E-01 0.  0.
         14    1    1    2    0    0 -0.21667552947E-02 -0.92971699445E-02  0.21251917472E-01  0.23297557677E-01  0.00000000000E+00 0.  1.
     999901    1    3    3    0    0 -0.13988789800E-01  0.11392047744E+00  0.54245453688E-01  0.88910974051E+00  0.88000000000E+00 0.  1.
        -11    1    4    4    0    0  0.40839748025E-02 -0.61903414281E-01 -0.33966580199E-01  0.70729776199E-01  0.51100000000E-03 0. -1.
         11    1    4    4    0    0  0.12071570293E-01 -0.42719893218E-01 -0.41530790962E-01  0.60792925615E-01  0.51100000000E-03 0.  1.
</event>
<event>
 8    1  0.1064839E+005  0.1043930E+01  0.7957747E-01            NaN
         13   -1    0    0    0    0  0.00000000000E+00  0.00000000000E+00  0.74505805969E-08  0.10566000000E+00  0.10566000000E+00 0.  1.
     999900   -1    0    0    0    0 -0.00000000000E+00 -0.00000000000E+00 -0.74505805969E-08  0.93827000000E+00  0.93827000000E+00 0.  1.
     999902    2    1    2    0    0 -0.14905447553E-01 -0.14626907726E-01 -0.12129165417E-01  0.10197797319E+01  0.10194937303E+01 0.  0.
     999903    2    3    3    0    0 -0.18746853913E-01 -0.82169216752E-01 -0.10066113652E+00  0.13275401083E+00  0.19691070856E-01 0.  0.
         14    1    1    2    0    0  0.14905447553E-01  0.14626907726E-01  0.12129165417E-01  0.24150268117E-01  0.00000000000E+00 0.  1.
     999901    1    3    3    0    0  0.38414063598E-02  0.67542309025E-01  0.88531971103E-01  0.88702572106E+00  0.88000000000E+00 0. -1.
        -11    1    4    4    0    0 -0.19202153874E-01 -0.50404993933E-01 -0.54192888344E-01  0.76462516273E-01  0.51100000000E-03 0. -1.
         11    1    4    4    0    0  0.45529996130E-03 -0.31764222819E-01 -0.46468248176E-01  0.56291494552E-01  0.51100000000E-03 0.  1.
</event>
<event>
 8    1  0.1064839E+005  0.1043930E+01  0.7957747E-01            NaN
         13   -1    0    0    0    0  0.00000000000E+00  0.00000000000E+00  0.74505805969E-08  0.10566000000E+00  0.10566000000E+00 0.  1.
     999900   -1    0    0    0    0 -0.00000000000E+00 -0.00000000000E+00 -0.74505805969E-08  0.93827000000E+00  0.93827000000E+00 0.  1.
     999902    2    1    2    0    0 -0.66826889843E-02 -0.21012951957E-01  0.95142112979E-02  0.10199149485E+01  0.10196321785E+01 0.  0.
     999903    2    3    3    0    0 -0.13199260071E-01 -0.12811474273E+00  0.27243626965E-01  0.13322019185E+00  0.20440071795E-01 0.  0.
         14    1    1    2    0    0  0.66826889843E-02  0.21012951957E-01 -0.95142112979E-02  0.24015051502E-01  0.00000000000E+00 0. -1.
     999901    1    3    3    0    0  0.65165710872E-02  0.10710179077E+00 -0.17729415667E-01  0.88669475665E+00  0.88000000000E+00 0.  1.
        -11    1    4    4    0    0 -0.94711936581E-02 -0.80376108449E-01  0.27045331515E-01  0.85333073286E-01  0.51100000000E-03 0.  1.
         11    1    4    4    0    0 -0.37280664134E-02 -0.47738634283E-01  0.19829544970E-03  0.47887118565E-01  0.51100000000E-03 0. -1.
</event>
<event>
 8    1  0.1064839E+005  0.1043930E+01  0.7957747E-01            NaN
         13   -1    0    0    0    0  0.00000000000E+00  0.00000000000E+00  0.74505805969E-08  0.10566000000E+00  0.10566000000E+00 0.  1.
     999900   -1    0    0    0    0 -0.00000000000E+00 -0.00000000000E+00 -0.74505805969E-08  0.93827000000E+00  0.93827000000E+00 0.  1.
     999902    2    1    2    0    0 -0.92421801387E-02  0.17359928430E-01  0.12613293491E-01  0.10205659211E+01  0.10202984461E+01 0.  0.
     999903    2    3    3    0    0  0.74656386853E-01  0.31636647242E-01  0.10308702666E+00  0.13184307871E+00  0.13461381522E-01 0.  0.
         14    1    1    2    0    0  0.92421801387E-02 -0.17359928430E-01 -0.12613293491E-01  0.23364078872E-01  0.00000000000E+00 0. -1.
     999901    1    3    3    0    0 -0.83898566992E-01 -0.14276718812E-01 -0.90473733164E-01  0.88872284242E+00  0.88000000000E+00 0.  1.
        -11    1    4    4    0    0  0.68854480081E-01  0.32665787157E-01  0.94219513735E-01  0.12118403759E+00  0.51100000000E-03 0.  1.
         11    1    4    4    0    0  0.58019067719E-02 -0.10291399144E-02  0.88675129207E-02  0.10659041118E-01  0.51100000000E-03 0. -1.
</event>
<event>
 8    1  0.1064839E+005  0.1043930E+01  0.7957747E-01            NaN
         13   -1    0    0    0    0  0.00000000000E+00  0.00000000000E+00  0.74505805969E-08  0.10566000000E+00  0.10566000000E+00 0.  1.
     999900   -1    0    0    0    0 -0.00000000000E+00 -0.00000000000E+00 -0.74505805969E-08  0.93827000000E+00  0.93827000000E+00 0. -1.
     999902    2    1    2    0    0 -0.79575205015E-02 -0.18434853504E-01 -0.13523377677E-01  0.10197215779E+01  0.10194341807E+01 0.  0.
     999903    2    3    3    0    0 -0.60566091660E-01 -0.78845673290E-01  0.82817514462E-01  0.13084661685E+00  0.19421760560E-01 0.  0.
         14    1    1    2    0    0  0.79575205015E-02  0.18434853504E-01  0.13523377677E-01  0.24208422089E-01  0.00000000000E+00 0.  1.
     999901    1    3    3    0    0  0.52608571158E-01  0.60410819785E-01 -0.96340892140E-01  0.88887496106E+00  0.88000000000E+00 0. -1.
        -11    1    4    4    0    0 -0.48491623823E-01 -0.58366761617E-01  0.72414702206E-01  0.10489169013E+00  0.51100000000E-03 0.  1.
         11    1    4    4    0    0 -0.12074467837E-01 -0.20478911673E-01  0.10402812256E-01  0.25954926713E-01  0.51100000000E-03 0. -1.
</event>
<event>
 8    1  0.1210409E+005  0.1043930E+01  0.7957747E-01            NaN
         13   -1    0    0    0    0  0.00000000000E+00  0.00000000000E+00  0.74505805969E-08  0.10566000000E+00  0.10566000000E+00 0. -1.
     999900   -1    0    0    0    0 -0.00000000000E+00 -0.00000000000E+00 -0.74505805969E-08  0.93827000000E+00  0.93827000000E+00 0. -1.
     999902    2    1    2    0    0 -0.47570424603E-02  0.20911036609E-01  0.14803035237E-01  0.10178717814E+01  0.10175381725E+01 0.  0.
     999903    2    3    3    0    0  0.11063043692E+00  0.93318712357E-02 -0.58682394922E-01  0.12722681513E+00  0.20417189361E-01 0.  0.
         14    1    1    2    0    0  0.47570424603E-02 -0.20911036609E-01 -0.14803035237E-01  0.26058218613E-01  0.00000000000E+00 0.  1.
     999901    1    3    3    0    0 -0.11538747938E+00  0.11579165373E-01  0.73485430159E-01  0.89064496625E+00  0.88000000000E+00 0.  1.
        -11    1    4    4    0    0  0.62562421188E-01  0.15288374511E-01 -0.35193805872E-01  0.73393841927E-01  0.51100000000E-03 0. -1.
         11    1    4    4    0    0  0.48068015732E-01 -0.59565032752E-02 -0.23488589050E-01  0.53832973206E-01  0.51100000000E-03 0.  1.
</event>
<event>
 8    1  0.1064839E+005  0.1043930E+01  0.7957747E-01            NaN
         13   -1    0    0    0    0  0.00000000000E+00  0.00000000000E+00  0.74505805969E-08  0.10566000000E+00  0.10566000000E+00 0.  1.
     999900   -1    0    0    0    0 -0.00000000000E+00 -0.00000000000E+00 -0.74505805969E-08  0.93827000000E+00  0.93827000000E+00 0. -1.
     999902    2    1    2    0    0  0.21616476551E-01 -0.67345293739E-02 -0.51715573828E-02  0.10207056389E+01  0.10204413899E+01 0.  0.
     999903    2    3    3    0    0  0.76670924303E-01 -0.10716476514E+00  0.12902114008E-02  0.13326044116E+00  0.19848501512E-01 0.  0.
         14    1    1    2    0    0 -0.21616476551E-01  0.67345293739E-02  0.51715573828E-02  0.23224361135E-01  0.00000000000E+00 0.  1.
     999901    1    3    3    0    0 -0.55054447751E-01  0.10043023576E+00 -0.64617687836E-02  0.88744519770E+00  0.88000000000E+00 0. -1.
        -11    1    4    4    0    0  0.42082292699E-01 -0.55568816281E-01 -0.90315032573E-02  0.70289699628E-01  0.51100000000E-03 0. -1.
         11    1    4    4    0    0  0.34588631604E-01 -0.51595948857E-01  0.10321714658E-01  0.62970741533E-01  0.51100000000E-03 0.  1.
</event>
<event>
 8    1  0.1064839E+005  0.1043930E+01  0.7957747E-01            NaN
         13   -1    0    0    0    0  0.00000000000E+00  0.00000000000E+00  0.74505805969E-08  0.10566000000E+00  0.10566000000E+00 0.  1.
     999900   -1    0    0    0    0 -0.00000000000E+00 -0.00000000000E+00 -0.74505805969E-08  0.93827000000E+00  0.93827000000E+00 0. -1.
     999902    2    1    2    0    0 -0.18813218485E-01  0.11316164912E-01  0.17989431073E-01  0.10155466879E+01  0.10151499706E+01 0.  0.
     999903    2    3    3    0    0  0.68121673788E-01 -0.76966200016E-02 -0.10046001311E+00  0.12316255963E+00  0.19416525461E-01 0.  0.
         14    1    1    2    0    0  0.18813218485E-01 -0.11316164912E-01 -0.17989431073E-01  0.28383312147E-01  0.00000000000E+00 0.  1.
     999901    1    3    3    0    0 -0.86934892273E-01  0.19012784913E-01  0.11844944418E+00  0.89238412823E+00  0.88000000000E+00 0.  1.
        -11    1    4    4    0    0  0.26957331683E-01 -0.75380645748E-02 -0.55759393610E-01  0.62393038440E-01  0.51100000000E-03 0.  1.
         11    1    4    4    0    0  0.41164342105E-01 -0.15855542686E-03 -0.44700619498E-01  0.60769521186E-01  0.51100000000E-03 0. -1.
</event>
<event>
 8    1  0.1064839E+005  0.1043930E+01  0.7957747E-01            NaN
         13   -1    0    0    0    0  0.00000000000E+00  0.00000000000E+00  0.74505805969E-08  0.10566000000E+00  0.10566000000E+00 0. -1.
     999900   -1    0    0    0    0 -0.00000000000E+00 -0.00000000000E+00 -0.74505805969E-08  0.93827000000E+00  0.93827000000E+00 0.  1.
     999902    2    1    2    0    0 -0.11674148943E-01  0.15567929810E-01 -0.14249883848E-01  0.10198114308E+01  0.10195261885E+01 0.  0.
     999903    2    3    3    0    0  0.14369502339E-01 -0.10349450140E+00  0.69886582322E-01  0.12743646516E+00  0.20936185104E-01 0.  0.
         14    1    1    2    0    0  0.11674148943E-01 -0.15567929810E-01  0.14249883848E-01  0.24118569232E-01  0.00000000000E+00 0. -1.
     999901    1    3    3    0    0 -0.26043651282E-01  0.11906243121E+00 -0.84136466170E-01  0.89237496560E+00  0.88000000000E+00 0. -1.
        -11    1    4    4    0    0  0.12352119777E-01 -0.85801193253E-01  0.47572209692E-01  0.98882738042E-01  0.51100000000E-03 0. -1.
         11    1    4    4    0    0  0.20173825620E-02 -0.17693308149E-01  0.22314372630E-01  0.28553727122E-01  0.51100000000E-03 0.  1.
</event>
<event>
 7    1  0.1064839E+005  0.1043930E+01  0.7957747E-01            NaN
         13   -1    0    0    0    0  0.00000000000E+00  0.00000000000E+00  0.74505805969E-08  0.10566000000E+00  0.10566000000E+00 0.  1.
     999900   -1    0    0    0    0 -0.00000000000E+00 -0.00000000000E+00 -0.74505805969E-08  0.93827000000E+00  0.93827000000E+00 0.  1.
     999903    2    1    2    0    0 -0.76009946636E-01 -0.20627209032E-01 -0.84576574138E-01  0.11717678198E+00  0.19344446269E-01 0.  0.
         14    1    1    2    0    0 -0.16187616849E-01 -0.52604757686E-02  0.36476315224E-01  0.40252119408E-01  0.00000000000E+00 0.  1.
     999901    1    1    2    0    0  0.92197563485E-01  0.25887684801E-01  0.48100258915E-01  0.88650109861E+00  0.88000000000E+00 0. -1.
        -11    1    3    3    0    0 -0.14178631044E-01 -0.89833041044E-02 -0.97729877102E-02  0.19429506960E-01  0.51100000000E-03 0.  1.
         11    1    3    3    0    0 -0.61831315592E-01 -0.11643904928E-01 -0.74803586428E-01  0.97747275018E-01  0.51100000000E-03 0. -1.
</event>
<event>
 8    1  0.1064839E+005  0.1043930E+01  0.7957747E-01            NaN
         13   -1    0    0    0    0  0.00000000000E+00  0.00000000000E+00  0.74505805969E-08  0.10566000000E+00  0.10566000000E+00 0. -1.
     999900   -1    0    0    0    0 -0.00000000000E+00 -0.00000000000E+00 -0.74505805969E-08  0.93827000000E+00  0.93827000000E+00 0. -1.
     999902    2    1    2    0    0 -0.10129798415E-01 -0.20179970023E-01 -0.64399202060E-02  0.10204498684E+01  0.10201796986E+01 0.  0.
     999903    2    3    3    0    0  0.27764377083E-01 -0.11952882179E+00  0.45676775143E-01  0.13251838864E+00  0.20414594419E-01 0.  0.
         14    1    1    2    0    0  0.10129798415E-01  0.20179970023E-01  0.64399202060E-02  0.23480131565E-01  0.00000000000E+00 0.  1.
     999901    1    3    3    0    0 -0.37894175498E-01  0.99348851770E-01 -0.52116695349E-01  0.88793147980E+00  0.88000000000E+00 0. -1.
        -11    1    4    4    0    0  0.27475613224E-01 -0.11024602043E+00  0.47308558513E-01  0.12307499816E+00  0.51100000000E-03 0. -1.
         11    1    4    4    0    0  0.28876385873E-03 -0.92828013640E-02 -0.16317833695E-02  0.94433904766E-02  0.51100000000E-03 0.  1.
</event>
<event>
 8    1  0.1064839E+005  0.1043930E+01  0.7957747E-01            NaN
         13   -1    0    0    0    0  0.00000000000E+00  0.00000000000E+00  0.74505805969E-08  0.10566000000E+00  0.10566000000E+00 0.  1.
     999900   -1    0    0    0    0 -0.00000000000E+00 -0.00000000000E+00 -0.74505805969E-08  0.93827000000E+00  0.93827000000E+00 0. -1.
     999902    2    1    2    0    0 -0.87302446703E-02  0.22026614611E-01  0.39163879196E-03  0.10202331162E+01  0.10199578761E+01 0.  0.
     999903    2    3    3    0    0  0.11855450366E+00 -0.25455731841E-01 -0.38926507836E-01  0.12894085374E+00  0.20181826681E-01 0.  0.
         14    1    1    2    0    0  0.87302446703E-02 -0.22026614611E-01 -0.39163879196E-03  0.23696883850E-01  0.00000000000E+00 0. -1.
     999901    1    3    3    0    0 -0.12728474833E+00  0.47482346452E-01  0.39318146628E-01  0.89129226241E+00  0.88000000000E+00 0.  1.
        -11    1    4    4    0    0  0.79086782069E-01 -0.19640727539E-01 -0.35529925117E-01  0.88899459932E-01  0.51100000000E-03 0. -1.
         11    1    4    4    0    0  0.39467721593E-01 -0.58150043013E-02 -0.33965827191E-02  0.40041393806E-01  0.51100000000E-03 0.  1.
</event>
<event>
 8    1  0.1064839E+005  0.1043930E+01  0.7957747E-01            NaN
         13   -1    0    0    0    0  0.00000000000E+00  0.00000000000E+00  0.74505805969E-08  0.10566000000E+00  0.10566000000E+00 0. -1.
     999900   -1    0    0    0    0 -0.00000000000E+00 -0.00000000000E+00 -0.74505805969E-08  0.93827000000E+00  0.93827000000E+00 0.  1.
     999902    2    1    2    0    0 -0.37208356103E-02  0.23212685600E-01  0.34555674852E-02  0.10201683852E+01  0.10198916216E+01 0.  0.
     999903    2    3    3    0    0 -0.78517632026E-01 -0.90961383024E-01  0.41228004276E-01  0.12884519149E+00  0.21502169478E-01 0.  0.
         14    1    1    2    0    0  0.37208356103E-02 -0.23212685600E-01 -0.34555674852E-02  0.23761614782E-01  0.00000000000E+00 0.  1.
     999901    1    3    3    0    0  0.74796796416E-01  0.11417406862E+00 -0.37772436791E-01  0.89132319373E+00  0.88000000000E+00 0.  1.
        -11    1    4    4    0    0 -0.24430830482E-01 -0.31616359023E-01  0.34549888893E-02  0.40108075311E-01  0.51100000000E-03 0.  1.
         11    1    4    4    0    0 -0.54086801544E-01 -0.59345024000E-01  0.37773015387E-01  0.88737116176E-01  0.51100000000E-03 0. -1.
</event>
<event>
 8    1  0.1064839E+005  0.1043930E+01  0.7957747E-01            NaN
         13   -1    0    0    0    0  0.00000000000E+00  0.00000000000E+00  0.74505805969E-08  0.10566000000E+00  0.10566000000E+00 0.  1.
     999900   -1    0    0    0    0 -0.00000000000E+00 -0.00000000000E+00 -0.74505805969E-08  0.93827000000E+00  0.93827000000E+00 0.  1.
     999902    2    1    2    0    0  0.17440736165E-01 -0.12206414332E-01 -0.14523754989E-01  0.10181595656E+01  0.10178333782E+01 0.  0.
     999903    2    3    3    0    0 -0.85385309410E-01 -0.91417401000E-01 -0.20432319729E-01  0.12861896105E+00  0.21853264806E-01 0.  0.
         14    1    1    2    0    0 -0.17440736165E-01  0.12206414332E-01  0.14523754989E-01  0.25770434373E-01  0.00000000000E+00 0.  1.
     999901    1    3    3    0    0  0.10282604558E+00  0.79210986669E-01  0.59085647404E-02  0.88954060458E+00  0.88000000000E+00 0. -1.
        -11    1    4    4    0    0 -0.50246746109E-01 -0.66798527302E-01 -0.18820062637E-01  0.85681005030E-01  0.51100000000E-03 0. -1.
         11    1    4    4    0    0 -0.35138563301E-01 -0.24618873699E-01 -0.16122570923E-02  0.42937956018E-01  0.51100000000E-03 0.  1.
</event>
<event>
 8    1  0.1064839E+005  0.1043930E+01  0.7957747E-01            NaN
         13   -1    0    0    0    0  0.00000000000E+00  0.00000000000E+00  0.74505805969E-08  0.10566000000E+00  0.10566000000E+00 0. -1.
     999900   -1    0    0    0    0 -0.00000000000E+00 -0.00000000000E+00 -0.74505805969E-08  0.93827000000E+00  0.93827000000E+00 0.  1.
     999902    2    1    2    0    0 -0.74342282983E-02  0.28702039612E-01 -0.80353780513E-02  0.10132112414E+01  0.10127454654E+01 0.  0.
     999903    2    3    3    0    0 -0.80604570301E-01 -0.44279140751E-01  0.79183363660E-01  0.12288138090E+00  0.19289624963E-01 0.  0.
         14    1    1    2    0    0  0.74342282983E-02 -0.28702039612E-01  0.80353780513E-02  0.30718758580E-01  0.00000000000E+00 0. -1.
     999901    1    3    3    0    0  0.73170342002E-01  0.72981180363E-01 -0.87218741712E-01  0.89032986052E+00  0.88000000000E+00 0.  1.
        -11    1    4    4    0    0 -0.30598493359E-01 -0.15785173466E-01  0.42203925765E-01  0.54469000066E-01  0.51100000000E-03 0.  1.
         11    1    4    4    0    0 -0.50006076941E-01 -0.28493967285E-01  0.36979437895E-01  0.68412380830E-01  0.51100000000E-03 0. -1.
</event>
<event>
 8    1  0.1064839E+005  0.1043930E+01  0.7957747E-01            NaN
         13   -1    0    0    0    0  0.00000000000E+00  0.00000000000E+00  0.74505805969E-08  0.10566000000E+00  0.10566000000E+00 0. -1.
     999900   -1    0    0    0    0 -0.00000000000E+00 -0.00000000000E+00 -0.74505805969E-08  0.93827000000E+00  0.93827000000E+00 0. -1.
     999902    2    1    2    0    0 -0.11379165378E-01 -0.28679404600E-02 -0.19988836741E-01  0.10207510423E+01  0.10204878374E+01 0.  0.
     999903    2    3    3    0    0 -0.37768199217E-01 -0.11105195875E+00 -0.59139523283E-01  0.13286989078E+00  0.19948690323E-01 0.  0.
         14    1    1    2    0    0  0.11379165378E-01  0.28679404600E-02  0.19988836741E-01  0.23178957730E-01  0.00000000000E+00 0. -1.
     999901    1    3    3    0    0  0.26389033839E-01  0.10818401829E+00  0.39150686542E-01  0.88788115149E+00  0.88000000000E+00 0. -1.
        -11    1    4    4    0    0 -0.21145379421E-01 -0.66429497406E-01 -0.45806963620E-01  0.83417889170E-01  0.51100000000E-03 0.  1.
         11    1    4    4    0    0 -0.16622819796E-01 -0.44622461348E-01 -0.13332559663E-01  0.49452001606E-01  0.51100000000E-03 0. -1.
</event>
<event>
 8    1  0.1064839E+005  0.1043930E+01  0.7957747E-01            NaN
         13   -1    0    0    0    0  0.00000000000E+00  0.00000000000E+00  0.74505805969E-08  0.10566000000E+00  0.10566000000E+00 0.  1.
     999900   -1    0    0    0    0 -0.00000000000E+00 -0.00000000000E+00 -0.74505805969E-08  0.93827000000E+00  0.93827000000E+00 0. -1.
     999902    2    1    2    0    0 -0.47677561979E-02  0.84231990751E-02 -0.21067124542E-01  0.10207458348E+01  0.10204825102E+01 0.  0.
     999903    2    3    3    0    0  0.82936664792E-01  0.52850767076E-01  0.81768327227E-01  0.12931944721E+00  0.19125013526E-01 0.  0.
         14    1    1    2    0    0  0.47677561979E-02 -0.84231990751E-02  0.21067124542E-01  0.23184165249E-01  0.00000000000E+00 0.  1.
     999901    1    3    3    0    0 -0.87704420990E-01 -0.44427568001E-01 -0.10283545177E+00  0.89142638754E+00  0.88000000000E+00 0. -1.
        -11    1    4    4    0    0  0.86549340890E-02 -0.53890676084E-03  0.63613850676E-02  0.10766923681E-01  0.51100000000E-03 0.  1.
         11    1    4    4    0    0  0.74281730703E-01  0.53389673836E-01  0.75406942160E-01  0.11855252353E+00  0.51100000000E-03 0. -1.
</event>
<event>
 8    1  0.1064839E+005  0.1043930E+01  0.7957747E-01            NaN
         13   -1    0    0    0    0  0.00000000000E+00  0.00000000000E+00  0.74505805969E-08  0.10566000000E+00  0.10566000000E+00 0.  1.
     999900   -1    0    0    0    0 -0.00000000000E+00 -0.00000000000E+00 -0.74505805969E-08  0.93827000000E+00  0.93827000000E+00 0.  1.
     999902    2    1    2    0    0  0.99380434781E-02  0.18432700317E-01  0.11400328154E-01  0.10200868326E+01  0.10198081434E+01 0.  0.
     999903    2    3    3    0    0 -0.60228314151E-01 -0.84950200730E-01  0.73765318655E-01  0.12907575860E+00  0.19371184582E-01 0.  0.
         14    1    1    2    0    0 -0.99380434781E-02 -0.18432700317E-01 -0.11400328154E-01  0.23843167389E-01  0.00000000000E+00 0. -1.
     999901    1    3    3    0    0  0.70166357629E-01  0.10338290105E+00 -0.62364990501E-01  0.89101107401E+00  0.88000000000E+00 0. -1.
        -11    1    4    4    0    0 -0.39356133481E-01 -0.46060673794E-01  0.52093064983E-01  0.79902687397E-01  0.51100000000E-03 0.  1.
         11    1    4    4    0    0 -0.20872180670E-01 -0.38889526935E-01  0.21672253672E-01  0.49173071201E-01  0.51100000000E-03 0. -1.
</event>
<event>
 8    1  0.1064839E+005  0.1043930E+01  0.7957747E-01            NaN
         13   -1    0    0    0    0  0.00000000000E+00  0.00000000000E+00  0.74505805969E-08  0.10566000000E+00  0.10566000000E+00 0.  1.
     999900   -1    0    0    0    0 -0.00000000000E+00 -0.00000000000E+00 -0.74505805969E-08  0.93827000000E+00  0.93827000000E+00 0.  1.
     999902    2    1    2    0    0 -0.17546384197E-01 -0.67577763453E-02  0.12442494000E-01  0.10213831866E+01  0.10211342982E+01 0.  0.
     999903    2    3    3    0    0 -0.59783052394E-01  0.10346125907E+00 -0.50673415412E-01  0.13126196451E+00  0.19587312664E-01 0.  0.
         14    1    1    2    0    0  0.17546384197E-01  0.67577763453E-02 -0.12442494000E-01  0.22546813444E-01  0.00000000000E+00 0. -1.
     999901    1    3    3    0    0  0.42236668196E-01 -0.11021903541E+00  0.63115909412E-01  0.89012122204E+00  0.88000000000E+00 0.  1.
        -11    1    4    4    0    0 -0.51961169734E-01  0.92492137017E-01 -0.37804922356E-01  0.11262429509E+00  0.51100000000E-03 0.  1.
         11    1    4    4    0    0 -0.78218826595E-02  0.10969122050E-01 -0.12868493056E-01  0.18637669421E-01  0.51100000000E-03 0. -1.
</event>
<event>
 8    1  0.1064839E+005  0.1043930E+01  0.7957747E-01            NaN
         13   -1    0    0    0    0  0.00000000000E+00  0.00000000000E+00  0.74505805969E-08  0.10566000000E+00  0.10566000000E+00 0.  1.
     999900   -1    0    0    0    0 -0.00000000000E+00 -0.00000000000E+00 -0.74505805969E-08  0.93827000000E+00  0.93827000000E+00 0. -1.
     999902    2    1    2    0    0  0.23107740336E-01  0.10297729111E-02 -0.40583005290E-02  0.10204460076E+01  0.10201757479E+01 0.  0.
     999903    2    3    3    0    0  0.15354270155E-01 -0.24957155119E-01 -0.12665637529E+00  0.13153334336E+00  0.20014240185E-01 0.  0.
         14    1    1    2    0    0 -0.23107740336E-01 -0.10297729111E-02  0.40583005290E-02  0.23483992396E-01  0.00000000000E+00 0.  1.
     999901    1    3    3    0    0  0.77534701804E-02  0.25986928030E-01  0.12259807476E+00  0.88891266425E+00  0.88000000000E+00 0. -1.
        -11    1    4    4    0    0  0.13131935101E-01 -0.21609118621E-01 -0.65046972089E-01  0.69790912202E-01  0.51100000000E-03 0. -1.
         11    1    4    4    0    0  0.22223350539E-02 -0.33480364984E-02 -0.61609403197E-01  0.61742431154E-01  0.51100000000E-03 0.  1.
</event>
<event>
 8    1  0.1064839E+005  0.1043930E+01  0.7957747E-01            NaN
         13   -1    0    0    0    0  0.00000000000E+00  0.00000000000E+00  0.74505805969E-08  0.10566000000E+00  0.10566000000E+00 0.  1.
     999900   -1    0    0    0    0 -0.00000000000E+00 -0.00000000000E+00 -0.74505805969E-08  0.93827000000E+00  0.93827000000E+00 0. -1.
     999902    2    1    2    0    0 -0.61382552818E-02 -0.48160894034E-02 -0.22835054059E-01  0.10197988461E+01  0.10195133025E+01 0.  0.
     999903    2    3    3    0    0 -0.45965620427E-01 -0.96302630243E-01  0.70197333497E-01  0.12928717783E+00  0.20011843228E-01 0.  0.
         14    1    1    2    0    0  0.61382552818E-02  0.48160894034E-02  0.22835054059E-01  0.24131153908E-01  0.00000000000E+00 0.  1.
     999901    1    3    3    0    0  0.39827365145E-01  0.91486540839E-01 -0.93032387556E-01  0.89051166826E+00  0.88000000000E+00 0. -1.
        -11    1    4    4    0    0 -0.39965848460E-01 -0.92383469613E-01  0.61316664256E-01  0.11786419701E+00  0.51100000000E-03 0. -1.
         11    1    4    4    0    0 -0.59997719671E-02 -0.39191606301E-02  0.88806692411E-02  0.11422980823E-01  0.51100000000E-03 0.  1.
</event>
<event>
 8    1  0.1064839E+005  0.1043930E+01  0.7957747E-01            NaN
         13   -1    0    0    0    0  0.00000000000E+00  0.00000000000E+00  0.74505805969E-08  0.10566000000E+00  0.10566000000E+00 0.  1.
     999900   -1    0    0    0    0 -0.00000000000E+00 -0.00000000000E+00 -0.74505805969E-08  0.93827000000E+00  0.93827000000E+00 0.  1.
     999902    2    1    2    0    0 -0.23156140577E-01 -0.52557530647E-02 -0.91741388894E-02  0.10184742617E+01  0.10181560918E+01 0.  0.
     999903    2    3    3    0    0  0.10048389208E+00  0.53610750496E-01 -0.52222829719E-01  0.12684355751E+00  0.19772177459E-01 0.  0.
         14    1    1    2    0    0  0.23156140577E-01  0.52557530647E-02  0.91741388894E-02  0.25455738273E-01  0.00000000000E+00 0.  1.
     999901    1    3    3    0    0 -0.12364003266E+00 -0.58866503561E-01  0.43048690830E-01  0.89163070422E+00  0.88000000000E+00 0. -1.
        -11    1    4    4    0    0  0.36964494190E-01  0.14934484110E-01 -0.27647946552E-01  0.48518890300E-01  0.51100000000E-03 0. -1.
         11    1    4    4    0    0  0.63519397892E-01  0.38676266386E-01 -0.24574883168E-01  0.78324667212E-01  0.51100000000E-03 0.  1.
</event>
<event>
 8    1  0.1064839E+005  0.1043930E+01  0.7957747E-01            NaN
         13   -1    0    0    0    0  0.00000000000E+00  0.00000000000E+00  0.74505805969E-08  0.10566000000E+00  0.10566000000E+00 0.  1.
     999900   -1    0    0    0    0 -0.00000000000E+00 -0.00000000000E+00 -0.74505805969E-08  0.93827000000E+00  0.93827000000E+00 0.  1.
     999902    2    1    2    0    0 -0.50502566846E-02  0.13676891841E-01  0.17710538830E-01  0.10209903913E+01  0.10207326552E+01 0.  0.
     999903    2    3    3    0    0  0.22095524559E-01 -0.33306701974E-01 -0.12050216924E+00  0.12855153947E+00  0.20178624973E-01 0.  0.
         14    1    1    2    0    0  0.50502566846E-02 -0.13676891841E-01 -0.17710538830E-01  0.22939608729E-01  0.00000000000E+00 0. -1.
     999901    1    3    3    0    0 -0.27145781244E-01  0.46983593815E-01  0.13821270807E+00  0.89243885180E+00  0.88000000000E+00 0. -1.
        -11    1    4    4    0    0  0.16916067949E-01 -0.20375709052E-01 -0.48975397755E-01  0.55679202405E-01  0.51100000000E-03 0.  1.
         11    1    4    4    0    0  0.51794566103E-02 -0.12930992923E-01 -0.71526771490E-01  0.72872337067E-01  0.51100000000E-03 0. -1.
</event>
<event>
 8    1  0.1064839E+005  0.1043930E+01  0.7957747E-01            NaN
         13   -1    0    0    0    0  0.00000000000E+00  0.00000000000E+00  0.74505805969E-08  0.10566000000E+00  0.10566000000E+00 0. -1.
     999900   -1    0    0    0    0 -0.00000000000E+00 -0.00000000000E+00 -0.74505805969E-08  0.93827000000E+00  0.93827000000E+00 0. -1.
     999902    2    1    2    0    0 -0.17418690946E-01 -0.14013396024E-01  0.86355946242E-02  0.10199642003E+01  0.10196826027E+01 0.  0.
     999903    2    3    3    0    0 -0.60068997464E-01  0.30251903200E-01  0.11157065661E+00  0.13183465321E+00  0.20221331992E-01 0.  0.
         14    1    1    2    0    0  0.17418690946E-01  0.14013396024E-01 -0.86355946242E-02  0.23965799734E-01  0.00000000000E+00 0.  1.
     999901    1    3    3    0    0  0.42650306518E-01 -0.44265299224E-01 -0.10293506199E+00  0.88812954705E+00  0.88000000000E+00 0. -1.
        -11    1    4    4    0    0 -0.27836817938E-01  0.66862482581E-02  0.61111661047E-01  0.67486966043E-01  0.51100000000E-03 0. -1.
         11    1    4    4    0    0 -0.32232179525E-01  0.23565654942E-01  0.50458995565E-01  0.64347687170E-01  0.51100000000E-03 0.  1.
</event>
<event>
 8    1  0.1064839E+005  0.1043930E+01  0.7957747E-01            NaN
         13   -1    0    0    0    0  0.00000000000E+00  0.00000000000E+00  0.74505805969E-08  0.10566000000E+00  0.10566000000E+00 0.  1.
     999900   -1    0    0    0    0 -0.00000000000E+00 -0.00000000000E+00 -0.74505805969E-08  0.93827000000E+00  0.93827000000E+00 0. -1.
     999902    2    1    2    0    0  0.11476072647E-01  0.84304089466E-03 -0.20623836741E-01  0.10203131924E+01  0.10200398310E+01 0.  0.
     999903    2    3    3    0    0  0.11923597498E+00  0.50581240656E-01 -0.17767836375E-01  0.13234120980E+00  0.20562591420E-01 0.  0.
         14    1    1    2    0    0 -0.11476072647E-01 -0.84304089466E-03  0.20623836741E-01  0.23616807644E-01  0.00000000000E+00 0.  1.
     999901    1    3    3    0    0 -0.10775990233E+00 -0.49738199761E-01 -0.28560003662E-02  0.88797198256E+00  0.88000000000E+00 0.  1.
        -11    1    4    4    0    0  0.91892461651E-01  0.32477518041E-01 -0.65723027285E-02  0.97685566848E-01  0.51100000000E-03 0. -1.
         11    1    4    4    0    0  0.27343513331E-01  0.18103722615E-01 -0.11195533646E-01  0.34655642952E-01  0.51100000000E-03 0.  1.
</event>
<event>
 8    1  0.1064839E+005  0.1043930E+01  0.7957747E-01            NaN
         13   -1    0    0    0    0  0.00000000000E+00  0.00000000000E+00  0.74505805969E-08  0.10566000000E+00  0.10566000000E+00 0.  1.
     999900   -1    0    0    0    0 -0.00000000000E+00 -0.00000000000E+00 -0.74505805969E-08  0.93827000000E+00  0.93827000000E+00 0. -1.
     999902    2    1    2    0    0 -0.84167265577E-02  0.21290280079E-02  0.22483210124E-01  0.10198287805E+01  0.10195439533E+01 0.  0.
     999903    2    3    3    0    0  0.18130384254E-01 -0.96597497786E-01  0.85271349069E-01  0.13168801099E+00  0.20266767250E-01 0.  0.
         14    1    1    2    0    0  0.84167265577E-02 -0.21290280079E-02 -0.22483210124E-01  0.24101219548E-01  0.00000000000E+00 0. -1.
     999901    1    3    3    0    0 -0.26547110811E-01  0.98726525794E-01 -0.62788138945E-01  0.88814076946E+00  0.88000000000E+00 0. -1.
        -11    1    4    4    0    0  0.34397038761E-02 -0.14813801779E-01  0.24115607590E-01  0.28514977404E-01  0.51100000000E-03 0. -1.
         11    1    4    4    0    0  0.14690680377E-01 -0.81783696007E-01  0.61155741479E-01  0.10317303359E+00  0.51100000000E-03 0.  1.
</event>
<event>
 8    1  0.1064839E+005  0.1043930E+01  0.7957747E-01            NaN
         13   -1    0    0    0    0  0.00000000000E+00  0.00000000000E+00  0.74505805969E-08  0.10566000000E+00  0.10566000000E+00 0.  1.
     999900   -1    0    0    0    0 -0.00000000000E+00 -0.00000000000E+00 -0.74505805969E-08  0.93827000000E+00  0.93827000000E+00 0.  1.
     999902    2    1    2    0    0 -0.13247420546E-01 -0.15231654860E-01 -0.73938834027E-02  0.10224319310E+01  0.10222058924E+01 0.  0.
     999903    2    3    3    0    0 -0.16764567718E-02 -0.64811854753E-01 -0.11569392424E+00  0.13433228437E+00  0.21370341447E-01 0.  0.
         14    1    1    2    0    0  0.13247420546E-01  0.15231654860E-01  0.73938834027E-02  0.21498069045E-01  0.00000000000E+00 0. -1.
     999901    1    3    3    0    0 -0.11570963774E-01  0.49580199892E-01  0.10830004084E+00  0.88809964659E+00  0.88000000000E+00 0. -1.
        -11    1    4    4    0    0  0.80139608080E-02 -0.36543091823E-01 -0.52968715164E-01  0.64850343368E-01  0.51100000000E-03 0. -1.
         11    1    4    4    0    0 -0.96904175798E-02 -0.28268762929E-01 -0.62725209075E-01  0.69481940999E-01  0.51100000000E-03 0.  1.
</event>
<event>
 8    1  0.1064839E+005  0.1043930E+01  0.7957747E-01            NaN
         13   -1    0    0    0    0  0.00000000000E+00  0.00000000000E+00  0.74505805969E-08  0.10566000000E+00  0.10566000000E+00 0. -1.
     999900   -1    0    0    0    0 -0.00000000000E+00 -0.00000000000E+00 -0.74505805969E-08  0.93827000000E+00  0.93827000000E+00 0.  1.
     999902    2    1    2    0    0  0.14042305952E-01 -0.19108227499E-01 -0.29441892226E-02  0.10200348339E+01  0.10197549134E+01 0.  0.
     999903    2    3    3    0    0 -0.59459772002E-01 -0.70558602886E-01  0.89476647607E-01  0.13065791283E+00  0.23482733857E-01 0.  0.
         14    1    1    2    0    0 -0.14042305952E-01  0.19108227499E-01  0.29441892226E-02  0.23895166138E-01  0.00000000000E+00 0. -1.
     999901    1    3    3    0    0  0.73502077954E-01  0.51450375387E-01 -0.92420836829E-01  0.88937692104E+00  0.88000000000E+00 0.  1.
        -11    1    4    4    0    0 -0.11794577722E-02 -0.71933830599E-02  0.13004012608E-02  0.74221321008E-02  0.51100000000E-03 0.  1.
         11    1    4    4    0    0 -0.58280314230E-01 -0.63365219826E-01  0.88176246346E-01  0.12323578073E+00  0.51100000000E-03 0. -1.
</event>
<event>
 8    1  0.1064839E+005  0.1043930E+01  0.7957747E-01            NaN
         13   -1    0    0    0    0  0.00000000000E+00  0.00000000000E+00  0.74505805969E-08  0.10566000000E+00  0.10566000000E+00 0.  1.
     999900   -1    0    0    0    0 -0.00000000000E+00 -0.00000000000E+00 -0.74505805969E-08  0.93827000000E+00  0.93827000000E+00 0.  1.
     999902    2    1    2    0    0  0.22763947398E-02 -0.72622568644E-02  0.22211744814E-01  0.10204505631E+01  0.10201804095E+01 0.  0.
     999903    2    3    3    0    0  0.62993131350E-01  0.84741703604E-02 -0.10950473750E+00  0.12843969495E+00  0.21575948287E-01 0.  0.
         14    1    1    2    0    0 -0.22763947398E-02  0.72622568644E-02 -0.22211744814E-01  0.23479436864E-01  0.00000000000E+00 0. -1.
     999901    1    3    3    0    0 -0.60716736610E-01 -0.15736427225E-01  0.13171648231E+00  0.89201086818E+00  0.88000000000E+00 0. -1.
        -11    1    4    4    0    0  0.23959010842E-01 -0.67759181262E-02 -0.34996260770E-01  0.42952842233E-01  0.51100000000E-03 0. -1.
         11    1    4    4    0    0  0.39034120508E-01  0.15250088487E-01 -0.74508476727E-01  0.85486852719E-01  0.51100000000E-03 0.  1.
</event>
<event>
 8    1  0.1064839E+005  0.1043930E+01  0.7957747E-01            NaN
         13   -1    0    0    0    0  0.00000000000E+00  0.00000000000E+00  0.74505805969E-08  0.10566000000E+00  0.10566000000E+00 0. -1.
     999900   -1    0    0    0    0 -0.00000000000E+00 -0.00000000000E+00 -0.74505805969E-08  0.93827000000E+00  0.93827000000E+00 0.  1.
     999902    2    1    2    0    0  0.68672204880E-03  0.27980937072E-01  0.84892078493E-02  0.10146815628E+01  0.10142599287E+01 0.  0.
     999903    2    3    3    0    0 -0.35555109774E-01 -0.98620117579E-01 -0.59729644058E-01  0.12227184238E+00  0.19816145860E-01 0.  0.
         14    1    1    2    0    0 -0.68672204880E-03 -0.27980937072E-01 -0.84892078493E-02  0.29248437164E-01  0.00000000000E+00 0. -1.
     999901    1    3    3    0    0  0.36241831823E-01  0.12660105465E+00  0.68218851907E-01  0.89240972046E+00  0.88000000000E+00 0. -1.
        -11    1    4    4    0    0 -0.22821143693E-01 -0.85106466537E-01 -0.49198570946E-01  0.10091915453E+00  0.51100000000E-03 0.  1.
         11    1    4    4    0    0 -0.12733966082E-01 -0.13513651042E-01 -0.10531073112E-01  0.21352687853E-01  0.51100000000E-03 0. -1.
</event>
<event>
 8    1  0.1064839E+005  0.1043930E+01  0.7957747E-01            NaN
         13   -1    0    0    0    0  0.00000000000E+00  0.00000000000E+00  0.74505805969E-08  0.10566000000E+00  0.10566000000E+00 0. -1.
     999900   -1    0    0    0    0 -0.00000000000E+00 -0.00000000000E+00 -0.74505805969E-08  0.93827000000E+00  0.93827000000E+00 0.  1.
     999902    2    1    2    0    0 -0.20653586473E-01  0.69580661076E-02 -0.78640276792E-02  0.10207604456E+01  0.10204974567E+01 0.  0.
     999903    2    3    3    0    0 -0.31419901840E-01 -0.12406439269E+00 -0.18533100569E-01  0.13093089602E+00  0.20499754905E-01 0.  0.
         14    1    1    2    0    0  0.20653586473E-01 -0.69580661076E-02  0.78640276792E-02  0.23169554366E-01  0.00000000000E+00 0. -1.
     999901    1    3    3    0    0  0.10766315366E-01  0.13102245879E+00  0.10669072890E-01  0.88982954962E+00  0.88000000000E+00 0.  1.
        -11    1    4    4    0    0 -0.41206773127E-02 -0.61968287954E-02  0.30016588198E-02  0.80406309022E-02  0.51100000000E-03 0.  1.
         11    1    4    4    0    0 -0.27299224527E-01 -0.11786756389E+00 -0.21534759389E-01  0.12289026512E+00  0.51100000000E-03 0. -1.
</event>
<event>
 8    1  0.1064839E+005  0.1043930E+01  0.7957747E-01            NaN
         13   -1    0    0    0    0  0.00000000000E+00  0.00000000000E+00  0.74505805969E-08  0.10566000000E+00  0.10566000000E+00 0. -1.
     999900   -1    0    0    0    0 -0.00000000000E+00 -0.00000000000E+00 -0.74505805969E-08  0.93827000000E+00  0.93827000000E+00 0.  1.
     999902    2    1    2    0    0  0.10778682973E-01  0.77721082956E-02 -0.20025655832E-01  0.10198964284E+01  0.10196132169E+01 0.  0.
     999903    2    3    3    0    0 -0.12382024013E+00 -0.20958382274E-01  0.17845940979E-01  0.12839400603E+00  0.19895665910E-01 0.  0.
         14    1    1    2    0    0 -0.10778682973E-01 -0.77721082956E-02  0.20025655832E-01  0.24033571634E-01  0.00000000000E+00 0.  1.
     999901    1    3    3    0    0  0.13459892310E+00  0.28730490570E-01 -0.37871596811E-01  0.89150242234E+00  0.88000000000E+00 0. -1.
        -11    1    4    4    0    0 -0.90252618209E-01 -0.71621500996E-02  0.16799246956E-01  0.92083154306E-01  0.51100000000E-03 0. -1.
         11    1    4    4    0    0 -0.33567621918E-01 -0.13796232175E-01  0.10466940224E-02  0.36310851722E-01  0.51100000000E-03 0.  1.
</event>
<event>
 8    1  0.1064839E+005  0.1043930E+01  0.7957747E-01            NaN
         13   -1    0    0    0    0  0.00000000000E+00  0.00000000000E+00  0.74505805969E-08  0.10566000000E+00  0.10566000000E+00 0.  1.
     999900   -1    0    0    0    0 -0.00000000000E+00 -0.00000000000E+00 -0.74505805969E-08  0.93827000000E+00  0.93827000000E+00 0.  1.
     999902    2    1    2    0    0  0.16120948295E-01 -0.76574898436E-02 -0.16215270863E-01  0.10198165777E+01  0.10195314586E+01 0.  0.
     999903    2    3    3    0    0  0.10130068575E+00 -0.52237784771E-01  0.62935008214E-01  0.13104902822E+00  0.14913666499E-01 0.  0.
         14    1    1    2    0    0 -0.16120948295E-01  0.76574898436E-02  0.16215270863E-01  0.24113422275E-01  0.00000000000E+00 0.  1.
     999901    1    3    3    0    0 -0.85179737454E-01  0.44580294927E-01 -0.79150279077E-01  0.88876754950E+00  0.88000000000E+00 0.  1.
        -11    1    4    4    0    0  0.35540245286E-01 -0.23215232389E-01  0.29983744248E-01  0.51974436889E-01  0.51100000000E-03 0.  1.
         11    1    4    4    0    0  0.65760440464E-01 -0.29022552381E-01  0.32951263967E-01  0.79074591335E-01  0.51100000000E-03 0. -1.
</event>
<event>
 8    1  0.1064839E+005  0.1043930E+01  0.7957747E-01            NaN
         13   -1    0    0    0    0  0.00000000000E+00  0.00000000000E+00  0.74505805969E-08  0.10566000000E+00  0.10566000000E+00 0.  1.
     999900   -1    0    0    0    0 -0.00000000000E+00 -0.00000000000E+00 -0.74505805969E-08  0.93827000000E+00  0.93827000000E+00 0.  1.
     999902    2    1    2    0    0  0.87161472065E-02 -0.16709244501E-01  0.14586713466E-01  0.10200984603E+01  0.10198200461E+01 0.  0.
     999903    2    3    3    0    0 -0.11117355030E+00  0.58912129875E-01  0.17590809537E-01  0.12875051679E+00  0.20906019725E-01 0.  0.
         14    1    1    2    0    0 -0.87161472065E-02  0.16709244501E-01 -0.14586713466E-01  0.23831539683E-01  0.00000000000E+00 0. -1.
     999901    1    3    3    0    0  0.11988969751E+00 -0.75621374376E-01 -0.30040960707E-02  0.89134794352E+00  0.88000000000E+00 0.  1.
        -11    1    4    4    0    0 -0.96095003448E-01  0.42616383163E-01  0.17332569830E-01  0.10654147033E+00  0.51100000000E-03 0. -1.
         11    1    4    4    0    0 -0.15078546856E-01  0.16295746711E-01  0.25823970639E-03  0.22209046466E-01  0.51100000000E-03 0.  1.
</event>
<event>
 8    1  0.1064839E+005  0.1043930E+01  0.7957747E-01            NaN
         13   -1    0    0    0    0  0.00000000000E+00  0.00000000000E+00  0.74505805969E-08  0.10566000000E+00  0.10566000000E+00 0. -1.
     999900   -1    0    0    0    0 -0.00000000000E+00 -0.00000000000E+00 -0.74505805969E-08  0.93827000000E+00  0.93827000000E+00 0.  1.
     999902    2    1    2    0    0  0.87754893522E-02 -0.22134739204E-01 -0.33377415946E-02  0.10198863644E+01  0.10196029129E+01 0.  0.
     999903    2    3    3    0    0  0.60891615626E-01 -0.92614472773E-01  0.70304495937E-01  0.13247064301E+00  0.17903063681E-01 0.  0.
         14    1    1    2    0    0 -0.87754893522E-02  0.22134739204E-01  0.33377415946E-02  0.24043635581E-01  0.00000000000E+00 0.  1.
     999901    1    3    3    0    0 -0.52116126274E-01  0.70479733569E-01 -0.73642237531E-01  0.88741572141E+00  0.88000000000E+00 0.  1.
        -11    1    4    4    0    0  0.22383873576E-01 -0.47101524527E-01  0.39074664593E-01  0.65166570748E-01  0.51100000000E-03 0.  1.
         11    1    4    4    0    0  0.38507742050E-01 -0.45512948246E-01  0.31229831343E-01  0.67304072258E-01  0.51100000000E-03 0. -1.
</event>
<event>
 8    1  0.1064839E+005  0.1043930E+01  0.7957747E-01            NaN
         13   -1    0    0    0    0  0.00000000000E+00  0.00000000000E+00  0.74505805969E-08  0.10566000000E+00  0.10566000000E+00 0.  1.
     999900   -1    0    0    0    0 -0.00000000000E+00 -0.00000000000E+00 -0.74505805969E-08  0.93827000000E+00  0.93827000000E+00 0.  1.
     999902    2    1    2    0    0  0.76483674132E-02  0.20277885919E-01  0.99872692722E-02  0.10200671475E+01  0.10197879925E+01 0.  0.
     999903    2    3    3    0    0 -0.12203216586E+00  0.69073849316E-03  0.40088068415E-01  0.12983866270E+00  0.18939336780E-01 0.  0.
         14    1    1    2    0    0 -0.76483674132E-02 -0.20277885919E-01 -0.99872692722E-02  0.23862852490E-01  0.00000000000E+00 0. -1.
     999901    1    3    3    0    0  0.12968053328E+00  0.19587147426E-01 -0.30100799143E-01  0.89022848481E+00  0.88000000000E+00 0.  1.
        -11    1    4    4    0    0 -0.43952063176E-01 -0.83594406394E-02  0.17606606001E-01  0.48082406358E-01  0.51100000000E-03 0.  1.
         11    1    4    4    0    0 -0.78080102688E-01  0.90501791326E-02  0.22481462414E-01  0.81756256344E-01  0.51100000000E-03 0. -1.
</event>
<event>
 8    1  0.1155034E+005  0.1043930E+01  0.7957747E-01            NaN
         13   -1    0    0    0    0  0.00000000000E+00  0.00000000000E+00  0.74505805969E-08  0.10566000000E+00  0.10566000000E+00 0. -1.
     999900   -1    0    0    0    0 -0.00000000000E+00 -0.00000000000E+00 -0.74505805969E-08  0.93827000000E+00  0.93827000000E+00 0.  1.
     999902    2    1    2    0    0 -0.15964517049E-01 -0.17429331493E-01  0.10574988197E-01  0.10180364144E+01  0.10177070616E+01 0.  0.
     999903    2    3    3    0    0 -0.70070287149E-01 -0.10767734434E+00  0.20921059588E-01  0.13170736748E+00  0.20121736773E-01 0.  0.
         14    1    1    2    0    0  0.15964517049E-01  0.17429331493E-01 -0.10574988197E-01  0.25893585620E-01  0.00000000000E+00 0.  1.
     999901    1    3    3    0    0  0.54105770101E-01  0.90248012842E-01 -0.10346071391E-01  0.88632904690E+00  0.88000000000E+00 0. -1.
        -11    1    4    4    0    0 -0.43917124583E-01 -0.50978904755E-01  0.15349561025E-01  0.69017626055E-01  0.51100000000E-03 0.  1.
         11    1    4    4    0    0 -0.26153162567E-01 -0.56698439580E-01  0.55714985630E-02  0.62689741428E-01  0.51100000000E-03 0. -1.
</event>
<event>
 8    1  0.1064839E+005  0.1043930E+01  0.7957747E-01            NaN
         13   -1    0    0    0    0  0.00000000000E+00  0.00000000000E+00  0.74505805969E-08  0.10566000000E+00  0.10566000000E+00 0.  1.
     999900   -1    0    0    0    0 -0.00000000000E+00 -0.00000000000E+00 -0.74505805969E-08  0.93827000000E+00  0.93827000000E+00 0.  1.
     999902    2    1    2    0    0  0.14585758589E-01 -0.11553801966E-01  0.10075837341E-01  0.10227697261E+01  0.10225508082E+01 0.  0.
     999903    2    3    3    0    0 -0.14725303389E-01 -0.10772924073E+00 -0.75199350310E-01  0.13294912002E+00  0.14074883966E-01 0.  0.
         14    1    1    2    0    0 -0.14585758589E-01  0.11553801966E-01 -0.10075837341E-01  0.21160273902E-01  0.00000000000E+00 0. -1.
     999901    1    3    3    0    0  0.29311061978E-01  0.96175438762E-01  0.85275187651E-01  0.88982060608E+00  0.88000000000E+00 0. -1.
        -11    1    4    4    0    0 -0.13658956137E-01 -0.48940160331E-01 -0.33470140083E-01  0.60845852563E-01  0.51100000000E-03 0.  1.
         11    1    4    4    0    0 -0.10663472512E-02 -0.58789080398E-01 -0.41729210228E-01  0.72103267455E-01  0.51100000000E-03 0. -1.
</event>
<event>
 8    1  0.1064839E+005  0.1043930E+01  0.7957747E-01            NaN
         13   -1    0    0    0    0  0.00000000000E+00  0.00000000000E+00  0.74505805969E-08  0.10566000000E+00  0.10566000000E+00 0. -1.
     999900   -1    0    0    0    0 -0.00000000000E+00 -0.00000000000E+00 -0.74505805969E-08  0.93827000000E+00  0.93827000000E+00 0.  1.
     999902    2    1    2    0    0  0.16572015991E-01 -0.49014453572E-04  0.17404671266E-01  0.10198975907E+01  0.10196144069E+01 0.  0.
     999903    2    3    3    0    0  0.13026487150E-01 -0.12732091933E+00 -0.15312901896E-01  0.13013293182E+00  0.17882648402E-01 0.  0.
         14    1    1    2    0    0 -0.16572015991E-01  0.49014453572E-04 -0.17404671266E-01  0.24032409332E-01  0.00000000000E+00 0.  1.
     999901    1    3    3    0    0  0.35455288413E-02  0.12727190487E+00  0.32717573162E-01  0.88976465885E+00  0.88000000000E+00 0.  1.
        -11    1    4    4    0    0  0.15836223977E-01 -0.10557712914E+00 -0.17139356500E-01  0.10812647617E+00  0.51100000000E-03 0.  1.
         11    1    4    4    0    0 -0.28097368271E-02 -0.21743790184E-01  0.18264546046E-02  0.22006455644E-01  0.51100000000E-03 0. -1.
</event>
<event>
 8    1  0.1064839E+005  0.1043930E+01  0.7957747E-01            NaN
         13   -1    0    0    0    0  0.00000000000E+00  0.00000000000E+00  0.74505805969E-08  0.10566000000E+00  0.10566000000E+00 0.  1.
     999900   -1    0    0    0    0 -0.00000000000E+00 -0.00000000000E+00 -0.74505805969E-08  0.93827000000E+00  0.93827000000E+00 0.  1.
     999902    2    1    2    0    0  0.21515049195E-01 -0.48275115267E-02 -0.87947230038E-02  0.10201908054E+01  0.10199145699E+01 0.  0.
     999903    2    3    3    0    0 -0.31770428012E-01  0.41463289962E-01 -0.11810487181E+00  0.13062299512E+00  0.19622476879E-01 0.  0.
         14    1    1    2    0    0 -0.21515049195E-01  0.48275115267E-02  0.87947230038E-02  0.23739194639E-01  0.00000000000E+00 0.  1.
     999901    1    3    3    0    0  0.53285477207E-01 -0.46290801488E-01  0.10931014881E+00  0.88956781024E+00  0.88000000000E+00 0.  1.
        -11    1    4    4    0    0 -0.44695145052E-02 -0.15739837431E-02 -0.11980015630E-01  0.12893249406E-01  0.51100000000E-03 0.  1.
         11    1    4    4    0    0 -0.27300913507E-01  0.43037273705E-01 -0.10612485618E+00  0.11772974572E+00  0.51100000000E-03 0. -1.
</event>
<event>
 8    1  0.1064839E+005  0.1043930E+01  0.7957747E-01            NaN
         13   -1    0    0    0    0  0.00000000000E+00  0.00000000000E+00  0.74505805969E-08  0.10566000000E+00  0.10566000000E+00 0.  1.
     999900   -1    0    0    0    0 -0.00000000000E+00 -0.00000000000E+00 -0.74505805969E-08  0.93827000000E+00  0.93827000000E+00 0. -1.
     999902    2    1    2    0    0  0.12599624474E-01  0.50116033315E-02 -0.26561656800E-01  0.10141073858E+01  0.10136687830E+01 0.  0.
     999903    2    3    3    0    0 -0.81174172218E-01  0.63270162651E-01 -0.70018422594E-01  0.12614563260E+00  0.20439701669E-01 0.  0.
         14    1    1    2    0    0 -0.12599624474E-01 -0.50116033315E-02  0.26561656800E-01  0.29822614185E-01  0.00000000000E+00 0. -1.
     999901    1    3    3    0    0  0.93773796692E-01 -0.58258559320E-01  0.43456765793E-01  0.88796175322E+00  0.88000000000E+00 0. -1.
        -11    1    4    4    0    0 -0.28090109906E-01  0.25087036010E-01 -0.14484630994E-01  0.40354421150E-01  0.51100000000E-03 0. -1.
         11    1    4    4    0    0 -0.53084062312E-01  0.38183126641E-01 -0.55533791599E-01  0.85791211450E-01  0.51100000000E-03 0.  1.
</event>
<event>
 8    1  0.1064839E+005  0.1043930E+01  0.7957747E-01            NaN
         13   -1    0    0    0    0  0.00000000000E+00  0.00000000000E+00  0.74505805969E-08  0.10566000000E+00  0.10566000000E+00 0.  1.
     999900   -1    0    0    0    0 -0.00000000000E+00 -0.00000000000E+00 -0.74505805969E-08  0.93827000000E+00  0.93827000000E+00 0. -1.
     999902    2    1    2    0    0  0.20426493291E-01  0.17436730690E-01 -0.63980751476E-02  0.10163217300E+01  0.10159466730E+01 0.  0.
     999903    2    3    3    0    0  0.77630282917E-01  0.31132605340E-01  0.95481966790E-01  0.12849325928E+00  0.19950231984E-01 0.  0.
         14    1    1    2    0    0 -0.20426493291E-01 -0.17436730690E-01  0.63980751476E-02  0.27608269973E-01  0.00000000000E+00 0.  1.
     999901    1    3    3    0    0 -0.57203789626E-01 -0.13695874650E-01 -0.10188004194E+00  0.88782847075E+00  0.88000000000E+00 0.  1.
        -11    1    4    4    0    0  0.69854929737E-01  0.20547313952E-01  0.82013999052E-01  0.10967433830E+00  0.51100000000E-03 0. -1.
         11    1    4    4    0    0  0.77753531795E-02  0.10585291388E-01  0.13467967738E-01  0.18818920980E-01  0.51100000000E-03 0.  1.
</event>
<event>
 8    1  0.1064839E+005  0.1043930E+01  0.7957747E-01            NaN
         13   -1    0    0    0    0  0.00000000000E+00  0.00000000000E+00  0.74505805969E-08  0.10566000000E+00  0.10566000000E+00 0.  1.
     999900   -1    0    0    0    0 -0.00000000000E+00 -0.00000000000E+00 -0.74505805969E-08  0.93827000000E+00  0.93827000000E+00 0. -1.
     999902    2    1    2    0    0  0.78240294180E-02  0.20513466911E-01 -0.13747657231E-02  0.10219320969E+01  0.10216953082E+01 0.  0.
     999903    2    3    3    0    0  0.49943387543E-01  0.67282831984E-01  0.10226593740E+00  0.13361750779E+00  0.19338950281E-01 0.  0.
         14    1    1    2    0    0 -0.78240294180E-02 -0.20513466911E-01  0.13747657231E-02  0.21997903123E-01  0.00000000000E+00 0. -1.
     999901    1    3    3    0    0 -0.42119358125E-01 -0.46769365073E-01 -0.10364070312E+00  0.88831458908E+00  0.88000000000E+00 0. -1.
        -11    1    4    4    0    0  0.23074025051E-01  0.30334463646E-01  0.31817041477E-01  0.49650534399E-01  0.51100000000E-03 0. -1.
         11    1    4    4    0    0  0.26869362492E-01  0.36948368338E-01  0.70448895919E-01  0.83966973393E-01  0.51100000000E-03 0.  1.
</event>
<event>
 8    1  0.1064839E+005  0.1043930E+01  0.7957747E-01            NaN
         13   -1    0    0    0    0  0.00000000000E+00  0.00000000000E+00  0.74505805969E-08  0.10566000000E+00  0.10566000000E+00 0.  1.
     999900   -1    0    0    0    0 -0.00000000000E+00 -0.00000000000E+00 -0.74505805969E-08  0.93827000000E+00  0.93827000000E+00 0.  1.
     999902    2    1    2    0    0 -0.19671194587E-02  0.16506914630E-01 -0.17328536377E-01  0.10199169627E+01  0.10196342407E+01 0.  0.
     999903    2    3    3    0    0  0.88064540639E-01 -0.68610875898E-01 -0.63592712590E-01  0.13003432315E+00  0.20051845152E-01 0.  0.
         14    1    1    2    0    0  0.19671194587E-02 -0.16506914630E-01  0.17328536377E-01  0.24013037346E-01  0.00000000000E+00 0.  1.
     999901    1    3    3    0    0 -0.90031660098E-01  0.85117790529E-01  0.46264176213E-01  0.88988263950E+00  0.88000000000E+00 0. -1.
        -11    1    4    4    0    0  0.42492420318E-01 -0.35017597917E-01 -0.20020348885E-01  0.58591069617E-01  0.51100000000E-03 0.  1.
         11    1    4    4    0    0  0.45572120321E-01 -0.33593277981E-01 -0.43572363705E-01  0.71443253537E-01  0.51100000000E-03 0. -1.
</event>
<event>
 8    1  0.1064839E+005  0.1043930E+01  0.7957747E-01            NaN
         13   -1    0    0    0    0  0.00000000000E+00  0.00000000000E+00  0.74505805969E-08  0.10566000000E+00  0.10566000000E+00 0.  1.
     999900   -1    0    0    0    0 -0.00000000000E+00 -0.00000000000E+00 -0.74505805969E-08  0.93827000000E+00  0.93827000000E+00 0. -1.
     999902    2    1    2    0    0 -0.19830766950E-01  0.39475819144E-02 -0.59123455141E-02  0.10228634732E+01  0.10226465109E+01 0.  0.
     999903    2    3    3    0    0 -0.85436760989E-01 -0.71809239711E-01  0.71122647896E-01  0.13383162189E+00  0.19911427339E-01 0.  0.
         14    1    1    2    0    0  0.19830766950E-01 -0.39475819144E-02  0.59123455141E-02  0.21066526773E-01  0.00000000000E+00 0.  1.
     999901    1    3    3    0    0  0.65605994039E-01  0.75756821626E-01 -0.77034993410E-01  0.88903185133E+00  0.88000000000E+00 0. -1.
        -11    1    4    4    0    0 -0.71432247287E-01 -0.50287516727E-01  0.50589446649E-01  0.10095025272E+00  0.51100000000E-03 0. -1.
         11    1    4    4    0    0 -0.14004513702E-01 -0.21521722984E-01  0.20533201247E-01  0.32881369173E-01  0.51100000000E-03 0.  1.
</event>
<event>
 8    1  0.1064839E+005  0.1043930E+01  0.7957747E-01            NaN
         13   -1    0    0    0    0  0.00000000000E+00  0.00000000000E+00  0.74505805969E-08  0.10566000000E+00  0.10566000000E+00 0.  1.
     999900   -1    0    0    0    0 -0.00000000000E+00 -0.00000000000E+00 -0.74505805969E-08  0.93827000000E+00  0.93827000000E+00 0. -1.
     999902    2    1    2    0    0  0.17028748748E-01  0.75790758642E-02  0.14517500154E-01  0.10203041987E+01  0.10200306267E+01 0.  0.
     999903    2    3    3    0    0  0.11719918157E-01  0.13003784070E+00 -0.18537902168E-02  0.13165783942E+00  0.16827169905E-01 0.  0.
         14    1    1    2    0    0 -0.17028748748E-01 -0.75790758642E-02 -0.14517500154E-01  0.23625801269E-01  0.00000000000E+00 0. -1.
     999901    1    3    3    0    0  0.53088305914E-02 -0.12245876484E+00  0.16371290371E-01  0.88864635931E+00  0.88000000000E+00 0.  1.
        -11    1    4    4    0    0 -0.37057981733E-02  0.22534714878E-01  0.24022022955E-02  0.22969066407E-01  0.51100000000E-03 0.  1.
         11    1    4    4    0    0  0.15425716330E-01  0.10750312582E+00 -0.42559925123E-02  0.10868877301E+00  0.51100000000E-03 0. -1.
</event>
<event>
 8    1  0.1064839E+005  0.1043930E+01  0.7957747E-01            NaN
         13   -1    0    0    0    0  0.00000000000E+00  0.00000000000E+00  0.74505805969E-08  0.10566000000E+00  0.10566000000E+00 0.  1.
     999900   -1    0    0    0    0 -0.00000000000E+00 -0.00000000000E+00 -0.74505805969E-08  0.93827000000E+00  0.93827000000E+00 0. -1.
     999902    2    1    2    0    0  0.83983836109E-03  0.96728631678E-02  0.22842087394E-01  0.10191100369E+01  0.10188077526E+01 0.  0.
     999903    2    3    3    0    0 -0.16428392309E-01  0.31841007480E-02 -0.12411601871E+00  0.12673288528E+00  0.19401225205E-01 0.  0.
         14    1    1    2    0    0 -0.83983836109E-03 -0.96728631678E-02 -0.22842087394E-01  0.24819963071E-01  0.00000000000E+00 0. -1.
     999901    1    3    3    0    0  0.17268230670E-01  0.64887624198E-02  0.14695810611E+00  0.89237715165E+00  0.88000000000E+00 0.  1.
        -11    1    4    4    0    0 -0.12997002165E-01  0.48268785092E-02 -0.36734602766E-01  0.39267199834E-01  0.51100000000E-03 0.  1.
         11    1    4    4    0    0 -0.34313901438E-02 -0.16427777612E-02 -0.87381415947E-01  0.87465685449E-01  0.51100000000E-03 0. -1.
</event>
<event>
 8    1  0.1064839E+005  0.1043930E+01  0.7957747E-01            NaN
         13   -1    0    0    0    0  0.00000000000E+00  0.00000000000E+00  0.74505805969E-08  0.10566000000E+00  0.10566000000E+00 0.  1.
     999900   -1    0    0    0    0 -0.00000000000E+00 -0.00000000000E+00 -0.74505805969E-08  0.93827000000E+00  0.93827000000E+00 0.  1.
     999902    2    1    2    0    0  0.20447246766E-01 -0.61816687569E-02  0.84848418111E-02  0.10209453210E+01  0.10206865596E+01 0.  0.
     999903    2    3    3    0    0  0.38581248064E-01 -0.42110867320E-01 -0.11630662509E+00  0.13123038938E+00  0.20792936464E-01 0.  0.
         14    1    1    2    0    0 -0.20447246766E-01  0.61816687569E-02 -0.84848418111E-02  0.22984679017E-01  0.00000000000E+00 0. -1.
     999901    1    3    3    0    0 -0.18134001298E-01  0.35929198563E-01  0.12479146690E+00  0.88971493161E+00  0.88000000000E+00 0. -1.
        -11    1    4    4    0    0  0.12688722151E-01 -0.17117340190E-01 -0.66134595464E-01  0.69484191319E-01  0.51100000000E-03 0. -1.
         11    1    4    4    0    0  0.25892525913E-01 -0.24993527130E-01 -0.50172029629E-01  0.61746198058E-01  0.51100000000E-03 0.  1.
</event>
<event>
 8    1  0.1064839E+005  0.1043930E+01  0.7957747E-01            NaN
         13   -1    0    0    0    0  0.00000000000E+00  0.00000000000E+00  0.74505805969E-08  0.10566000000E+00  0.10566000000E+00 0.  1.
     999900   -1    0    0    0    0 -0.00000000000E+00 -0.00000000000E+00 -0.74505805969E-08  0.93827000000E+00  0.93827000000E+00 0.  1.
     999902    2    1    2    0    0  0.49354019526E-02 -0.33328192028E-02 -0.22948362704E-01  0.10202214946E+01  0.10199459813E+01 0.  0.
     999903    2    3    3    0    0  0.44563712494E-01  0.11005247745E+00 -0.52946632198E-01  0.13155590811E+00  0.20152886460E-01 0.  0.
         14    1    1    2    0    0 -0.49354019526E-02  0.33328192028E-02  0.22948362704E-01  0.23708505374E-01  0.00000000000E+00 0.  1.
     999901    1    3    3    0    0 -0.39628310542E-01 -0.11338529665E+00  0.29998269494E-01  0.88866558652E+00  0.88000000000E+00 0. -1.
        -11    1    4    4    0    0  0.11046964675E-01  0.52926990159E-01 -0.20799167322E-01  0.57932445125E-01  0.51100000000E-03 0. -1.
         11    1    4    4    0    0  0.33516747819E-01  0.57125487289E-01 -0.32147464876E-01  0.73623462981E-01  0.51100000000E-03 0.  1.
</event>
<event>
 7    1  0.1252394E+005  0.1043930E+01  0.7957747E-01            NaN
         13   -1    0    0    0    0  0.00000000000E+00  0.00000000000E+00  0.74505805969E-08  0.10566000000E+00  0.10566000000E+00 0. -1.
     999900   -1    0    0    0    0 -0.00000000000E+00 -0.00000000000E+00 -0.74505805969E-08  0.93827000000E+00  0.93827000000E+00 0.  1.
     999903    2    1    2    0    0  0.43389578813E-01  0.10033592959E+00  0.23263939184E-01  0.11342913735E+00  0.19365020453E-01 0.  0.
         14    1    1    2    0    0 -0.20448288042E-01  0.11066776867E-01 -0.36273271990E-01  0.43085453403E-01  0.00000000000E+00 0.  1.
     999901    1    1    2    0    0 -0.22941290771E-01 -0.11140270646E+00  0.13009332806E-01  0.88741540925E+00  0.88000000000E+00 0. -1.
        -11    1    3    3    0    0  0.37154594605E-01  0.77485665052E-01  0.25485489917E-01  0.89634053272E-01  0.51100000000E-03 0.  1.
         11    1    3    3    0    0  0.62349842083E-02  0.22850264540E-01 -0.22215507333E-02  0.23795084078E-01  0.51100000000E-03 0. -1.
</event>
<event>
 8    1  0.1064839E+005  0.1043930E+01  0.7957747E-01            NaN
         13   -1    0    0    0    0  0.00000000000E+00  0.00000000000E+00  0.74505805969E-08  0.10566000000E+00  0.10566000000E+00 0. -1.
     999900   -1    0    0    0    0 -0.00000000000E+00 -0.00000000000E+00 -0.74505805969E-08  0.93827000000E+00  0.93827000000E+00 0.  1.
     999902    2    1    2    0    0 -0.13897385238E-02 -0.16938062531E-01  0.16533007696E-01  0.10202198824E+01  0.10199443312E+01 0.  0.
     999903    2    3    3    0    0  0.44323774566E-01 -0.69065311639E-01 -0.98851179003E-01  0.12998368565E+00  0.19738000936E-01 0.  0.
         14    1    1    2    0    0  0.13897385238E-02  0.16938062531E-01 -0.16533007696E-01  0.23710117649E-01  0.00000000000E+00 0.  1.
     999901    1    3    3    0    0 -0.45713513090E-01  0.52127249109E-01  0.11538418670E+00  0.89023619670E+00  0.88000000000E+00 0. -1.
        -11    1    4    4    0    0  0.13257400885E-01 -0.98645595738E-02 -0.12248577564E-01  0.20575640625E-01  0.51100000000E-03 0.  1.
         11    1    4    4    0    0  0.31066373681E-01 -0.59200752066E-01 -0.86602601439E-01  0.10940804502E+00  0.51100000000E-03 0. -1.
</event>
<event>
 8    1  0.1064839E+005  0.1043930E+01  0.7957747E-01            NaN
         13   -1    0    0    0    0  0.00000000000E+00  0.00000000000E+00  0.74505805969E-08  0.10566000000E+00  0.10566000000E+00 0. -1.
     999900   -1    0    0    0    0 -0.00000000000E+00 -0.00000000000E+00 -0.74505805969E-08  0.93827000000E+00  0.93827000000E+00 0.  1.
     999902    2    1    2    0    0 -0.18457354202E-01 -0.12181550022E-01 -0.62661597331E-02  0.10209445950E+01  0.10206858171E+01 0.  0.
     999903    2    3    3    0    0 -0.17321987947E-02 -0.82234271496E-02  0.12863325983E+00  0.13049905991E+00  0.20319051078E-01 0.  0.
         14    1    1    2    0    0  0.18457354202E-01  0.12181550022E-01  0.62661597331E-02  0.22985404997E-01  0.00000000000E+00 0. -1.
     999901    1    3    3    0    0 -0.16725155408E-01 -0.39581228720E-02 -0.13489941957E+00  0.89044553509E+00  0.88000000000E+00 0.  1.
        -11    1    4    4    0    0 -0.92306024853E-02 -0.99082941098E-02  0.64730286488E-01  0.66133572595E-01  0.51100000000E-03 0. -1.
         11    1    4    4    0    0  0.74984036906E-02  0.16848669603E-02  0.63902973345E-01  0.64365487319E-01  0.51100000000E-03 0.  1.
</event>
<event>
 8    1  0.1064839E+005  0.1043930E+01  0.7957747E-01            NaN
         13   -1    0    0    0    0  0.00000000000E+00  0.00000000000E+00  0.74505805969E-08  0.10566000000E+00  0.10566000000E+00 0.  1.
     999900   -1    0    0    0    0 -0.00000000000E+00 -0.00000000000E+00 -0.74505805969E-08  0.93827000000E+00  0.93827000000E+00 0. -1.
     999902    2    1    2    0    0  0.22991349111E-01  0.19095690696E-03  0.85834135900E-02  0.10193879221E+01  0.10190924502E+01 0.  0.
     999903    2    3    3    0    0  0.13838295765E-01  0.59919798650E-01  0.11392520316E+00  0.13104778142E+00  0.20314733556E-01 0.  0.
         14    1    1    2    0    0 -0.22991349111E-01 -0.19095690696E-03 -0.85834135900E-02  0.24542077894E-01  0.00000000000E+00 0. -1.
     999901    1    3    3    0    0  0.91530533467E-02 -0.59728841743E-01 -0.10534178957E+00  0.88834014068E+00  0.88000000000E+00 0. -1.
        -11    1    4    4    0    0  0.10805030053E-01  0.13741065339E-01  0.42284405191E-01  0.45758033113E-01  0.51100000000E-03 0. -1.
         11    1    4    4    0    0  0.30332657116E-02  0.46178733311E-01  0.71640797974E-01  0.85289748308E-01  0.51100000000E-03 0.  1.
</event>
<event>
 8    1  0.1064839E+005  0.1043930E+01  0.7957747E-01            NaN
         13   -1    0    0    0    0  0.00000000000E+00  0.00000000000E+00  0.74505805969E-08  0.10566000000E+00  0.10566000000E+00 0. -1.
     999900   -1    0    0    0    0 -0.00000000000E+00 -0.00000000000E+00 -0.74505805969E-08  0.93827000000E+00  0.93827000000E+00 0.  1.
     999902    2    1    2    0    0  0.20522080185E-02 -0.22206811010E-01 -0.67829170893E-02  0.10206198739E+01  0.10203536471E+01 0.  0.
     999903    2    3    3    0    0 -0.12462306521E+00 -0.29852768086E-01 -0.20946229953E-01  0.13140354202E+00  0.20150686421E-01 0.  0.
         14    1    1    2    0    0 -0.20522080185E-02  0.22206811010E-01  0.67829170893E-02  0.23310126067E-01  0.00000000000E+00 0.  1.
     999901    1    3    3    0    0  0.12667527322E+00  0.76459570760E-02  0.14163312864E-01  0.88921633191E+00  0.88000000000E+00 0. -1.
        -11    1    4    4    0    0 -0.89261264682E-01 -0.24169289616E-01 -0.62541466570E-02  0.92688205315E-01  0.51100000000E-03 0.  1.
         11    1    4    4    0    0 -0.35361800523E-01 -0.56834784701E-02 -0.14692083296E-01  0.38715336707E-01  0.51100000000E-03 0. -1.
</event>
<event>
 8    1  0.1064839E+005  0.1043930E+01  0.7957747E-01            NaN
         13   -1    0    0    0    0  0.00000000000E+00  0.00000000000E+00  0.74505805969E-08  0.10566000000E+00  0.10566000000E+00 0. -1.
     999900   -1    0    0    0    0 -0.00000000000E+00 -0.00000000000E+00 -0.74505805969E-08  0.93827000000E+00  0.93827000000E+00 0.  1.
     999902    2    1    2    0    0 -0.54719845800E-02 -0.13759247746E-01 -0.18272819263E-01  0.10204107433E+01  0.10201396618E+01 0.  0.
     999903    2    3    3    0    0  0.81822872575E-01 -0.69969419245E-01 -0.74825473024E-01  0.13250411635E+00  0.19177782201E-01 0.  0.
         14    1    1    2    0    0  0.54719845800E-02  0.13759247746E-01  0.18272819263E-01  0.23519256740E-01  0.00000000000E+00 0. -1.
     999901    1    3    3    0    0 -0.87294857155E-01  0.56210171499E-01  0.56552653761E-01  0.88790662691E+00  0.88000000000E+00 0. -1.
        -11    1    4    4    0    0  0.37596410917E-01 -0.30371740634E-01 -0.22269835663E-01  0.53217848927E-01  0.51100000000E-03 0. -1.
         11    1    4    4    0    0  0.44226461658E-01 -0.39597678611E-01 -0.52555637362E-01  0.79286267421E-01  0.51100000000E-03 0.  1.
</event>
<event>
 8    1  0.1064839E+005  0.1043930E+01  0.7957747E-01            NaN
         13   -1    0    0    0    0  0.00000000000E+00  0.00000000000E+00  0.74505805969E-08  0.10566000000E+00  0.10566000000E+00 0.  1.
     999900   -1    0    0    0    0 -0.00000000000E+00 -0.00000000000E+00 -0.74505805969E-08  0.93827000000E+00  0.93827000000E+00 0. -1.
     999902    2    1    2    0    0 -0.16554436891E-01  0.16586147159E-01 -0.49259853453E-02  0.10199839149E+01  0.10197027860E+01 0.  0.
     999903    2    3    3    0    0 -0.12350334553E+00 -0.13382818141E-01 -0.40849878838E-01  0.13227521606E+00  0.19895828783E-01 0.  0.
         14    1    1    2    0    0  0.16554436891E-01 -0.16586147159E-01  0.49259853453E-02  0.23946085066E-01  0.00000000000E+00 0.  1.
     999901    1    3    3    0    0  0.10694890864E+00  0.29968965300E-01  0.35923893493E-01  0.88770869888E+00  0.88000000000E+00 0. -1.
        -11    1    4    4    0    0 -0.26920464832E-01 -0.11304057897E-01 -0.92704206912E-02  0.30638129389E-01  0.51100000000E-03 0. -1.
         11    1    4    4    0    0 -0.96582880699E-01 -0.20787602439E-02 -0.31579458147E-01  0.10163708667E+00  0.51100000000E-03 0.  1.
</event>
<event>
 8    1  0.1064839E+005  0.1043930E+01  0.7957747E-01            NaN
         13   -1    0    0    0    0  0.00000000000E+00  0.00000000000E+00  0.74505805969E-08  0.10566000000E+00  0.10566000000E+00 0.  1.
     999900   -1    0    0    0    0 -0.00000000000E+00 -0.00000000000E+00 -0.74505805969E-08  0.93827000000E+00  0.93827000000E+00 0.  1.
     999902    2    1    2    0    0 -0.82019728505E-02  0.19530078089E-01 -0.13158483313E-01  0.10189932401E+01  0.10186880688E+01 0.  0.
     999903    2    3    3    0    0  0.81433273678E-01  0.44244170071E-01 -0.89952992234E-01  0.13076879759E+00  0.20494217805E-01 0.  0.
         14    1    1    2    0    0  0.82019728505E-02 -0.19530078089E-01  0.13158483313E-01  0.24936759851E-01  0.00000000000E+00 0.  1.
     999901    1    3    3    0    0 -0.89635246529E-01 -0.24714091983E-01  0.76794508921E-01  0.88822444256E+00  0.88000000000E+00 0. -1.
        -11    1    4    4    0    0  0.33998437427E-01  0.24071521223E-01 -0.28100047154E-01  0.50251424383E-01  0.51100000000E-03 0. -1.
         11    1    4    4    0    0  0.47434836251E-01  0.20172648849E-01 -0.61852945079E-01  0.80517373205E-01  0.51100000000E-03 0.  1.
</event>
<event>
 8    1  0.1064839E+005  0.1043930E+01  0.7957747E-01            NaN
         13   -1    0    0    0    0  0.00000000000E+00  0.00000000000E+00  0.74505805969E-08  0.10566000000E+00  0.10566000000E+00 0.  1.
     999900   -1    0    0    0    0 -0.00000000000E+00 -0.00000000000E+00 -0.74505805969E-08  0.93827000000E+00  0.93827000000E+00 0.  1.
     999902    2    1    2    0    0  0.10692085143E-01 -0.13814853439E-01  0.15557948699E-01  0.10205372527E+01  0.10202691132E+01 0.  0.
     999903    2    3    3    0    0  0.45677669891E-01 -0.78893481693E-01  0.96483134660E-01  0.13374071189E+00  0.16338658573E-01 0.  0.
         14    1    1    2    0    0 -0.10692085143E-01  0.13814853439E-01 -0.15557948699E-01  0.23392747337E-01  0.00000000000E+00 0. -1.
     999901    1    3    3    0    0 -0.34985584748E-01  0.65078628253E-01 -0.80925185961E-01  0.88679654077E+00  0.88000000000E+00 0.  1.
        -11    1    4    4    0    0  0.99130925951E-02 -0.31685332685E-01  0.30677139286E-01  0.45205947706E-01  0.51100000000E-03 0. -1.
         11    1    4    4    0    0  0.35764577295E-01 -0.47208149007E-01  0.65805995374E-01  0.88534764189E-01  0.51100000000E-03 0.  1.
</event>
<event>
 8    1  0.1064839E+005  0.1043930E+01  0.7957747E-01            NaN
         13   -1    0    0    0    0  0.00000000000E+00  0.00000000000E+00  0.74505805969E-08  0.10566000000E+00  0.10566000000E+00 0. -1.
     999900   -1    0    0    0    0 -0.00000000000E+00 -0.00000000000E+00 -0.74505805969E-08  0.93827000000E+00  0.93827000000E+00 0.  1.
     999902    2    1    2    0    0  0.65260859474E-02 -0.13253070835E-01  0.19039065079E-01  0.10198318739E+01  0.10195471207E+01 0.  0.
     999903    2    3    3    0    0  0.93143518728E-02  0.78598733028E-01 -0.97881838425E-01  0.12735496885E+00  0.19336902884E-01 0.  0.
         14    1    1    2    0    0 -0.65260859474E-02  0.13253070835E-01 -0.19039065079E-01  0.24098126139E-01  0.00000000000E+00 0.  1.
     999901    1    3    3    0    0 -0.27882659255E-02 -0.91851803863E-01  0.11692090350E+00  0.89247690501E+00  0.88000000000E+00 0. -1.
        -11    1    4    4    0    0  0.84070428180E-02  0.53048361674E-01 -0.79158647818E-01  0.95661693957E-01  0.51100000000E-03 0.  1.
         11    1    4    4    0    0  0.90730905486E-03  0.25550371353E-01 -0.18723190607E-01  0.31693274894E-01  0.51100000000E-03 0. -1.
</event>
<event>
 8    1  0.1064839E+005  0.1043930E+01  0.7957747E-01            NaN
         13   -1    0    0    0    0  0.00000000000E+00  0.00000000000E+00  0.74505805969E-08  0.10566000000E+00  0.10566000000E+00 0.  1.
     999900   -1    0    0    0    0 -0.00000000000E+00 -0.00000000000E+00 -0.74505805969E-08  0.93827000000E+00  0.93827000000E+00 0.  1.
     999902    2    1    2    0    0 -0.19748500178E-01 -0.12657249272E-01 -0.42418983483E-02  0.10200929926E+01  0.10198144492E+01 0.  0.
     999903    2    3    3    0    0 -0.21708754404E-01  0.11587788848E+00 -0.50560561592E-01  0.12954791079E+00  0.18092422339E-01 0.  0.
         14    1    1    2    0    0  0.19748500178E-01  0.12657249272E-01  0.42418983483E-02  0.23837007362E-01  0.00000000000E+00 0.  1.
     999901    1    3    3    0    0  0.19602542263E-02 -0.12853513775E+00  0.46318663243E-01  0.89054508184E+00  0.88000000000E+00 0.  1.
        -11    1    4    4    0    0 -0.23840695139E-01  0.96548906697E-01 -0.38396794976E-01  0.10660508953E+00  0.51100000000E-03 0. -1.
         11    1    4    4    0    0  0.21319407348E-02  0.19328981783E-01 -0.12163766615E-01  0.22942821259E-01  0.51100000000E-03 0.  1.
</event>
<event>
 8    1  0.1064839E+005  0.1043930E+01  0.7957747E-01            NaN
         13   -1    0    0    0    0  0.00000000000E+00  0.00000000000E+00  0.74505805969E-08  0.10566000000E+00  0.10566000000E+00 0. -1.
     999900   -1    0    0    0    0 -0.00000000000E+00 -0.00000000000E+00 -0.74505805969E-08  0.93827000000E+00  0.93827000000E+00 0.  1.
     999902    2    1    2    0    0 -0.13616886736E-01 -0.14046526103E-01 -0.14235195086E-01  0.10197356767E+01  0.10194486182E+01 0.  0.
     999903    2    3    3    0    0 -0.63755183948E-01 -0.92779995598E-01 -0.68309423713E-01  0.13314849529E+00  0.19735586314E-01 0.  0.
         14    1    1    2    0    0  0.13616886736E-01  0.14046526103E-01  0.14235195086E-01  0.24194323282E-01  0.00000000000E+00 0. -1.
     999901    1    3    3    0    0  0.50138297212E-01  0.78733469496E-01  0.54074228627E-01  0.88658718143E+00  0.88000000000E+00 0. -1.
        -11    1    4    4    0    0 -0.42310319636E-01 -0.64470445268E-01 -0.35887893227E-01  0.85057647875E-01  0.51100000000E-03 0. -1.
         11    1    4    4    0    0 -0.21444864312E-01 -0.28309550330E-01 -0.32421530486E-01  0.48090847417E-01  0.51100000000E-03 0.  1.
</event>
<event>
 8    1  0.1064839E+005  0.1043930E+01  0.7957747E-01            NaN
         13   -1    0    0    0    0  0.00000000000E+00  0.00000000000E+00  0.74505805969E-08  0.10566000000E+00  0.10566000000E+00 0.  1.
     999900   -1    0    0    0    0 -0.00000000000E+00 -0.00000000000E+00 -0.74505805969E-08  0.93827000000E+00  0.93827000000E+00 0.  1.
     999902    2    1    2    0    0  0.39876805777E-02  0.33140574394E-02  0.23168330348E-01  0.10201885572E+01  0.10199122689E+01 0.  0.
     999903    2    3    3    0    0  0.15506004758E-01  0.11698662831E+00 -0.50172262273E-01  0.12977687286E+00  0.19961799526E-01 0.  0.
         14    1    1    2    0    0 -0.39876805777E-02 -0.33140574394E-02 -0.23168330348E-01  0.23741442757E-01  0.00000000000E+00 0. -1.
     999901    1    3    3    0    0 -0.11518324180E-01 -0.11367257087E+00  0.73340592620E-01  0.89041168438E+00  0.88000000000E+00 0.  1.
        -11    1    4    4    0    0  0.19096426660E-01  0.71538688593E-01 -0.29255372120E-01  0.79615296242E-01  0.51100000000E-03 0. -1.
         11    1    4    4    0    0 -0.35904219019E-02  0.45447939718E-01 -0.20916890153E-01  0.50161576618E-01  0.51100000000E-03 0.  1.
</event>
<event>
 8    1  0.1147094E+005  0.1043930E+01  0.7957747E-01            NaN
         13   -1    0    0    0    0  0.00000000000E+00  0.00000000000E+00  0.74505805969E-08  0.10566000000E+00  0.10566000000E+00 0. -1.
     999900   -1    0    0    0    0 -0.00000000000E+00 -0.00000000000E+00 -0.74505805969E-08  0.93827000000E+00  0.93827000000E+00 0.  1.
     999902    2    1    2    0    0 -0.16729100082E-01 -0.91222776648E-02  0.13505126145E-01  0.10205747614E+01  0.10203074911E+01 0.  0.
     999903    2    3    3    0    0 -0.72787813624E-01 -0.80943089916E-01 -0.71844185129E-01  0.13176358155E+00  0.18713761477E-01 0.  0.
         14    1    1    2    0    0  0.16729100082E-01  0.91222776648E-02 -0.13505126145E-01  0.23355238631E-01  0.00000000000E+00 0.  1.
     999901    1    3    3    0    0  0.56058713543E-01  0.71820812251E-01  0.85349311274E-01  0.88881117982E+00  0.88000000000E+00 0. -1.
        -11    1    4    4    0    0 -0.35940319985E-01 -0.53324039666E-01 -0.44539101574E-01  0.78225011965E-01  0.51100000000E-03 0. -1.
         11    1    4    4    0    0 -0.36847493639E-01 -0.27619050250E-01 -0.27305083555E-01  0.53538569584E-01  0.51100000000E-03 0.  1.
</event>
<event>
 8    1  0.1064839E+005  0.1043930E+01  0.7957747E-01            NaN
         13   -1    0    0    0    0  0.00000000000E+00  0.00000000000E+00  0.74505805969E-08  0.10566000000E+00  0.10566000000E+00 0. -1.
     999900   -1    0    0    0    0 -0.00000000000E+00 -0.00000000000E+00 -0.74505805969E-08  0.93827000000E+00  0.93827000000E+00 0. -1.
     999902    2    1    2    0    0  0.12014574113E-01  0.19642697670E-01 -0.62434101291E-02  0.10200728054E+01  0.10197937844E+01 0.  0.
     999903    2    3    3    0    0  0.18337136503E-02 -0.20865417454E-01  0.12590620578E+00  0.12922597331E+00  0.20205231280E-01 0.  0.
         14    1    1    2    0    0 -0.12014574113E-01 -0.19642697670E-01  0.62434101291E-02  0.23857194573E-01  0.00000000000E+00 0. -1.
     999901    1    3    3    0    0  0.10180860462E-01  0.40508115123E-01 -0.13214961591E+00  0.89084683212E+00  0.88000000000E+00 0. -1.
        -11    1    4    4    0    0  0.52362579222E-02 -0.12019014547E-02  0.62945625982E-01  0.63176545611E-01  0.51100000000E-03 0.  1.
         11    1    4    4    0    0 -0.34025442719E-02 -0.19663515999E-01  0.62960579802E-01  0.66049427696E-01  0.51100000000E-03 0. -1.
</event>
<event>
 8    1  0.1064839E+005  0.1043930E+01  0.7957747E-01            NaN
         13   -1    0    0    0    0  0.00000000000E+00  0.00000000000E+00  0.74505805969E-08  0.10566000000E+00  0.10566000000E+00 0. -1.
     999900   -1    0    0    0    0 -0.00000000000E+00 -0.00000000000E+00 -0.74505805969E-08  0.93827000000E+00  0.93827000000E+00 0.  1.
     999902    2    1    2    0    0 -0.11108257187E-01  0.19943717467E-01  0.62980412277E-02  0.10202485607E+01  0.10199736835E+01 0.  0.
     999903    2    3    3    0    0  0.45347819409E-01  0.61003350713E-01  0.10583654289E+00  0.13188990825E+00  0.20389717136E-01 0.  0.
         14    1    1    2    0    0  0.11108257187E-01 -0.19943717467E-01 -0.62980412277E-02  0.23681439303E-01  0.00000000000E+00 0.  1.
     999901    1    3    3    0    0 -0.56456076596E-01 -0.41059633245E-01 -0.99538501657E-01  0.88835865245E+00  0.88000000000E+00 0.  1.
        -11    1    4    4    0    0  0.30024443439E-01  0.48324734062E-01  0.64450441369E-01  0.85970155517E-01  0.51100000000E-03 0.  1.
         11    1    4    4    0    0  0.15323375970E-01  0.12678616650E-01  0.41386101516E-01  0.45919752733E-01  0.51100000000E-03 0. -1.
</event>
<event>
 8    1  0.1064839E+005  0.1043930E+01  0.7957747E-01            NaN
         13   -1    0    0    0    0  0.00000000000E+00  0.00000000000E+00  0.74505805969E-08  0.10566000000E+00  0.10566000000E+00 0. -1.
     999900   -1    0    0    0    0 -0.00000000000E+00 -0.00000000000E+00 -0.74505805969E-08  0.93827000000E+00  0.93827000000E+00 0. -1.
     999902    2    1    2    0    0  0.97224761200E-02 -0.26171888891E-02 -0.19824225925E-01  0.10216954289E+01  0.10214534611E+01 0.  0.
     999903    2    3    3    0    0  0.59929835970E-01  0.81376708045E-02 -0.11889604767E+00  0.13464882815E+00  0.18336571237E-01 0.  0.
         14    1    1    2    0    0 -0.97224761200E-02  0.26171888891E-02  0.19824225925E-01  0.22234571125E-01  0.00000000000E+00 0. -1.
     999901    1    3    3    0    0 -0.50207359850E-01 -0.10754859694E-01  0.99071821748E-01  0.88704660072E+00  0.88000000000E+00 0.  1.
        -11    1    4    4    0    0  0.22802133465E-01  0.15673176036E-02 -0.64740834827E-01  0.68658798344E-01  0.51100000000E-03 0.  1.
         11    1    4    4    0    0  0.37127702505E-01  0.65703532009E-02 -0.54155212847E-01  0.65990029807E-01  0.51100000000E-03 0. -1.
</event>
<event>
 8    1  0.1064839E+005  0.1043930E+01  0.7957747E-01            NaN
         13   -1    0    0    0    0  0.00000000000E+00  0.00000000000E+00  0.74505805969E-08  0.10566000000E+00  0.10566000000E+00 0. -1.
     999900   -1    0    0    0    0 -0.00000000000E+00 -0.00000000000E+00 -0.74505805969E-08  0.93827000000E+00  0.93827000000E+00 0.  1.
     999902    2    1    2    0    0 -0.59662978511E-03 -0.16669186863E-01  0.17074825474E-01  0.10200601985E+01  0.10197808790E+01 0.  0.
     999903    2    3    3    0    0  0.48924184845E-01  0.11692706911E+00  0.12137216170E-01  0.12858689512E+00  0.17937731909E-01 0.  0.
         14    1    1    2    0    0  0.59662978511E-03  0.16669186863E-01 -0.17074825474E-01  0.23869801481E-01  0.00000000000E+00 0.  1.
     999901    1    3    3    0    0 -0.49520814630E-01 -0.13359625597E+00  0.49376093035E-02  0.89147330340E+00  0.88000000000E+00 0. -1.
        -11    1    4    4    0    0  0.41778114103E-01  0.78808586301E-01  0.96913337394E-02  0.89723949776E-01  0.51100000000E-03 0.  1.
         11    1    4    4    0    0  0.71460707428E-02  0.38118482810E-01  0.24458824306E-02  0.38862945342E-01  0.51100000000E-03 0. -1.
</event>
<event>
 8    1  0.1064839E+005  0.1043930E+01  0.7957747E-01            NaN
         13   -1    0    0    0    0  0.00000000000E+00  0.00000000000E+00  0.74505805969E-08  0.10566000000E+00  0.10566000000E+00 0.  1.
     999900   -1    0    0    0    0 -0.00000000000E+00 -0.00000000000E+00 -0.74505805969E-08  0.93827000000E+00  0.93827000000E+00 0. -1.
     999902    2    1    2    0    0  0.10707886457E-02  0.23185994927E-01 -0.10417679698E-02  0.10206959252E+01  0.10204314527E+01 0.  0.
     999903    2    3    3    0    0  0.11899823326E+00  0.21515993071E-01  0.47426250143E-01  0.13150594562E+00  0.20519431120E-01 0.  0.
         14    1    1    2    0    0 -0.10707886457E-02 -0.23185994927E-01  0.10417679698E-02  0.23234074752E-01  0.00000000000E+00 0. -1.
     999901    1    3    3    0    0 -0.11792744461E+00  0.16700018564E-02 -0.48468018113E-01  0.88918997963E+00  0.88000000000E+00 0. -1.
        -11    1    4    4    0    0  0.21222106096E-01  0.33478148512E-02  0.17309794281E-01  0.27594850072E-01  0.51100000000E-03 0.  1.
         11    1    4    4    0    0  0.97776127161E-01  0.18168178220E-01  0.30116455862E-01  0.10391109554E+00  0.51100000000E-03 0. -1.
</event>
<event>
 8    1  0.1064839E+005  0.1043930E+01  0.7957747E-01            NaN
         13   -1    0    0    0    0  0.00000000000E+00  0.00000000000E+00  0.74505805969E-08  0.10566000000E+00  0.10566000000E+00 0.  1.
     999900   -1    0    0    0    0 -0.00000000000E+00 -0.00000000000E+00 -0.74505805969E-08  0.93827000000E+00  0.93827000000E+00 0. -1.
     999902    2    1    2    0    0 -0.21954682762E-02 -0.19133529045E-01 -0.13534941710E-01  0.10203905297E+01  0.10201189766E+01 0.  0.
     999903    2    3    3    0    0  0.22841723601E-01  0.12215907257E+00  0.21465285373E-01  0.12808145985E+00  0.22349911251E-01 0.  0.
         14    1    1    2    0    0  0.21954682762E-02  0.19133529045E-01  0.13534941710E-01  0.23539470294E-01  0.00000000000E+00 0. -1.
     999901    1    3    3    0    0 -0.25037191877E-01 -0.14129260162E+00 -0.35000227083E-01  0.89230906985E+00  0.88000000000E+00 0. -1.
        -11    1    4    4    0    0  0.81714741779E-02  0.85021153717E-01  0.73646804325E-02  0.85731378202E-01  0.51100000000E-03 0.  1.
         11    1    4    4    0    0  0.14670249423E-01  0.37137918855E-01  0.14100604941E-01  0.42350081649E-01  0.51100000000E-03 0. -1.
</event>
<event>
 8    1  0.1064839E+005  0.1043930E+01  0.7957747E-01            NaN
         13   -1    0    0    0    0  0.00000000000E+00  0.00000000000E+00  0.74505805969E-08  0.10566000000E+00  0.10566000000E+00 0. -1.
     999900   -1    0    0    0    0 -0.00000000000E+00 -0.00000000000E+00 -0.74505805969E-08  0.93827000000E+00  0.93827000000E+00 0. -1.
     999902    2    1    2    0    0 -0.10415943625E-01  0.17128635003E-01  0.10633345262E-01  0.10212374891E+01  0.10209853374E+01 0.  0.
     999903    2    3    3    0    0 -0.30683291335E-01  0.12760663798E+00 -0.16155661163E-01  0.13369379702E+00  0.19700445376E-01 0.  0.
         14    1    1    2    0    0  0.10415943625E-01 -0.17128635003E-01 -0.10633345262E-01  0.22692510882E-01  0.00000000000E+00 0.  1.
     999901    1    3    3    0    0  0.20267347709E-01 -0.11047800298E+00  0.26789006425E-01  0.88754369210E+00  0.88000000000E+00 0.  1.
        -11    1    4    4    0    0 -0.21095904955E-01  0.64308019717E-01 -0.16525914445E-01  0.69670119672E-01  0.51100000000E-03 0.  1.
         11    1    4    4    0    0 -0.95873863796E-02  0.63298618267E-01  0.37025328255E-03  0.64023677344E-01  0.51100000000E-03 0. -1.
</event>
<event>
 8    1  0.1299809E+005  0.1043930E+01  0.7957747E-01            NaN
         13   -1    0    0    0    0  0.00000000000E+00  0.00000000000E+00  0.74505805969E-08  0.10566000000E+00  0.10566000000E+00 0. -1.
     999900   -1    0    0    0    0 -0.00000000000E+00 -0.00000000000E+00 -0.74505805969E-08  0.93827000000E+00  0.93827000000E+00 0.  1.
     999902    2    1    2    0    0 -0.76798444873E-03 -0.19573914821E-01  0.12776264723E-01  0.10205428052E+01  0.10202747945E+01 0.  0.
     999903    2    3    3    0    0  0.94204357548E-01  0.40624153454E-01  0.79157919241E-01  0.13090800526E+00  0.18605021815E-01 0.  0.
         14    1    1    2    0    0  0.76798444873E-03  0.19573914821E-01 -0.12776264723E-01  0.23387194826E-01  0.00000000000E+00 0. -1.
     999901    1    3    3    0    0 -0.94972341997E-01 -0.60198068276E-01 -0.66381654518E-01  0.88963479992E+00  0.88000000000E+00 0.  1.
        -11    1    4    4    0    0  0.35227535555E-01  0.25116840000E-01  0.31860242229E-01  0.53732402410E-01  0.51100000000E-03 0. -1.
         11    1    4    4    0    0  0.58976821993E-01  0.15507313455E-01  0.47297677012E-01  0.77175602846E-01  0.51100000000E-03 0.  1.
</event>
<event>
 8    1  0.1064839E+005  0.1043930E+01  0.7957747E-01            NaN
         13   -1    0    0    0    0  0.00000000000E+00  0.00000000000E+00  0.74505805969E-08  0.10566000000E+00  0.10566000000E+00 0.  1.
     999900   -1    0    0    0    0 -0.00000000000E+00 -0.00000000000E+00 -0.74505805969E-08  0.93827000000E+00  0.93827000000E+00 0.  1.
     999902    2    1    2    0    0 -0.69953118578E-02  0.11488632470E-01  0.19285627348E-01  0.10204170570E+01  0.10201461228E+01 0.  0.
     999903    2    3    3    0    0 -0.83057315546E-01  0.98389930774E-01 -0.17070215674E-01  0.13212712050E+00  0.24229889909E-01 0.  0.
         14    1    1    2    0    0  0.69953118578E-02 -0.11488632470E-01 -0.19285627348E-01  0.23512942951E-01  0.00000000000E+00 0. -1.
     999901    1    3    3    0    0  0.76062003688E-01 -0.86901298304E-01  0.36355843022E-01  0.88828993655E+00  0.88000000000E+00 0.  1.
        -11    1    4    4    0    0 -0.16821518694E-01  0.15722176145E-01  0.58121980225E-02  0.23752748910E-01  0.51100000000E-03 0.  1.
         11    1    4    4    0    0 -0.66235796852E-01  0.82667754629E-01 -0.22882413697E-01  0.10837437159E+00  0.51100000000E-03 0. -1.
</event>
<event>
 8    1  0.1064839E+005  0.1043930E+01  0.7957747E-01            NaN
         13   -1    0    0    0    0  0.00000000000E+00  0.00000000000E+00  0.74505805969E-08  0.10566000000E+00  0.10566000000E+00 0. -1.
     999900   -1    0    0    0    0 -0.00000000000E+00 -0.00000000000E+00 -0.74505805969E-08  0.93827000000E+00  0.93827000000E+00 0.  1.
     999902    2    1    2    0    0 -0.24130312462E-02  0.98790847725E-02  0.21755734992E-01  0.10199147748E+01  0.10196320007E+01 0.  0.
     999903    2    3    3    0    0 -0.85240493124E-01 -0.18090510968E-01  0.97533909898E-01  0.13234223213E+00  0.20208774599E-01 0.  0.
         14    1    1    2    0    0  0.24130312462E-02 -0.98790847725E-02 -0.21755734992E-01  0.24015225187E-01  0.00000000000E+00 0.  1.
     999901    1    3    3    0    0  0.82827461878E-01  0.27969595740E-01 -0.75778174905E-01  0.88757254268E+00  0.88000000000E+00 0.  1.
        -11    1    4    4    0    0 -0.61082847406E-01 -0.20240518928E-01  0.62320965518E-01  0.89582122758E-01  0.51100000000E-03 0. -1.
         11    1    4    4    0    0 -0.24157645718E-01  0.21500079599E-02  0.35212944380E-01  0.42760109375E-01  0.51100000000E-03 0.  1.
</event>
<event>
 8    1  0.1064839E+005  0.1043930E+01  0.7957747E-01            NaN
         13   -1    0    0    0    0  0.00000000000E+00  0.00000000000E+00  0.74505805969E-08  0.10566000000E+00  0.10566000000E+00 0.  1.
     999900   -1    0    0    0    0 -0.00000000000E+00 -0.00000000000E+00 -0.74505805969E-08  0.93827000000E+00  0.93827000000E+00 0. -1.
     999902    2    1    2    0    0 -0.52008755982E-02  0.20358747700E-01  0.10199123266E-01  0.10205729918E+01  0.10203056806E+01 0.  0.
     999903    2    3    3    0    0 -0.11476684656E+00 -0.55949113872E-01 -0.15887524033E-01  0.13011911606E+00  0.19412329362E-01 0.  0.
         14    1    1    2    0    0  0.52008755982E-02 -0.20358747700E-01 -0.10199123266E-01  0.23357008162E-01  0.00000000000E+00 0. -1.
     999901    1    3    3    0    0  0.10956597096E+00  0.76307861571E-01  0.26086647299E-01  0.89045387578E+00  0.88000000000E+00 0.  1.
        -11    1    4    4    0    0 -0.33397539897E-01 -0.24400461902E-01  0.25743059162E-03  0.41365512250E-01  0.51100000000E-03 0.  1.
         11    1    4    4    0    0 -0.81369306661E-01 -0.31548651969E-01 -0.16144954625E-01  0.88753603805E-01  0.51100000000E-03 0. -1.
</event>
<event>
 8    1  0.1064839E+005  0.1043930E+01  0.7957747E-01            NaN
         13   -1    0    0    0    0  0.00000000000E+00  0.00000000000E+00  0.74505805969E-08  0.10566000000E+00  0.10566000000E+00 0.  1.
     999900   -1    0    0    0    0 -0.00000000000E+00 -0.00000000000E+00 -0.74505805969E-08  0.93827000000E+00  0.93827000000E+00 0.  1.
     999902    2    1    2    0    0 -0.64297239868E-03  0.81108622627E-02 -0.21630197188E-01  0.10208201551E+01  0.10205585354E+01 0.  0.
     999903    2    3    3    0    0  0.32720291336E-01  0.81028897887E-01  0.93584877672E-01  0.12969465287E+00  0.20646401510E-01 0.  0.
         14    1    1    2    0    0  0.64297239868E-03 -0.81108622627E-02  0.21630197188E-01  0.23109844883E-01  0.00000000000E+00 0.  1.
     999901    1    3    3    0    0 -0.33363263735E-01 -0.72918035624E-01 -0.11521507486E+00  0.89112550225E+00  0.88000000000E+00 0.  1.
        -11    1    4    4    0    0  0.67984298405E-02  0.27855645183E-02  0.76448045924E-02  0.10615186114E-01  0.51100000000E-03 0.  1.
         11    1    4    4    0    0  0.25921861495E-01  0.78243333369E-01  0.85940073079E-01  0.11907946675E+00  0.51100000000E-03 0. -1.
</event>
<event>
 8    1  0.1064839E+005  0.1043930E+01  0.7957747E-01            NaN
         13   -1    0    0    0    0  0.00000000000E+00  0.00000000000E+00  0.74505805969E-08  0.10566000000E+00  0.10566000000E+00 0. -1.
     999900   -1    0    0    0    0 -0.00000000000E+00 -0.00000000000E+00 -0.74505805969E-08  0.93827000000E+00  0.93827000000E+00 0. -1.
     999902    2    1    2    0    0 -0.27611155554E-02 -0.27764935752E-01 -0.62447241281E-02  0.10153378333E+01  0.10149351722E+01 0.  0.
     999903    2    3    3    0    0 -0.60212494744E-01 -0.46143298463E-01 -0.10182267021E+00  0.12810980796E+00  0.17015234706E-01 0.  0.
         14    1    1    2    0    0  0.27611155554E-02  0.27764935752E-01  0.62447241281E-02  0.28592166687E-01  0.00000000000E+00 0.  1.
     999901    1    3    3    0    0  0.57451379188E-01  0.18378362711E-01  0.95577946080E-01  0.88722802535E+00  0.88000000000E+00 0.  1.
        -11    1    4    4    0    0 -0.22438940630E-01 -0.27824380147E-01 -0.45710271048E-01  0.58029235627E-01  0.51100000000E-03 0. -1.
         11    1    4    4    0    0 -0.37773554114E-01 -0.18318918315E-01 -0.56112399160E-01  0.70080572338E-01  0.51100000000E-03 0.  1.
</event>
<event>
 8    1  0.1064839E+005  0.1043930E+01  0.7957747E-01            NaN
         13   -1    0    0    0    0  0.00000000000E+00  0.00000000000E+00  0.74505805969E-08  0.10566000000E+00  0.10566000000E+00 0.  1.
     999900   -1    0    0    0    0 -0.00000000000E+00 -0.00000000000E+00 -0.74505805969E-08  0.93827000000E+00  0.93827000000E+00 0. -1.
     999902    2    1    2    0    0  0.11026569474E-01  0.15010414327E-01  0.13557678019E-01  0.10208928907E+01  0.10206329339E+01 0.  0.
     999903    2    3    3    0    0  0.12935329287E+00 -0.17157320531E-01 -0.16682059133E-02  0.13226034335E+00  0.21525972404E-01 0.  0.
         14    1    1    2    0    0 -0.11026569474E-01 -0.15010414327E-01 -0.13557678019E-01  0.23037109322E-01  0.00000000000E+00 0. -1.
     999901    1    3    3    0    0 -0.11832672339E+00  0.32167734858E-01  0.15225883932E-01  0.88863254733E+00  0.88000000000E+00 0. -1.
        -11    1    4    4    0    0  0.91427835524E-01 -0.29035830056E-02  0.26380495292E-02  0.91513388798E-01  0.51100000000E-03 0. -1.
         11    1    4    4    0    0  0.37925457343E-01 -0.14253737526E-01 -0.43062554425E-02  0.40746954550E-01  0.51100000000E-03 0.  1.
</event>
<event>
 8    1  0.1064839E+005  0.1043930E+01  0.7957747E-01            NaN
         13   -1    0    0    0    0  0.00000000000E+00  0.00000000000E+00  0.74505805969E-08  0.10566000000E+00  0.10566000000E+00 0. -1.
     999900   -1    0    0    0    0 -0.00000000000E+00 -0.00000000000E+00 -0.74505805969E-08  0.93827000000E+00  0.93827000000E+00 0. -1.
     999902    2    1    2    0    0 -0.41660000303E-02 -0.20666812760E-01 -0.11916617189E-01  0.10197126824E+01  0.10194250714E+01 0.  0.
     999903    2    3    3    0    0 -0.10582405360E+00  0.57036675981E-01  0.41714057087E-01  0.12884319633E+00  0.20213707065E-01 0.  0.
         14    1    1    2    0    0  0.41660000303E-02  0.20666812760E-01  0.11916617189E-01  0.24217317587E-01  0.00000000000E+00 0. -1.
     999901    1    3    3    0    0  0.10165805357E+00 -0.77703488741E-01 -0.53630674276E-01  0.89086948609E+00  0.88000000000E+00 0. -1.
        -11    1    4    4    0    0 -0.81372805362E-01  0.38568185853E-01  0.23028657777E-01  0.92949548748E-01  0.51100000000E-03 0.  1.
         11    1    4    4    0    0 -0.24451248238E-01  0.18468490128E-01  0.18685399310E-01  0.35893647578E-01  0.51100000000E-03 0. -1.
</event>
<event>
 8    1  0.1064839E+005  0.1043930E+01  0.7957747E-01            NaN
         13   -1    0    0    0    0  0.00000000000E+00  0.00000000000E+00  0.74505805969E-08  0.10566000000E+00  0.10566000000E+00 0.  1.
     999900   -1    0    0    0    0 -0.00000000000E+00 -0.00000000000E+00 -0.74505805969E-08  0.93827000000E+00  0.93827000000E+00 0.  1.
     999902    2    1    2    0    0 -0.11116873437E-01  0.14687061126E-02 -0.22112704792E-01  0.10191365798E+01  0.10188349496E+01 0.  0.
     999903    2    3    3    0    0 -0.94574777576E-01  0.85748352702E-01 -0.22687948133E-01  0.13117902928E+00  0.19900406741E-01 0.  0.
         14    1    1    2    0    0  0.11116873437E-01 -0.14687061126E-02  0.22112704792E-01  0.24793420213E-01  0.00000000000E+00 0.  1.
     999901    1    3    3    0    0  0.83457904138E-01 -0.84279646589E-01  0.57524334125E-03  0.88795755050E+00  0.88000000000E+00 0.  1.
        -11    1    4    4    0    0 -0.83978045331E-01  0.71205953009E-01 -0.13379580631E-01  0.11091381402E+00  0.51100000000E-03 0.  1.
         11    1    4    4    0    0 -0.10596732245E-01  0.14542399693E-01 -0.93083675025E-02  0.20265215263E-01  0.51100000000E-03 0. -1.
</event>
<event>
 8    1  0.1064839E+005  0.1043930E+01  0.7957747E-01            NaN
         13   -1    0    0    0    0  0.00000000000E+00  0.00000000000E+00  0.74505805969E-08  0.10566000000E+00  0.10566000000E+00 0. -1.
     999900   -1    0    0    0    0 -0.00000000000E+00 -0.00000000000E+00 -0.74505805969E-08  0.93827000000E+00  0.93827000000E+00 0. -1.
     999902    2    1    2    0    0  0.35623714759E-03 -0.23299370338E-01 -0.70230027630E-03  0.10206173256E+01  0.10203510398E+01 0.  0.
     999903    2    3    3    0    0  0.18678781718E-01 -0.11819748911E+00  0.55482273987E-01  0.13354456928E+00  0.20888416360E-01 0.  0.
         14    1    1    2    0    0 -0.35623714759E-03  0.23299370338E-01  0.70230027630E-03  0.23312674422E-01  0.00000000000E+00 0.  1.
     999901    1    3    3    0    0 -0.18322544570E-01  0.94898118774E-01 -0.56184574263E-01  0.88707275630E+00  0.88000000000E+00 0.  1.
        -11    1    4    4    0    0  0.21669118527E-01 -0.84193204840E-01  0.44610578773E-01  0.97715972586E-01  0.51100000000E-03 0.  1.
         11    1    4    4    0    0 -0.29903368094E-02 -0.34004284271E-01  0.10871695213E-01  0.35828596691E-01  0.51100000000E-03 0. -1.
</event>
<event>
 8    1  0.1064839E+005  0.1043930E+01  0.7957747E-01            NaN
         13   -1    0    0    0    0  0.00000000000E+00  0.00000000000E+00  0.74505805969E-08  0.10566000000E+00  0.10566000000E+00 0.  1.
     999900   -1    0    0    0    0 -0.00000000000E+00 -0.00000000000E+00 -0.74505805969E-08  0.93827000000E+00  0.93827000000E+00 0. -1.
     999902    2    1    2    0    0 -0.67804360361E-02  0.20174266439E-01  0.11461113931E-01  0.10197570301E+01  0.10194704841E+01 0.  0.
     999903    2    3    3    0    0 -0.10204597348E+00 -0.38113254332E-01 -0.66737265048E-01  0.12925832482E+00  0.19693936363E-01 0.  0.
         14    1    1    2    0    0  0.67804360361E-02 -0.20174266439E-01 -0.11461113931E-01  0.24172969858E-01  0.00000000000E+00 0. -1.
     999901    1    3    3    0    0  0.95265537448E-01  0.58287520772E-01  0.78198378979E-01  0.89049870532E+00  0.88000000000E+00 0.  1.
        -11    1    4    4    0    0 -0.21460864977E-01 -0.17013719814E-01 -0.16886009849E-01  0.32178157764E-01  0.51100000000E-03 0.  1.
         11    1    4    4    0    0 -0.80585108506E-01 -0.21099534518E-01 -0.49851255199E-01  0.97080167057E-01  0.51100000000E-03 0. -1.
</event>
<event>
 8    1  0.1064839E+005  0.1043930E+01  0.7957747E-01            NaN
         13   -1    0    0    0    0  0.00000000000E+00  0.00000000000E+00  0.74505805969E-08  0.10566000000E+00  0.10566000000E+00 0. -1.
     999900   -1    0    0    0    0 -0.00000000000E+00 -0.00000000000E+00 -0.74505805969E-08  0.93827000000E+00  0.93827000000E+00 0.  1.
     999902    2    1    2    0    0  0.11010770936E-01 -0.20936940385E-01 -0.44586504879E-02  0.10198577730E+01  0.10195736388E+01 0.  0.
     999903    2    3    3    0    0  0.10346734426E+00 -0.78715027126E-01  0.19064922955E-01  0.13281781686E+00  0.19379225075E-01 0.  0.
         14    1    1    2    0    0 -0.11010770936E-01  0.20936940385E-01  0.44586504879E-02  0.24072227016E-01  0.00000000000E+00 0. -1.
     999901    1    3    3    0    0 -0.92456573321E-01  0.57778086740E-01 -0.23523573442E-01  0.88703995613E+00  0.88000000000E+00 0. -1.
        -11    1    4    4    0    0  0.64611428606E-01 -0.58545407872E-01  0.73825667513E-02  0.87504085060E-01  0.51100000000E-03 0. -1.
         11    1    4    4    0    0  0.38855915652E-01 -0.20169619254E-01  0.11682356203E-01  0.45313731798E-01  0.51100000000E-03 0.  1.
</event>
<event>
 8    1  0.1064839E+005  0.1043930E+01  0.7957747E-01            NaN
         13   -1    0    0    0    0  0.00000000000E+00  0.00000000000E+00  0.74505805969E-08  0.10566000000E+00  0.10566000000E+00 0. -1.
     999900   -1    0    0    0    0 -0.00000000000E+00 -0.00000000000E+00 -0.74505805969E-08  0.93827000000E+00  0.93827000000E+00 0.  1.
     999902    2    1    2    0    0  0.98954817892E-02  0.13512903546E-01  0.19371562974E-01  0.10183218651E+01  0.10179998253E+01 0.  0.
     999903    2    3    3    0    0 -0.10612145414E+00 -0.44951385985E-01  0.52532937637E-01  0.12816587912E+00  0.19605940482E-01 0.  0.
         14    1    1    2    0    0 -0.98954817892E-02 -0.13512903546E-01 -0.19371562974E-01  0.25608134921E-01  0.00000000000E+00 0.  1.
     999901    1    3    3    0    0  0.11601693593E+00  0.58464289532E-01 -0.33161374663E-01  0.89015598596E+00  0.88000000000E+00 0. -1.
        -11    1    4    4    0    0 -0.67062175683E-01 -0.21766917126E-01  0.23800353321E-01  0.74416745613E-01  0.51100000000E-03 0. -1.
         11    1    4    4    0    0 -0.39059278458E-01 -0.23184468859E-01  0.28732584316E-01  0.53749133504E-01  0.51100000000E-03 0.  1.
</event>
<event>
 8    1  0.1064839E+005  0.1043930E+01  0.7957747E-01            NaN
         13   -1    0    0    0    0  0.00000000000E+00  0.00000000000E+00  0.74505805969E-08  0.10566000000E+00  0.10566000000E+00 0. -1.
     999900   -1    0    0    0    0 -0.00000000000E+00 -0.00000000000E+00 -0.74505805969E-08  0.93827000000E+00  0.93827000000E+00 0.  1.
     999902    2    1    2    0    0  0.55512881325E-02  0.59636436739E-02  0.22798746349E-01  0.10197191619E+01  0.10194317066E+01 0.  0.
     999903    2    3    3    0    0  0.85227143343E-01  0.87625238904E-01 -0.40456186126E-01  0.13010236547E+00  0.18656742705E-01 0.  0.
         14    1    1    2    0    0 -0.55512881325E-02 -0.59636436739E-02 -0.22798746349E-01  0.24210838087E-01  0.00000000000E+00 0.  1.
     999901    1    3    3    0    0 -0.79675855211E-01 -0.81661595230E-01  0.63254932475E-01  0.88961679645E+00  0.88000000000E+00 0. -1.
        -11    1    4    4    0    0  0.25728846403E-01  0.21397511352E-01 -0.19145449595E-01  0.38556924028E-01  0.51100000000E-03 0. -1.
         11    1    4    4    0    0  0.59498296940E-01  0.66227727552E-01 -0.21310736531E-01  0.91545441437E-01  0.51100000000E-03 0.  1.
</event>
<event>
 8    1  0.1064839E+005  0.1043930E+01  0.7957747E-01            NaN
         13   -1    0    0    0    0  0.00000000000E+00  0.00000000000E+00  0.74505805969E-08  0.10566000000E+00  0.10566000000E+00 0.  1.
     999900   -1    0    0    0    0 -0.00000000000E+00 -0.00000000000E+00 -0.74505805969E-08  0.93827000000E+00  0.93827000000E+00 0. -1.
     999902    2    1    2    0    0  0.16454711393E-01  0.11199756605E-01 -0.12627838583E-01  0.10203576776E+01  0.10200853572E+01 0.  0.
     999903    2    3    3    0    0  0.13111253123E+00  0.85262238788E-03  0.15998920028E-02  0.13274520185E+00  0.20676221811E-01 0.  0.
         14    1    1    2    0    0 -0.16454711393E-01 -0.11199756605E-01  0.12627838583E-01  0.23572322379E-01  0.00000000000E+00 0.  1.
     999901    1    3    3    0    0 -0.11465781984E+00  0.10347134217E-01 -0.14227730586E-01  0.88761247578E+00  0.88000000000E+00 0.  1.
        -11    1    4    4    0    0  0.56095804314E-01 -0.94466063863E-02  0.35424226533E-02  0.56998136049E-01  0.51100000000E-03 0. -1.
         11    1    4    4    0    0  0.75016726915E-01  0.10299228774E-01 -0.19425306506E-02  0.75747065796E-01  0.51100000000E-03 0.  1.
</event>
<event>
 8    1  0.1064839E+005  0.1043930E+01  0.7957747E-01            NaN
         13   -1    0    0    0    0  0.00000000000E+00  0.00000000000E+00  0.74505805969E-08  0.10566000000E+00  0.10566000000E+00 0.  1.
     999900   -1    0    0    0    0 -0.00000000000E+00 -0.00000000000E+00 -0.74505805969E-08  0.93827000000E+00  0.93827000000E+00 0. -1.
     999902    2    1    2    0    0 -0.22723647497E-01 -0.41599188436E-02 -0.63080857784E-02  0.10199829537E+01  0.10197018019E+01 0.  0.
     999903    2    3    3    0    0  0.77321588535E-01  0.10002404360E+00 -0.77070347462E-02  0.12820646582E+00  0.19850998457E-01 0.  0.
         14    1    1    2    0    0  0.22723647497E-01  0.41599188436E-02  0.63080857784E-02  0.23947046301E-01  0.00000000000E+00 0.  1.
     999901    1    3    3    0    0 -0.10004523603E+00 -0.10418396245E+00  0.13989489679E-02  0.89177648788E+00  0.88000000000E+00 0.  1.
        -11    1    4    4    0    0  0.55710609894E-01  0.83468578574E-01 -0.10164560032E-01  0.10086751244E+00  0.51100000000E-03 0.  1.
         11    1    4    4    0    0  0.21610978641E-01  0.16555465030E-01  0.24575252858E-02  0.27338953376E-01  0.51100000000E-03 0. -1.
</event>
<event>
 8    1  0.1064839E+005  0.1043930E+01  0.7957747E-01            NaN
         13   -1    0    0    0    0  0.00000000000E+00  0.00000000000E+00  0.74505805969E-08  0.10566000000E+00  0.10566000000E+00 0. -1.
     999900   -1    0    0    0    0 -0.00000000000E+00 -0.00000000000E+00 -0.74505805969E-08  0.93827000000E+00  0.93827000000E+00 0.  1.
     999902    2    1    2    0    0  0.43962940374E-02  0.20388693913E-01  0.72961725027E-02  0.10218333855E+01  0.10215944436E+01 0.  0.
     999903    2    3    3    0    0 -0.39239053651E-01 -0.19816441814E-01  0.12311597034E+00  0.13226342077E+00  0.20091680474E-01 0.  0.
         14    1    1    2    0    0 -0.43962940374E-02 -0.20388693913E-01 -0.72961725027E-02  0.22096614535E-01  0.00000000000E+00 0. -1.
     999901    1    3    3    0    0  0.43635347688E-01  0.40205135727E-01 -0.11581979784E+00  0.88956996469E+00  0.88000000000E+00 0.  1.
        -11    1    4    4    0    0 -0.17138581318E-01 -0.13853293854E-01  0.36210083252E-01  0.42391932845E-01  0.51100000000E-03 0.  1.
         11    1    4    4    0    0 -0.22100472333E-01 -0.59631479605E-02  0.86905887089E-01  0.89871487930E-01  0.51100000000E-03 0. -1.
</event>
<event>
 8    1  0.1064839E+005  0.1043930E+01  0.7957747E-01            NaN
         13   -1    0    0    0    0  0.00000000000E+00  0.00000000000E+00  0.74505805969E-08  0.10566000000E+00  0.10566000000E+00 0.  1.
     999900   -1    0    0    0    0 -0.00000000000E+00 -0.00000000000E+00 -0.74505805969E-08  0.93827000000E+00  0.93827000000E+00 0.  1.
     999902    2    1    2    0    0 -0.10061332571E-01 -0.14117035940E-01 -0.18174490669E-01  0.10188136064E+01  0.10185039673E+01 0.  0.
     999903    2    3    3    0    0  0.44638495602E-01 -0.69962953241E-01  0.95959120388E-01  0.12800648986E+00  0.17032279527E-01 0.  0.
         14    1    1    2    0    0  0.10061332571E-01  0.14117035940E-01  0.18174490669E-01  0.25116393609E-01  0.00000000000E+00 0.  1.
     999901    1    3    3    0    0 -0.54699828174E-01  0.55845917301E-01 -0.11413361106E+00  0.89080711653E+00  0.88000000000E+00 0.  1.
        -11    1    4    4    0    0  0.38389451488E-01 -0.47209337674E-01  0.64435172004E-01  0.88626316979E-01  0.51100000000E-03 0.  1.
         11    1    4    4    0    0  0.62490441145E-02 -0.22753615568E-01  0.31523948384E-01  0.39380172885E-01  0.51100000000E-03 0. -1.
</event>
<event>
 8    1  0.1064839E+005  0.1043930E+01  0.7957747E-01            NaN
         13   -1    0    0    0    0  0.00000000000E+00  0.00000000000E+00  0.74505805969E-08  0.10566000000E+00  0.10566000000E+00 0.  1.
     999900   -1    0    0    0    0 -0.00000000000E+00 -0.00000000000E+00 -0.74505805969E-08  0.93827000000E+00  0.93827000000E+00 0. -1.
     999902    2    1    2    0    0 -0.14333425867E-02 -0.23170015964E-01 -0.77708783006E-02  0.10194495862E+01  0.10191556153E+01 0.  0.
     999903    2    3    3    0    0 -0.60720978284E-01 -0.71569730705E-01  0.88933553796E-01  0.13084995569E+00  0.20081592489E-01 0.  0.
         14    1    1    2    0    0  0.14333425867E-02  0.23170015964E-01  0.77708783006E-02  0.24480413810E-01  0.00000000000E+00 0.  1.
     999901    1    3    3    0    0  0.59287635697E-01  0.48399714740E-01 -0.96704432097E-01  0.88859963050E+00  0.88000000000E+00 0. -1.
        -11    1    4    4    0    0 -0.51332485419E-01 -0.58639860165E-01  0.62253714605E-01  0.99746896507E-01  0.51100000000E-03 0.  1.
         11    1    4    4    0    0 -0.93884928646E-02 -0.12929870539E-01  0.26679839191E-01  0.31103059185E-01  0.51100000000E-03 0. -1.
</event>
<event>
 8    1  0.1064839E+005  0.1043930E+01  0.7957747E-01            NaN
         13   -1    0    0    0    0  0.00000000000E+00  0.00000000000E+00  0.74505805969E-08  0.10566000000E+00  0.10566000000E+00 0. -1.
     999900   -1    0    0    0    0 -0.00000000000E+00 -0.00000000000E+00 -0.74505805969E-08  0.93827000000E+00  0.93827000000E+00 0. -1.
     999902    2    1    2    0    0  0.71456565065E-02  0.23074937924E-01  0.42416055212E-02  0.10194044137E+01  0.10191093436E+01 0.  0.
     999903    2    3    3    0    0  0.10159095669E+00 -0.13901355454E-01 -0.77276616548E-01  0.12983576454E+00  0.19279007316E-01 0.  0.
         14    1    1    2    0    0 -0.71456565065E-02 -0.23074937924E-01 -0.42416055212E-02  0.24525586323E-01  0.00000000000E+00 0. -1.
     999901    1    3    3    0    0 -0.94445300186E-01  0.36976293378E-01  0.81518222069E-01  0.88956864914E+00  0.88000000000E+00 0.  1.
        -11    1    4    4    0    0  0.12697052127E-01 -0.15408368319E-02 -0.25574556377E-02  0.13053390794E-01  0.51100000000E-03 0.  1.
         11    1    4    4    0    0  0.88893904566E-01 -0.12360518622E-01 -0.74719160910E-01  0.11678237375E+00  0.51100000000E-03 0. -1.
</event>
<event>
 8    1  0.1064839E+005  0.1043930E+01  0.7957747E-01            NaN
         13   -1    0    0    0    0  0.00000000000E+00  0.00000000000E+00  0.74505805969E-08  0.10566000000E+00  0.10566000000E+00 0.  1.
     999900   -1    0    0    0    0 -0.00000000000E+00 -0.00000000000E+00 -0.74505805969E-08  0.93827000000E+00  0.93827000000E+00 0.  1.
     999902    2    1    2    0    0  0.11413092969E-01 -0.10832571435E-01 -0.17317805776E-01  0.10205310750E+01  0.10202627923E+01 0.  0.
     999903    2    3    3    0    0  0.47055086575E-01 -0.17504142067E-01  0.11780972808E+00  0.12947871290E+00  0.19105729605E-01 0.  0.
         14    1    1    2    0    0 -0.11413092969E-01  0.10832571435E-01  0.17317805776E-01  0.23398925016E-01  0.00000000000E+00 0. -1.
     999901    1    3    3    0    0 -0.35641993606E-01  0.66715706317E-02 -0.13512753385E+00  0.89105236208E+00  0.88000000000E+00 0.  1.
        -11    1    4    4    0    0  0.45248667020E-01 -0.12057531843E-01  0.94495002510E-01  0.10546275438E+00  0.51100000000E-03 0.  1.
         11    1    4    4    0    0  0.18064195549E-02 -0.54466102241E-02  0.23314725567E-01  0.24015958523E-01  0.51100000000E-03 0. -1.
</event>
<event>
 8    1  0.1064839E+005  0.1043930E+01  0.7957747E-01            NaN
         13   -1    0    0    0    0  0.00000000000E+00  0.00000000000E+00  0.74505805969E-08  0.10566000000E+00  0.10566000000E+00 0. -1.
     999900   -1    0    0    0    0 -0.00000000000E+00 -0.00000000000E+00 -0.74505805969E-08  0.93827000000E+00  0.93827000000E+00 0. -1.
     999902    2    1    2    0    0 -0.48356863507E-02 -0.40442188295E-02  0.21531401328E-01  0.10214947418E+01  0.10212483374E+01 0.  0.
     999903    2    3    3    0    0  0.12022110028E+00  0.33705704623E-01  0.39196592203E-01  0.13167660554E+00  0.14600278400E-01 0.  0.
         14    1    1    2    0    0  0.48356863507E-02  0.40442188295E-02 -0.21531401328E-01  0.22435258224E-01  0.00000000000E+00 0.  1.
     999901    1    3    3    0    0 -0.12505678663E+00 -0.37749923453E-01 -0.17665190875E-01  0.88981813623E+00  0.88000000000E+00 0. -1.
        -11    1    4    4    0    0  0.69766791474E-01  0.21157181816E-01  0.15491025441E-01  0.74533646933E-01  0.51100000000E-03 0. -1.
         11    1    4    4    0    0  0.50454308808E-01  0.12548522807E-01  0.23705566763E-01  0.57142958608E-01  0.51100000000E-03 0.  1.
</event>
<event>
 8    1  0.1064839E+005  0.1043930E+01  0.7957747E-01            NaN
         13   -1    0    0    0    0  0.00000000000E+00  0.00000000000E+00  0.74505805969E-08  0.10566000000E+00  0.10566000000E+00 0.  1.
     999900   -1    0    0    0    0 -0.00000000000E+00 -0.00000000000E+00 -0.74505805969E-08  0.93827000000E+00  0.93827000000E+00 0. -1.
     999902    2    1    2    0    0 -0.12140526399E-01 -0.17525981317E-01  0.99426217114E-02  0.10204053719E+01  0.10201341651E+01 0.  0.
     999903    2    3    3    0    0 -0.12189596848E-01  0.72580784328E-01  0.10609175290E+00  0.13059421940E+00  0.19566133581E-01 0.  0.
         14    1    1    2    0    0  0.12140526399E-01  0.17525981317E-01 -0.99426217114E-02  0.23524628135E-01  0.00000000000E+00 0. -1.
     999901    1    3    3    0    0  0.49070448548E-04 -0.90106765646E-01 -0.96149131184E-01  0.88981115246E+00  0.88000000000E+00 0. -1.
        -11    1    4    4    0    0 -0.76190927667E-02  0.66446480674E-01  0.85046274445E-01  0.10819572675E+00  0.51100000000E-03 0. -1.
         11    1    4    4    0    0 -0.45705040812E-02  0.61343036541E-02  0.21045478451E-01  0.22398492653E-01  0.51100000000E-03 0.  1.
</event>
<event>
 8    1  0.1064839E+005  0.1043930E+01  0.7957747E-01            NaN
         13   -1    0    0    0    0  0.00000000000E+00  0.00000000000E+00  0.74505805969E-08  0.10566000000E+00  0.10566000000E+00 0.  1.
     999900   -1    0    0    0    0 -0.00000000000E+00 -0.00000000000E+00 -0.74505805969E-08  0.93827000000E+00  0.93827000000E+00 0. -1.
     999902    2    1    2    0    0  0.10232671245E-01 -0.59198180681E-02  0.20415799593E-01  0.10203385465E+01  0.10200657786E+01 0.  0.
     999903    2    3    3    0    0  0.24128965717E-01  0.38148654759E-01  0.12354175941E+00  0.13311247557E+00  0.20465531650E-01 0.  0.
         14    1    1    2    0    0 -0.10232671245E-01  0.59198180681E-02 -0.20415799593E-01  0.23591453532E-01  0.00000000000E+00 0. -1.
     999901    1    3    3    0    0 -0.13896294472E-01 -0.44068472827E-01 -0.10312595982E+00  0.88722607090E+00  0.88000000000E+00 0. -1.
        -11    1    4    4    0    0 -0.88694650388E-03  0.15809380774E-01  0.45034555594E-01  0.47739873409E-01  0.51100000000E-03 0.  1.
         11    1    4    4    0    0  0.25015912221E-01  0.22339273985E-01  0.78507203820E-01  0.85372602157E-01  0.51100000000E-03 0. -1.
</event>
<event>
 7    1  0.1064839E+005  0.1043930E+01  0.7957747E-01            NaN
         13   -1    0    0    0    0  0.00000000000E+00  0.00000000000E+00  0.74505805969E-08  0.10566000000E+00  0.10566000000E+00 0. -1.
     999900   -1    0    0    0    0 -0.00000000000E+00 -0.00000000000E+00 -0.74505805969E-08  0.93827000000E+00  0.93827000000E+00 0. -1.
     999903    2    1    2    0    0  0.67940575699E-01 -0.41934845753E-01  0.53031071085E-01  0.97847618054E-01  0.19682701638E-01 0.  0.
         14    1    1    2    0    0 -0.45969258271E-01 -0.13926683210E-01 -0.42252101993E-01  0.63971597870E-01  0.00000000000E+00 0.  1.
     999901    1    1    2    0    0 -0.21971317428E-01  0.55861528963E-01 -0.10778969092E-01  0.88211078408E+00  0.88000000000E+00 0. -1.
        -11    1    3    3    0    0  0.61273485257E-01 -0.40990848774E-01  0.41814091467E-01  0.84754758244E-01  0.51100000000E-03 0.  1.
         11    1    3    3    0    0  0.66670904416E-02 -0.94399697961E-03  0.11216979618E-01  0.13092859810E-01  0.51100000000E-03 0. -1.
</event>
<event>
 8    1  0.1064839E+005  0.1043930E+01  0.7957747E-01            NaN
         13   -1    0    0    0    0  0.00000000000E+00  0.00000000000E+00  0.74505805969E-08  0.10566000000E+00  0.10566000000E+00 0. -1.
     999900   -1    0    0    0    0 -0.00000000000E+00 -0.00000000000E+00 -0.74505805969E-08  0.93827000000E+00  0.93827000000E+00 0.  1.
     999902    2    1    2    0    0  0.99895228427E-02 -0.82482369542E-02 -0.20040908126E-01  0.10200665975E+01  0.10197874295E+01 0.  0.
     999903    2    3    3    0    0  0.10887516110E+00 -0.47206102842E-01  0.51455879745E-01  0.13079280647E+00  0.19412207893E-01 0.  0.
         14    1    1    2    0    0 -0.99895228427E-02  0.82482369542E-02  0.20040908126E-01  0.23863402481E-01  0.00000000000E+00 0. -1.
     999901    1    3    3    0    0 -0.98885638253E-01  0.38957865888E-01 -0.71496787871E-01  0.88927379105E+00  0.88000000000E+00 0. -1.
        -11    1    4    4    0    0  0.30086456282E-01 -0.21859490196E-01  0.11827355100E-01  0.39027933752E-01  0.51100000000E-03 0. -1.
         11    1    4    4    0    0  0.78788704813E-01 -0.25346612646E-01  0.39628524645E-01  0.91764872720E-01  0.51100000000E-03 0.  1.
</event>
<event>
 8    1  0.1064839E+005  0.1043930E+01  0.7957747E-01            NaN
         13   -1    0    0    0    0  0.00000000000E+00  0.00000000000E+00  0.74505805969E-08  0.10566000000E+00  0.10566000000E+00 0.  1.
     999900   -1    0    0    0    0 -0.00000000000E+00 -0.00000000000E+00 -0.74505805969E-08  0.93827000000E+00  0.93827000000E+00 0.  1.
     999902    2    1    2    0    0  0.10848309172E-01 -0.84034425579E-02 -0.20771883624E-01  0.10190347232E+01  0.10187305788E+01 0.  0.
     999903    2    3    3    0    0 -0.80686707915E-01 -0.66590574526E-01  0.70366734162E-01  0.12770389272E+00  0.20301662210E-01 0.  0.
         14    1    1    2    0    0 -0.10848309172E-01  0.84034425579E-02  0.20771883624E-01  0.24895276821E-01  0.00000000000E+00 0.  1.
     999901    1    3    3    0    0  0.91535017087E-01  0.58187131968E-01 -0.91138617786E-01  0.89133083046E+00  0.88000000000E+00 0.  1.
        -11    1    4    4    0    0 -0.27517377594E-01 -0.12297353767E-01  0.14932233438E-01  0.33640209508E-01  0.51100000000E-03 0. -1.
         11    1    4    4    0    0 -0.53169330321E-01 -0.54293220760E-01  0.55434500725E-01  0.94063683209E-01  0.51100000000E-03 0.  1.
</event>
<event>
 8    1  0.1064839E+005  0.1043930E+01  0.7957747E-01            NaN
         13   -1    0    0    0    0  0.00000000000E+00  0.00000000000E+00  0.74505805969E-08  0.10566000000E+00  0.10566000000E+00 0.  1.
     999900   -1    0    0    0    0 -0.00000000000E+00 -0.00000000000E+00 -0.74505805969E-08  0.93827000000E+00  0.93827000000E+00 0. -1.
     999902    2    1    2    0    0 -0.19024434841E-01 -0.94487576694E-02 -0.10646183375E-01  0.10201697525E+01  0.10198930211E+01 0.  0.
     999903    2    3    3    0    0 -0.37154388588E-01  0.63450889525E-02 -0.12534051158E+00  0.13240124112E+00  0.19978389896E-01 0.  0.
         14    1    1    2    0    0  0.19024434841E-01  0.94487576694E-02  0.10646183375E-01  0.23760247535E-01  0.00000000000E+00 0.  1.
     999901    1    3    3    0    0  0.18129953748E-01 -0.15793846622E-01  0.11469432820E+00  0.88776851134E+00  0.88000000000E+00 0.  1.
        -11    1    4    4    0    0 -0.31028370387E-01  0.92378613653E-02 -0.11816063006E+00  0.12251650284E+00  0.51100000000E-03 0. -1.
         11    1    4    4    0    0 -0.61260182013E-02 -0.28927724128E-02 -0.71798815144E-02  0.98847382765E-02  0.51100000000E-03 0.  1.
</event>
<event>
 8    1  0.1064839E+005  0.1043930E+01  0.7957747E-01            NaN
         13   -1    0    0    0    0  0.00000000000E+00  0.00000000000E+00  0.74505805969E-08  0.10566000000E+00  0.10566000000E+00 0. -1.
     999900   -1    0    0    0    0 -0.00000000000E+00 -0.00000000000E+00 -0.74505805969E-08  0.93827000000E+00  0.93827000000E+00 0.  1.
     999902    2    1    2    0    0  0.38321010616E-02 -0.14700554759E-01  0.17730130847E-01  0.10205815772E+01  0.10203144647E+01 0.  0.
     999903    2    3    3    0    0 -0.10543986305E+00  0.29296779891E-01 -0.65017733885E-01  0.12888469105E+00  0.20201283023E-01 0.  0.
         14    1    1    2    0    0 -0.38321010616E-02  0.14700554759E-01 -0.17730130847E-01  0.23348422829E-01  0.00000000000E+00 0.  1.
     999901    1    3    3    0    0  0.10927196411E+00 -0.43997334649E-01  0.82747864732E-01  0.89169688612E+00  0.88000000000E+00 0. -1.
        -11    1    4    4    0    0 -0.91540601571E-01  0.17844212619E-01 -0.54265449556E-01  0.10790318715E+00  0.51100000000E-03 0.  1.
         11    1    4    4    0    0 -0.13899261479E-01  0.11452567272E-01 -0.10752284329E-01  0.20981503904E-01  0.51100000000E-03 0. -1.
</event>
<event>
 8    1  0.1064839E+005  0.1043930E+01  0.7957747E-01            NaN
         13   -1    0    0    0    0  0.00000000000E+00  0.00000000000E+00  0.74505805969E-08  0.10566000000E+00  0.10566000000E+00 0. -1.
     999900   -1    0    0    0    0 -0.00000000000E+00 -0.00000000000E+00 -0.74505805969E-08  0.93827000000E+00  0.93827000000E+00 0. -1.
     999902    2    1    2    0    0  0.21732380143E-01 -0.80558357257E-02  0.12291414534E-02  0.10207200102E+01  0.10204560920E+01 0.  0.
     999903    2    3    3    0    0 -0.43462569285E-01 -0.83559791795E-01  0.88503763917E-01  0.13079412089E+00  0.20073666774E-01 0.  0.
         14    1    1    2    0    0 -0.21732380143E-01  0.80558357257E-02 -0.12291414534E-02  0.23209989760E-01  0.00000000000E+00 0. -1.
     999901    1    3    3    0    0  0.65194949428E-01  0.75503956069E-01 -0.87274622464E-01  0.88992588935E+00  0.88000000000E+00 0. -1.
        -11    1    4    4    0    0 -0.20007075688E-01 -0.46314504803E-01  0.59813789865E-01  0.78251306774E-01  0.51100000000E-03 0. -1.
         11    1    4    4    0    0 -0.23455493596E-01 -0.37245286992E-01  0.28689974052E-01  0.52542814114E-01  0.51100000000E-03 0.  1.
</event>
<event>
 8    1  0.1064839E+005  0.1043930E+01  0.7957747E-01            NaN
         13   -1    0    0    0    0  0.00000000000E+00  0.00000000000E+00  0.74505805969E-08  0.10566000000E+00  0.10566000000E+00 0.  1.
     999900   -1    0    0    0    0 -0.00000000000E+00 -0.00000000000E+00 -0.74505805969E-08  0.93827000000E+00  0.93827000000E+00 0. -1.
     999902    2    1    2    0    0 -0.23122840636E-01  0.33278293523E-03 -0.61166646092E-02  0.10200095048E+01  0.10197289835E+01 0.  0.
     999903    2    3    3    0    0  0.85432989816E-01 -0.91739486100E-01  0.18679795887E-01  0.12822671989E+00  0.19448081147E-01 0.  0.
         14    1    1    2    0    0  0.23122840636E-01 -0.33278293523E-03  0.61166646092E-02  0.23920495177E-01  0.00000000000E+00 0.  1.
     999901    1    3    3    0    0 -0.10855583045E+00  0.92072269036E-01 -0.24796460496E-01  0.89178278493E+00  0.88000000000E+00 0. -1.
        -11    1    4    4    0    0  0.10437746627E-01 -0.21210280178E-01  0.67325710023E-02  0.24584775231E-01  0.51100000000E-03 0. -1.
         11    1    4    4    0    0  0.74995243189E-01 -0.70529205923E-01  0.11947224884E-01  0.10364194466E+00  0.51100000000E-03 0.  1.
</event>
<event>
 8    1  0.1064839E+005  0.1043930E+01  0.7957747E-01            NaN
         13   -1    0    0    0    0  0.00000000000E+00  0.00000000000E+00  0.74505805969E-08  0.10566000000E+00  0.10566000000E+00 0.  1.
     999900   -1    0    0    0    0 -0.00000000000E+00 -0.00000000000E+00 -0.74505805969E-08  0.93827000000E+00  0.93827000000E+00 0. -1.
     999902    2    1    2    0    0  0.92983708399E-02  0.19162183182E-01 -0.11620135304E-01  0.10196673433E+01  0.10193786414E+01 0.  0.
     999903    2    3    3    0    0  0.29057706458E-01  0.40299442367E-02 -0.12693462016E+00  0.13179525433E+00  0.19924871713E-01 0.  0.
         14    1    1    2    0    0 -0.92983708399E-02 -0.19162183182E-01  0.11620135304E-01  0.24262656678E-01  0.00000000000E+00 0. -1.
     999901    1    3    3    0    0 -0.19759335618E-01  0.15132238946E-01  0.11531448486E+00  0.88787208900E+00  0.88000000000E+00 0.  1.
        -11    1    4    4    0    0  0.26583221430E-01  0.47708811688E-02 -0.73681697422E-01  0.78477274575E-01  0.51100000000E-03 0.  1.
         11    1    4    4    0    0  0.24744850279E-02 -0.74093693214E-03 -0.53252922737E-01  0.53317979751E-01  0.51100000000E-03 0. -1.
</event>
<event>
 8    1  0.1064839E+005  0.1043930E+01  0.7957747E-01            NaN
         13   -1    0    0    0    0  0.00000000000E+00  0.00000000000E+00  0.74505805969E-08  0.10566000000E+00  0.10566000000E+00 0.  1.
     999900   -1    0    0    0    0 -0.00000000000E+00 -0.00000000000E+00 -0.74505805969E-08  0.93827000000E+00  0.93827000000E+00 0. -1.
     999902    2    1    2    0    0  0.80084315574E-02  0.22577049347E-01  0.42516940087E-02  0.10196002849E+01  0.10193099656E+01 0.  0.
     999903    2    3    3    0    0 -0.30259039929E-01  0.40910264655E-02  0.12517838740E+00  0.13031439300E+00  0.19490160476E-01 0.  0.
         14    1    1    2    0    0 -0.80084315574E-02 -0.22577049347E-01 -0.42516940087E-02  0.24329715065E-01  0.00000000000E+00 0.  1.
     999901    1    3    3    0    0  0.38267471487E-01  0.18486022881E-01 -0.12092669339E+00  0.88928589193E+00  0.88000000000E+00 0. -1.
        -11    1    4    4    0    0 -0.29547920017E-01  0.13167393593E-02  0.84429853250E-01  0.89462140711E-01  0.51100000000E-03 0. -1.
         11    1    4    4    0    0 -0.71111991190E-03  0.27742871063E-02  0.40748534154E-01  0.40852252290E-01  0.51100000000E-03 0.  1.
</event>
<event>
 8    1  0.1064839E+005  0.1043930E+01  0.7957747E-01            NaN
         13   -1    0    0    0    0  0.00000000000E+00  0.00000000000E+00  0.74505805969E-08  0.10566000000E+00  0.10566000000E+00 0. -1.
     999900   -1    0    0    0    0 -0.00000000000E+00 -0.00000000000E+00 -0.74505805969E-08  0.93827000000E+00  0.93827000000E+00 0. -1.
     999902    2    1    2    0    0 -0.20947273153E-01  0.14661078520E-01  0.24863881210E-02  0.10182411386E+01  0.10179170392E+01 0.  0.
     999903    2    3    3    0    0 -0.10314834441E+00 -0.29145615292E-01 -0.71384348265E-01  0.13024737269E+00  0.19483456336E-01 0.  0.
         14    1    1    2    0    0  0.20947273153E-01 -0.14661078520E-01 -0.24863881210E-02  0.25688861435E-01  0.00000000000E+00 0. -1.
     999901    1    3    3    0    0  0.82201071255E-01  0.43806693813E-01  0.73870736386E-01  0.88799376587E+00  0.88000000000E+00 0.  1.
        -11    1    4    4    0    0 -0.61645101299E-01 -0.26905686635E-01 -0.41211639398E-01  0.78884059418E-01  0.51100000000E-03 0.  1.
         11    1    4    4    0    0 -0.41503243108E-01 -0.22399286574E-02 -0.30172708868E-01  0.51363313272E-01  0.51100000000E-03 0. -1.
</event>
<event>
 8    1  0.1064839E+005  0.1043930E+01  0.7957747E-01            NaN
         13   -1    0    0    0    0  0.00000000000E+00  0.00000000000E+00  0.74505805969E-08  0.10566000000E+00  0.10566000000E+00 0.  1.
     999900   -1    0    0    0    0 -0.00000000000E+00 -0.00000000000E+00 -0.74505805969E-08  0.93827000000E+00  0.93827000000E+00 0. -1.
     999902    2    1    2    0    0 -0.22554388416E-01  0.52730382467E-02  0.56282646646E-02  0.10200934161E+01  0.10198148826E+01 0.  0.
     999903    2    3    3    0    0 -0.55981175058E-01  0.11673895136E+00  0.18372950649E-01  0.13234095799E+00  0.20363917110E-01 0.  0.
         14    1    1    2    0    0  0.22554388416E-01 -0.52730382467E-02 -0.56282646646E-02  0.23836583906E-01  0.00000000000E+00 0.  1.
     999901    1    3    3    0    0  0.33426786643E-01 -0.11146591311E+00 -0.12744685984E-01  0.88775245811E+00  0.88000000000E+00 0.  1.
        -11    1    4    4    0    0 -0.35052987895E-01  0.59007219662E-01  0.14869504415E-02  0.68651555519E-01  0.51100000000E-03 0.  1.
         11    1    4    4    0    0 -0.20928187163E-01  0.57731731699E-01  0.16886000207E-01  0.63689402470E-01  0.51100000000E-03 0. -1.
</event>
<event>
 8    1  0.1064839E+005  0.1043930E+01  0.7957747E-01            NaN
         13   -1    0    0    0    0  0.00000000000E+00  0.00000000000E+00  0.74505805969E-08  0.10566000000E+00  0.10566000000E+00 0.  1.
     999900   -1    0    0    0    0 -0.00000000000E+00 -0.00000000000E+00 -0.74505805969E-08  0.93827000000E+00  0.93827000000E+00 0.  1.
     999902    2    1    2    0    0  0.75535300838E-02  0.20804163195E-01 -0.60777359304E-02  0.10209777039E+01  0.10207196794E+01 0.  0.
     999903    2    3    3    0    0  0.16452909919E-01 -0.11759983406E+00  0.45596508765E-01  0.12861841919E+00  0.19058775557E-01 0.  0.
         14    1    1    2    0    0 -0.75535300838E-02 -0.20804163195E-01  0.60777359304E-02  0.22952296116E-01  0.00000000000E+00 0. -1.
     999901    1    3    3    0    0 -0.88993798348E-02  0.13840399726E+00 -0.51674244696E-01  0.89235928470E+00  0.88000000000E+00 0. -1.
        -11    1    4    4    0    0  0.11259840316E-02 -0.34269107825E-01  0.21708981586E-01  0.40585472693E-01  0.51100000000E-03 0.  1.
         11    1    4    4    0    0  0.15326925887E-01 -0.83330726240E-01  0.23887527179E-01  0.88032946495E-01  0.51100000000E-03 0. -1.
</event>
<event>
 8    1  0.1064839E+005  0.1043930E+01  0.7957747E-01            NaN
         13   -1    0    0    0    0  0.00000000000E+00  0.00000000000E+00  0.74505805969E-08  0.10566000000E+00  0.10566000000E+00 0.  1.
     999900   -1    0    0    0    0 -0.00000000000E+00 -0.00000000000E+00 -0.74505805969E-08  0.93827000000E+00  0.93827000000E+00 0. -1.
     999902    2    1    2    0    0 -0.85377104737E-02 -0.16766744410E-01 -0.15475522943E-01  0.10195679798E+01  0.10192768797E+01 0.  0.
     999903    2    3    3    0    0 -0.10917936104E+00  0.34374538787E-01  0.57392938287E-01  0.12936913385E+00  0.18457563055E-01 0.  0.
         14    1    1    2    0    0  0.85377104737E-02  0.16766744410E-01  0.15475522943E-01  0.24362020208E-01  0.00000000000E+00 0.  1.
     999901    1    3    3    0    0  0.10064165057E+00 -0.51141283197E-01 -0.72868461230E-01  0.89019884594E+00  0.88000000000E+00 0. -1.
        -11    1    4    4    0    0 -0.10124199242E+00  0.36609644331E-01  0.52666778977E-01  0.11985098171E+00  0.51100000000E-03 0.  1.
         11    1    4    4    0    0 -0.79373686207E-02 -0.22351055438E-02  0.47261593101E-02  0.95181521441E-02  0.51100000000E-03 0. -1.
</event>
<event>
 8    1  0.1064839E+005  0.1043930E+01  0.7957747E-01            NaN
         13   -1    0    0    0    0  0.00000000000E+00  0.00000000000E+00  0.74505805969E-08  0.10566000000E+00  0.10566000000E+00 0. -1.
     999900   -1    0    0    0    0 -0.00000000000E+00 -0.00000000000E+00 -0.74505805969E-08  0.93827000000E+00  0.93827000000E+00 0.  1.
     999902    2    1    2    0    0  0.15637357631E-01  0.48319691772E-02 -0.16039150115E-01  0.10210143020E+01  0.10207571090E+01 0.  0.
     999903    2    3    3    0    0  0.90131322132E-01 -0.83831651020E-01 -0.45732947007E-01  0.13293079809E+00  0.20680756665E-01 0.  0.
         14    1    1    2    0    0 -0.15637357631E-01 -0.48319691772E-02  0.16039150115E-01  0.22915698030E-01  0.00000000000E+00 0.  1.
     999901    1    3    3    0    0 -0.74493964501E-01  0.88663620197E-01  0.29693796892E-01  0.88808350388E+00  0.88000000000E+00 0. -1.
        -11    1    4    4    0    0  0.74622633004E-01 -0.73775182459E-01 -0.31393571334E-01  0.10953142173E+00  0.51100000000E-03 0.  1.
         11    1    4    4    0    0  0.15508689128E-01 -0.10056468561E-01 -0.14339375674E-01  0.23399376361E-01  0.51100000000E-03 0. -1.
</event>
<event>
 8    1  0.1064839E+005  0.1043930E+01  0.7957747E-01            NaN
         13   -1    0    0    0    0  0.00000000000E+00  0.00000000000E+00  0.74505805969E-08  0.10566000000E+00  0.10566000000E+00 0.  1.
     999900   -1    0    0    0    0 -0.00000000000E+00 -0.00000000000E+00 -0.74505805969E-08  0.93827000000E+00  0.93827000000E+00 0.  1.
     999902    2    1    2    0    0 -0.21656838556E-01 -0.68628671987E-02 -0.40135824101E-03  0.10212082331E+01  0.10209554234E+01 0.  0.
     999903    2    3    3    0    0 -0.87325467782E-01  0.89945387135E-01 -0.37596055212E-01  0.13268831073E+00  0.21836081307E-01 0.  0.
         14    1    1    2    0    0  0.21656838556E-01  0.68628671987E-02  0.40135824101E-03  0.22721766896E-01  0.00000000000E+00 0. -1.
     999901    1    3    3    0    0  0.65668629226E-01 -0.96808254333E-01  0.37194696971E-01  0.88851992237E+00  0.88000000000E+00 0.  1.
        -11    1    4    4    0    0 -0.39326588371E-01  0.31139478423E-01 -0.62169932568E-02  0.50548588462E-01  0.51100000000E-03 0. -1.
         11    1    4    4    0    0 -0.47998879411E-01  0.58805908712E-01 -0.31379061955E-01  0.82139722268E-01  0.51100000000E-03 0.  1.
</event>
<event>
 8    1  0.1064839E+005  0.1043930E+01  0.7957747E-01            NaN
         13   -1    0    0    0    0  0.00000000000E+00  0.00000000000E+00  0.74505805969E-08  0.10566000000E+00  0.10566000000E+00 0. -1.
     999900   -1    0    0    0    0 -0.00000000000E+00 -0.00000000000E+00 -0.74505805969E-08  0.93827000000E+00  0.93827000000E+00 0.  1.
     999902    2    1    2    0    0 -0.19097898021E-01  0.32157904877E-02  0.15464284400E-01  0.10191466364E+01  0.10188452539E+01 0.  0.
     999903    2    3    3    0    0 -0.58362654813E-01 -0.98430539283E-01  0.60537052767E-01  0.13128107684E+00  0.21799445808E-01 0.  0.
         14    1    1    2    0    0  0.19097898021E-01 -0.32157904877E-02 -0.15464284400E-01  0.24783363559E-01  0.00000000000E+00 0. -1.
     999901    1    3    3    0    0  0.39264756792E-01  0.10164632977E+00 -0.45072768367E-01  0.88786555960E+00  0.88000000000E+00 0.  1.
        -11    1    4    4    0    0 -0.56573960428E-01 -0.80101246465E-01  0.51026420063E-01  0.11054763385E+00  0.51100000000E-03 0. -1.
         11    1    4    4    0    0 -0.17886943856E-02 -0.18329292818E-01  0.95106327043E-02  0.20733442991E-01  0.51100000000E-03 0.  1.
</event>
<event>
 8    1  0.1064839E+005  0.1043930E+01  0.7957747E-01            NaN
         13   -1    0    0    0    0  0.00000000000E+00  0.00000000000E+00  0.74505805969E-08  0.10566000000E+00  0.10566000000E+00 0. -1.
     999900   -1    0    0    0    0 -0.00000000000E+00 -0.00000000000E+00 -0.74505805969E-08  0.93827000000E+00  0.93827000000E+00 0. -1.
     999902    2    1    2    0    0  0.20114760642E-01 -0.10193945848E-01 -0.59790960961E-02  0.10206004111E+01  0.10203337343E+01 0.  0.
     999903    2    3    3    0    0  0.11950095887E+00 -0.18245868610E-01 -0.52571298735E-01  0.13374456983E+00  0.22593751714E-01 0.  0.
         14    1    1    2    0    0 -0.20114760642E-01  0.10193945848E-01  0.59790960961E-02  0.23329588890E-01  0.00000000000E+00 0. -1.
     999901    1    3    3    0    0 -0.99386198231E-01  0.80519227621E-02  0.46592202639E-01  0.88685584128E+00  0.88000000000E+00 0.  1.
        -11    1    4    4    0    0  0.45097368753E-01 -0.16750912877E-01 -0.15110611521E-01  0.50427744865E-01  0.51100000000E-03 0.  1.
         11    1    4    4    0    0  0.74403590120E-01 -0.14949557339E-02 -0.37460687213E-01  0.83316824969E-01  0.51100000000E-03 0. -1.
</event>
<event>
 8    1  0.1064839E+005  0.1043930E+01  0.7957747E-01            NaN
         13   -1    0    0    0    0  0.00000000000E+00  0.00000000000E+00  0.74505805969E-08  0.10566000000E+00  0.10566000000E+00 0.  1.
     999900   -1    0    0    0    0 -0.00000000000E+00 -0.00000000000E+00 -0.74505805969E-08  0.93827000000E+00  0.93827000000E+00 0. -1.
     999902    2    1    2    0    0  0.21879988613E-01  0.65246955432E-02 -0.44643014695E-02  0.10206655305E+01  0.10204003575E+01 0.  0.
     999903    2    3    3    0    0  0.10597920329E+00  0.23461648850E-01 -0.75274289039E-01  0.13366294164E+00  0.20433376658E-01 0.  0.
         14    1    1    2    0    0 -0.21879988613E-01 -0.65246955432E-02  0.44643014695E-02  0.23264469502E-01  0.00000000000E+00 0. -1.
     999901    1    3    3    0    0 -0.84099214676E-01 -0.16936953307E-01  0.70809987570E-01  0.88700258886E+00  0.88000000000E+00 0.  1.
        -11    1    4    4    0    0  0.41095290264E-01 -0.52391204112E-03 -0.31697148792E-01  0.51904409526E-01  0.51100000000E-03 0. -1.
         11    1    4    4    0    0  0.64883913025E-01  0.23985560891E-01 -0.43577140247E-01  0.81758532116E-01  0.51100000000E-03 0.  1.
</event>
<event>
 8    1  0.1064839E+005  0.1043930E+01  0.7957747E-01            NaN
         13   -1    0    0    0    0  0.00000000000E+00  0.00000000000E+00  0.74505805969E-08  0.10566000000E+00  0.10566000000E+00 0. -1.
     999900   -1    0    0    0    0 -0.00000000000E+00 -0.00000000000E+00 -0.74505805969E-08  0.93827000000E+00  0.93827000000E+00 0.  1.
     999902    2    1    2    0    0  0.22685480208E-01  0.64364057504E-02 -0.38174269931E-02  0.10200421144E+01  0.10197623664E+01 0.  0.
     999903    2    3    3    0    0 -0.53455350750E-01  0.66390067877E-01  0.94964881299E-01  0.12922798551E+00  0.20406565650E-01 0.  0.
         14    1    1    2    0    0 -0.22685480208E-01 -0.64364057504E-02  0.38174269931E-02  0.23887885635E-01  0.00000000000E+00 0.  1.
     999901    1    3    3    0    0  0.76140830958E-01 -0.59953662127E-01 -0.98782308292E-01  0.89081412886E+00  0.88000000000E+00 0.  1.
        -11    1    4    4    0    0 -0.13087323339E-01  0.11987509463E-01  0.93953584010E-02  0.20087615483E-01  0.51100000000E-03 0.  1.
         11    1    4    4    0    0 -0.40368027410E-01  0.54402558414E-01  0.85569522898E-01  0.10914037002E+00  0.51100000000E-03 0. -1.
</event>
<event>
 8    1  0.1064839E+005  0.1043930E+01  0.7957747E-01            NaN
         13   -1    0    0    0    0  0.00000000000E+00  0.00000000000E+00  0.74505805969E-08  0.10566000000E+00  0.10566000000E+00 0. -1.
     999900   -1    0    0    0    0 -0.00000000000E+00 -0.00000000000E+00 -0.74505805969E-08  0.93827000000E+00  0.93827000000E+00 0. -1.
     999902    2    1    2    0    0 -0.86600554030E-02  0.39144278198E-02 -0.22219221417E-01  0.10197636369E+01  0.10194772494E+01 0.  0.
     999903    2    3    3    0    0  0.10860966222E-01 -0.40866680919E-01 -0.12433162831E+00  0.13251318657E+00  0.17701542884E-01 0.  0.
         14    1    1    2    0    0  0.86600554030E-02 -0.39144278198E-02  0.22219221417E-01  0.24166363093E-01  0.00000000000E+00 0. -1.
     999901    1    3    3    0    0 -0.19521021625E-01  0.44781108738E-01  0.10211240689E+00  0.88725045034E+00  0.88000000000E+00 0.  1.
        -11    1    4    4    0    0  0.99123220264E-02 -0.42598543819E-01 -0.11721318901E+00  0.12510828455E+00  0.51100000000E-03 0. -1.
         11    1    4    4    0    0  0.94864419564E-03  0.17318629008E-02 -0.71184392943E-02  0.74049020185E-02  0.51100000000E-03 0.  1.
</event>
<event>
 8    1  0.1064839E+005  0.1043930E+01  0.7957747E-01            NaN
         13   -1    0    0    0    0  0.00000000000E+00  0.00000000000E+00  0.74505805969E-08  0.10566000000E+00  0.10566000000E+00 0. -1.
     999900   -1    0    0    0    0 -0.00000000000E+00 -0.00000000000E+00 -0.74505805969E-08  0.93827000000E+00  0.93827000000E+00 0.  1.
     999902    2    1    2    0    0  0.46370335025E-02  0.13904168190E-02  0.23445317020E-01  0.10199901122E+01  0.10197091304E+01 0.  0.
     999903    2    3    3    0    0  0.12579463455E+00 -0.26467632079E-01  0.17551019191E-01  0.13123256486E+00  0.19726179957E-01 0.  0.
         14    1    1    2    0    0 -0.46370335025E-02 -0.13904168190E-02 -0.23445317020E-01  0.23939887819E-01  0.00000000000E+00 0.  1.
     999901    1    3    3    0    0 -0.12115760104E+00  0.27858048898E-01  0.58942978288E-02  0.88875754732E+00  0.88000000000E+00 0. -1.
        -11    1    4    4    0    0  0.84686646465E-01 -0.10937469478E-01  0.50422173384E-02  0.85540291119E-01  0.51100000000E-03 0. -1.
         11    1    4    4    0    0  0.41107988081E-01 -0.15530162601E-01  0.12508801853E-01  0.45692273737E-01  0.51100000000E-03 0.  1.
</event>
<event>
 8    1  0.1064839E+005  0.1043930E+01  0.7957747E-01            NaN
         13   -1    0    0    0    0  0.00000000000E+00  0.00000000000E+00  0.74505805969E-08  0.10566000000E+00  0.10566000000E+00 0.  1.
     999900   -1    0    0    0    0 -0.00000000000E+00 -0.00000000000E+00 -0.74505805969E-08  0.93827000000E+00  0.93827000000E+00 0.  1.
     999902    2    1    2    0    0  0.20507433540E-01  0.62717748473E-02 -0.97682855626E-02  0.10203649964E+01  0.10200928470E+01 0.  0.
     999903    2    3    3    0    0 -0.82879991419E-01  0.26552820158E-01 -0.94574311642E-01  0.13003228194E+00  0.19747118488E-01 0.  0.
         14    1    1    2    0    0 -0.20507433540E-01 -0.62717748473E-02  0.97682855626E-02  0.23565003564E-01  0.00000000000E+00 0. -1.
     999901    1    3    3    0    0  0.10338742496E+00 -0.20281045311E-01  0.84806026079E-01  0.89033271449E+00  0.88000000000E+00 0. -1.
        -11    1    4    4    0    0 -0.62115660977E-01  0.11848906913E-01 -0.60624191755E-01  0.87603114559E-01  0.51100000000E-03 0. -1.
         11    1    4    4    0    0 -0.20764330443E-01  0.14703913245E-01 -0.33950119887E-01  0.42429167383E-01  0.51100000000E-03 0.  1.
</event>
<event>
 8    1  0.1064839E+005  0.1043930E+01  0.7957747E-01            NaN
         13   -1    0    0    0    0  0.00000000000E+00  0.00000000000E+00  0.74505805969E-08  0.10566000000E+00  0.10566000000E+00 0.  1.
     999900   -1    0    0    0    0 -0.00000000000E+00 -0.00000000000E+00 -0.74505805969E-08  0.93827000000E+00  0.93827000000E+00 0. -1.
     999902    2    1    2    0    0 -0.33789287334E-03  0.18186406597E-01 -0.14495574881E-01  0.10206709964E+01  0.10204059495E+01 0.  0.
     999903    2    3    3    0    0 -0.30647276680E-01 -0.10916748917E+00 -0.59979782068E-01  0.12982505765E+00  0.20004376482E-01 0.  0.
         14    1    1    2    0    0  0.33789287334E-03 -0.18186406597E-01  0.14495574881E-01  0.23259003582E-01  0.00000000000E+00 0. -1.
     999901    1    3    3    0    0  0.30309383806E-01  0.12735389576E+00  0.45484207187E-01  0.89084593877E+00  0.88000000000E+00 0.  1.
        -11    1    4    4    0    0 -0.21030918186E-01 -0.48400904655E-01 -0.19928249779E-01  0.56412262421E-01  0.51100000000E-03 0.  1.
         11    1    4    4    0    0 -0.96163584938E-02 -0.60766584512E-01 -0.40051532289E-01  0.73412795231E-01  0.51100000000E-03 0. -1.
</event>
<event>
 8    1  0.1064839E+005  0.1043930E+01  0.7957747E-01            NaN
         13   -1    0    0    0    0  0.00000000000E+00  0.00000000000E+00  0.74505805969E-08  0.10566000000E+00  0.10566000000E+00 0.  1.
     999900   -1    0    0    0    0 -0.00000000000E+00 -0.00000000000E+00 -0.74505805969E-08  0.93827000000E+00  0.93827000000E+00 0.  1.
     999902    2    1    2    0    0 -0.18558948194E-01  0.40734460340E-02  0.11242616520E-01  0.10218523202E+01  0.10216137921E+01 0.  0.
     999903    2    3    3    0    0 -0.35144656243E-01  0.85871644655E-01  0.94419069878E-01  0.13399852961E+00  0.20773997285E-01 0.  0.
         14    1    1    2    0    0  0.18558948194E-01 -0.40734460340E-02 -0.11242616520E-01  0.22077679834E-01  0.00000000000E+00 0. -1.
     999901    1    3    3    0    0  0.16585708050E-01 -0.81798198621E-01 -0.83176453358E-01  0.88785379055E+00  0.88000000000E+00 0.  1.
        -11    1    4    4    0    0 -0.16165358748E-01  0.18018967480E-01  0.29780843839E-01  0.38381789865E-01  0.51100000000E-03 0.  1.
         11    1    4    4    0    0 -0.18979297496E-01  0.67852677174E-01  0.64638226038E-01  0.95616739746E-01  0.51100000000E-03 0. -1.
</event>
<event>
 8    1  0.1064839E+005  0.1043930E+01  0.7957747E-01            NaN
         13   -1    0    0    0    0  0.00000000000E+00  0.00000000000E+00  0.74505805969E-08  0.10566000000E+00  0.10566000000E+00 0. -1.
     999900   -1    0    0    0    0 -0.00000000000E+00 -0.00000000000E+00 -0.74505805969E-08  0.93827000000E+00  0.93827000000E+00 0. -1.
     999902    2    1    2    0    0 -0.50583755074E-02 -0.18411333512E-01 -0.13720018171E-01  0.10204182314E+01  0.10201473245E+01 0.  0.
     999903    2    3    3    0    0  0.45499004217E-01 -0.11775255508E+00  0.33899435068E-01  0.13210953546E+00  0.19181607018E-01 0.  0.
         14    1    1    2    0    0  0.50583755074E-02  0.18411333512E-01  0.13720018171E-01  0.23511768608E-01  0.00000000000E+00 0. -1.
     999901    1    3    3    0    0 -0.50557379724E-01  0.99341221570E-01 -0.47619453239E-01  0.88830869594E+00  0.88000000000E+00 0. -1.
        -11    1    4    4    0    0  0.10933612839E-01 -0.24427846364E-01  0.15404682416E-01  0.30884120986E-01  0.51100000000E-03 0.  1.
         11    1    4    4    0    0  0.34565391378E-01 -0.93324708717E-01  0.18494752652E-01  0.10122541447E+00  0.51100000000E-03 0. -1.
</event>
<event>
 8    1  0.1064839E+005  0.1043930E+01  0.7957747E-01            NaN
         13   -1    0    0    0    0  0.00000000000E+00  0.00000000000E+00  0.74505805969E-08  0.10566000000E+00  0.10566000000E+00 0. -1.
     999900   -1    0    0    0    0 -0.00000000000E+00 -0.00000000000E+00 -0.74505805969E-08  0.93827000000E+00  0.93827000000E+00 0.  1.
     999902    2    1    2    0    0  0.58814441475E-02 -0.20879059193E-01 -0.69231779645E-02  0.10211603515E+01  0.10209064632E+01 0.  0.
     999903    2    3    3    0    0 -0.10868670996E+00  0.20502917777E-01 -0.66836106554E-01  0.13075151905E+00  0.19892813646E-01 0.  0.
         14    1    1    2    0    0 -0.58814441475E-02  0.20879059193E-01  0.69231779645E-02  0.22769648464E-01  0.00000000000E+00 0. -1.
     999901    1    3    3    0    0  0.11456815411E+00 -0.41381976970E-01  0.59912928589E-01  0.89040883248E+00  0.88000000000E+00 0. -1.
        -11    1    4    4    0    0 -0.16780045296E-01  0.56307379471E-03 -0.18580798786E-01  0.25047837766E-01  0.51100000000E-03 0.  1.
         11    1    4    4    0    0 -0.91906664668E-01  0.19939843982E-01 -0.48255307768E-01  0.10570368129E+00  0.51100000000E-03 0. -1.
</event>
<event>
 8    1  0.1064839E+005  0.1043930E+01  0.7957747E-01            NaN
         13   -1    0    0    0    0  0.00000000000E+00  0.00000000000E+00  0.74505805969E-08  0.10566000000E+00  0.10566000000E+00 0.  1.
     999900   -1    0    0    0    0 -0.00000000000E+00 -0.00000000000E+00 -0.74505805969E-08  0.93827000000E+00  0.93827000000E+00 0.  1.
     999902    2    1    2    0    0  0.90409813202E-03 -0.15710567739E-02  0.23763680575E-01  0.10200972887E+01  0.10198188468E+01 0.  0.
     999903    2    3    3    0    0 -0.33222936583E-02 -0.10441533886E+00 -0.72628397438E-01  0.12886990951E+00  0.20468728270E-01 0.  0.
         14    1    1    2    0    0 -0.90409813202E-03  0.15710567739E-02 -0.23763680575E-01  0.23832711287E-01  0.00000000000E+00 0. -1.
     999901    1    3    3    0    0  0.42263917903E-02  0.10284428209E+00  0.96392078013E-01  0.89122737921E+00  0.88000000000E+00 0. -1.
        -11    1    4    4    0    0  0.64465276654E-03 -0.34679754029E-01 -0.13052253986E-01  0.37063774387E-01  0.51100000000E-03 0.  1.
         11    1    4    4    0    0 -0.39669464249E-02 -0.69735584831E-01 -0.59576143452E-01  0.91806135118E-01  0.51100000000E-03 0. -1.
</event>
<event>
 8    1  0.1064839E+005  0.1043930E+01  0.7957747E-01            NaN
         13   -1    0    0    0    0  0.00000000000E+00  0.00000000000E+00  0.74505805969E-08  0.10566000000E+00  0.10566000000E+00 0. -1.
     999900   -1    0    0    0    0 -0.00000000000E+00 -0.00000000000E+00 -0.74505805969E-08  0.93827000000E+00  0.93827000000E+00 0.  1.
     999902    2    1    2    0    0  0.36928484101E-02 -0.22777558991E-01  0.59427252673E-02  0.10201020688E+01  0.10198237399E+01 0.  0.
     999903    2    3    3    0    0  0.79165492691E-01  0.63719585613E-01  0.78955367871E-01  0.12964784646E+00  0.15724285404E-01 0.  0.
         14    1    1    2    0    0 -0.36928484101E-02  0.22777558991E-01 -0.59427252673E-02  0.23827931228E-01  0.00000000000E+00 0. -1.
     999901    1    3    3    0    0 -0.75472644281E-01 -0.86497144604E-01 -0.73012642604E-01  0.89045422232E+00  0.88000000000E+00 0. -1.
        -11    1    4    4    0    0  0.75192372897E-01  0.54792067931E-01  0.70946924730E-01  0.11700337986E+00  0.51100000000E-03 0.  1.
         11    1    4    4    0    0  0.39731197945E-02  0.89275176825E-02  0.80084431407E-02  0.12644466593E-01  0.51100000000E-03 0. -1.
</event>
<event>
 8    1  0.1064839E+005  0.1043930E+01  0.7957747E-01            NaN
         13   -1    0    0    0    0  0.00000000000E+00  0.00000000000E+00  0.74505805969E-08  0.10566000000E+00  0.10566000000E+00 0. -1.
     999900   -1    0    0    0    0 -0.00000000000E+00 -0.00000000000E+00 -0.74505805969E-08  0.93827000000E+00  0.93827000000E+00 0. -1.
     999902    2    1    2    0    0  0.19940856621E-01 -0.51599753274E-02  0.10584698679E-01  0.10207718707E+01  0.10205091440E+01 0.  0.
     999903    2    3    3    0    0  0.74742031700E-01 -0.52361317802E-01  0.96012379949E-01  0.13368166993E+00  0.18009243904E-01 0.  0.
         14    1    1    2    0    0 -0.19940856621E-01  0.51599753274E-02 -0.10584698679E-01  0.23158129335E-01  0.00000000000E+00 0.  1.
     999901    1    3    3    0    0 -0.54801175079E-01  0.47201342474E-01 -0.85427681270E-01  0.88709020074E+00  0.88000000000E+00 0. -1.
        -11    1    4    4    0    0  0.22640877042E-01 -0.25757072861E-01  0.31123662555E-01  0.46313924553E-01  0.51100000000E-03 0. -1.
         11    1    4    4    0    0  0.52101154658E-01 -0.26604244941E-01  0.64888717394E-01  0.87367745373E-01  0.51100000000E-03 0.  1.
</event>
<event>
 8    1  0.1064839E+005  0.1043930E+01  0.7957747E-01            NaN
         13   -1    0    0    0    0  0.00000000000E+00  0.00000000000E+00  0.74505805969E-08  0.10566000000E+00  0.10566000000E+00 0. -1.
     999900   -1    0    0    0    0 -0.00000000000E+00 -0.00000000000E+00 -0.74505805969E-08  0.93827000000E+00  0.93827000000E+00 0. -1.
     999902    2    1    2    0    0  0.15476978632E-01 -0.21917635609E-02  0.16949127458E-01  0.10208732523E+01  0.10206128470E+01 0.  0.
     999903    2    3    3    0    0 -0.12696084494E+00 -0.12461881916E-01 -0.76452972893E-03  0.12918508783E+00  0.20343248613E-01 0.  0.
         14    1    1    2    0    0 -0.15476978632E-01  0.21917635609E-02 -0.16949127458E-01  0.23056747747E-01  0.00000000000E+00 0.  1.
     999901    1    3    3    0    0  0.14243782357E+00  0.10270118356E-01  0.17713657187E-01  0.89168816442E+00  0.88000000000E+00 0. -1.
        -11    1    4    4    0    0 -0.10251999618E+00 -0.10549906740E-01  0.74328128089E-02  0.10333033425E+00  0.51100000000E-03 0.  1.
         11    1    4    4    0    0 -0.24440848756E-01 -0.19119751768E-02 -0.81973425378E-02  0.25854753580E-01  0.51100000000E-03 0. -1.
</event>
<event>
 8    1  0.1064839E+005  0.1043930E+01  0.7957747E-01            NaN
         13   -1    0    0    0    0  0.00000000000E+00  0.00000000000E+00  0.74505805969E-08  0.10566000000E+00  0.10566000000E+00 0. -1.
     999900   -1    0    0    0    0 -0.00000000000E+00 -0.00000000000E+00 -0.74505805969E-08  0.93827000000E+00  0.93827000000E+00 0.  1.
     999902    2    1    2    0    0  0.12451186821E-01  0.18496531654E-01  0.88757488285E-02  0.10199314031E+01  0.10196490251E+01 0.  0.
     999903    2    3    3    0    0  0.99456634916E-01 -0.16571831883E-01 -0.80377603128E-01  0.13045633376E+00  0.19800204368E-01 0.  0.
         14    1    1    2    0    0 -0.12451186821E-01 -0.18496531654E-01 -0.88757488285E-02  0.23998596912E-01  0.00000000000E+00 0.  1.
     999901    1    3    3    0    0 -0.87005448095E-01  0.35068363537E-01  0.89253351956E-01  0.88947506933E+00  0.88000000000E+00 0. -1.
        -11    1    4    4    0    0  0.47478132898E-01 -0.16483772788E-01 -0.46019791341E-01  0.68146681393E-01  0.51100000000E-03 0.  1.
         11    1    4    4    0    0  0.51978502018E-01 -0.88059095087E-04 -0.34357811787E-01  0.62309652368E-01  0.51100000000E-03 0. -1.
</event>
<event>
 8    1  0.1064839E+005  0.1043930E+01  0.7957747E-01            NaN
         13   -1    0    0    0    0  0.00000000000E+00  0.00000000000E+00  0.74505805969E-08  0.10566000000E+00  0.10566000000E+00 0.  1.
     999900   -1    0    0    0    0 -0.00000000000E+00 -0.00000000000E+00 -0.74505805969E-08  0.93827000000E+00  0.93827000000E+00 0. -1.
     999902    2    1    2    0    0 -0.21918930951E-02  0.19955243154E-01  0.50842209562E-02  0.10232209337E+01  0.10230113458E+01 0.  0.
     999903    2    3    3    0    0  0.52346527853E-01 -0.22750844489E-01  0.11857617494E+00  0.13323291529E+00  0.20807223526E-01 0.  0.
         14    1    1    2    0    0  0.21918930951E-02 -0.19955243154E-01 -0.50842209562E-02  0.20709066309E-01  0.00000000000E+00 0. -1.
     999901    1    3    3    0    0 -0.54538420948E-01  0.42706087642E-01 -0.11349195398E+00  0.88998801840E+00  0.88000000000E+00 0. -1.
        -11    1    4    4    0    0  0.39232346353E-01 -0.63687619484E-02  0.78801847052E-01  0.88259449063E-01  0.51100000000E-03 0. -1.
         11    1    4    4    0    0  0.13114181499E-01 -0.16382082540E-01  0.39774327884E-01  0.44973466226E-01  0.51100000000E-03 0.  1.
</event>
<event>
 8    1  0.1064839E+005  0.1043930E+01  0.7957747E-01            NaN
         13   -1    0    0    0    0  0.00000000000E+00  0.00000000000E+00  0.74505805969E-08  0.10566000000E+00  0.10566000000E+00 0.  1.
     999900   -1    0    0    0    0 -0.00000000000E+00 -0.00000000000E+00 -0.74505805969E-08  0.93827000000E+00  0.93827000000E+00 0. -1.
     999902    2    1    2    0    0 -0.11467835452E-01  0.16101206252E-02  0.20344936315E-01  0.10205201693E+01  0.10202516336E+01 0.  0.
     999903    2    3    3    0    0 -0.12579781464E+00 -0.14139051234E-01 -0.29450609810E-01  0.13158880135E+00  0.20573557897E-01 0.  0.
         14    1    1    2    0    0  0.11467835452E-01 -0.16101206252E-02 -0.20344936315E-01  0.23409830671E-01  0.00000000000E+00 0. -1.
     999901    1    3    3    0    0  0.11432997919E+00  0.15749171859E-01  0.49795546125E-01  0.88893136798E+00  0.88000000000E+00 0.  1.
        -11    1    4    4    0    0 -0.63404221773E-01  0.27717126786E-02 -0.17633438357E-01  0.65870911631E-01  0.51100000000E-03 0.  1.
         11    1    4    4    0    0 -0.62393592871E-01 -0.16910763913E-01 -0.11817171454E-01  0.65717889723E-01  0.51100000000E-03 0. -1.
</event>
<event>
 8    1  0.1064839E+005  0.1043930E+01  0.7957747E-01            NaN
         13   -1    0    0    0    0  0.00000000000E+00  0.00000000000E+00  0.74505805969E-08  0.10566000000E+00  0.10566000000E+00 0. -1.
     999900   -1    0    0    0    0 -0.00000000000E+00 -0.00000000000E+00 -0.74505805969E-08  0.93827000000E+00  0.93827000000E+00 0.  1.
     999902    2    1    2    0    0  0.19136897324E-01 -0.13204529955E-01 -0.78288332715E-02  0.10193969390E+01  0.10191016869E+01 0.  0.
     999903    2    3    3    0    0  0.29334681795E-01  0.65473878956E-01  0.10641941749E+00  0.12847216687E+00  0.57142679654E-02 0.  0.
         14    1    1    2    0    0 -0.19136897324E-01  0.13204529955E-01  0.78288332715E-02  0.24533060977E-01  0.00000000000E+00 0.  1.
     999901    1    3    3    0    0 -0.10197784471E-01 -0.78678408911E-01 -0.11424825076E+00  0.89092477216E+00  0.88000000000E+00 0. -1.
        -11    1    4    4    0    0  0.87642609300E-02  0.15356215623E-01  0.29281498841E-01  0.34209544331E-01  0.51100000000E-03 0. -1.
         11    1    4    4    0    0  0.20570420865E-01  0.50117663333E-01  0.77137918652E-01  0.94262622537E-01  0.51100000000E-03 0.  1.
</event>
<event>
 8    1  0.1064839E+005  0.1043930E+01  0.7957747E-01            NaN
         13   -1    0    0    0    0  0.00000000000E+00  0.00000000000E+00  0.74505805969E-08  0.10566000000E+00  0.10566000000E+00 0. -1.
     999900   -1    0    0    0    0 -0.00000000000E+00 -0.00000000000E+00 -0.74505805969E-08  0.93827000000E+00  0.93827000000E+00 0. -1.
     999902    2    1    2    0    0 -0.14785826914E-01  0.22879521778E-01 -0.22469879571E-01  0.10086172731E+01  0.10079989161E+01 0.  0.
     999903    2    3    3    0    0  0.18034769301E-01 -0.70045828618E-01 -0.94043727730E-01  0.12022820965E+00  0.19466090019E-01 0.  0.
         14    1    1    2    0    0  0.14785826914E-01 -0.22879521778E-01  0.22469879571E-01  0.35312726916E-01  0.00000000000E+00 0. -1.
     999901    1    3    3    0    0 -0.32820596215E-01  0.92925350396E-01  0.71573848158E-01  0.88838906343E+00  0.88000000000E+00 0.  1.
        -11    1    4    4    0    0  0.11198737297E-01 -0.23557892114E-01 -0.21558399879E-01  0.33843931868E-01  0.51100000000E-03 0. -1.
         11    1    4    4    0    0  0.68360320037E-02 -0.46487936504E-01 -0.72485327851E-01  0.86384277786E-01  0.51100000000E-03 0.  1.
</event>
<event>
 8    1  0.1064839E+005  0.1043930E+01  0.7957747E-01            NaN
         13   -1    0    0    0    0  0.00000000000E+00  0.00000000000E+00  0.74505805969E-08  0.10566000000E+00  0.10566000000E+00 0. -1.
     999900   -1    0    0    0    0 -0.00000000000E+00 -0.00000000000E+00 -0.74505805969E-08  0.93827000000E+00  0.93827000000E+00 0.  1.
     999902    2    1    2    0    0  0.61138918459E-02  0.11206094236E-01  0.22409580690E-01  0.10181395846E+01  0.10178128846E+01 0.  0.
     999903    2    3    3    0    0 -0.66147717967E-01  0.99664522664E-01 -0.41970443853E-01  0.12842534877E+00  0.20567313395E-01 0.  0.
         14    1    1    2    0    0 -0.61138918459E-02 -0.11206094236E-01 -0.22409580690E-01  0.25790415434E-01  0.00000000000E+00 0.  1.
     999901    1    3    3    0    0  0.72261609813E-01 -0.88458428428E-01  0.64380024543E-01  0.88971423579E+00  0.88000000000E+00 0. -1.
        -11    1    4    4    0    0 -0.46207187892E-01  0.58889415533E-01 -0.34495667013E-01  0.82421354262E-01  0.51100000000E-03 0.  1.
         11    1    4    4    0    0 -0.19940530075E-01  0.40775107131E-01 -0.74747768399E-02  0.46003994511E-01  0.51100000000E-03 0. -1.
</event>
<event>
 8    1  0.1136223E+005  0.1043930E+01  0.7957747E-01            NaN
         13   -1    0    0    0    0  0.00000000000E+00  0.00000000000E+00  0.74505805969E-08  0.10566000000E+00  0.10566000000E+00 0.  1.
     999900   -1    0    0    0    0 -0.00000000000E+00 -0.00000000000E+00 -0.74505805969E-08  0.93827000000E+00  0.93827000000E+00 0. -1.
     999902    2    1    2    0    0  0.25035851275E-02 -0.12000166576E-02  0.23047325686E-01  0.10207160559E+01  0.10204520467E+01 0.  0.
     999903    2    3    3    0    0  0.94656581323E-01  0.57125598501E-01  0.70653941377E-01  0.13270679811E+00  0.19897548638E-01 0.  0.
         14    1    1    2    0    0 -0.25035851275E-02  0.12000166576E-02 -0.23047325686E-01  0.23213944080E-01  0.00000000000E+00 0. -1.
     999901    1    3    3    0    0 -0.92152996195E-01 -0.58325615159E-01 -0.47606615691E-01  0.88800925781E+00  0.88000000000E+00 0. -1.
        -11    1    4    4    0    0  0.32603156554E-01  0.21863673105E-01  0.36406057304E-01  0.53541088412E-01  0.51100000000E-03 0. -1.
         11    1    4    4    0    0  0.62053424769E-01  0.35261925396E-01  0.34247884073E-01  0.79165709702E-01  0.51100000000E-03 0.  1.
</event>
<event>
 8    1  0.1064839E+005  0.1043930E+01  0.7957747E-01            NaN
         13   -1    0    0    0    0  0.00000000000E+00  0.00000000000E+00  0.74505805969E-08  0.10566000000E+00  0.10566000000E+00 0. -1.
     999900   -1    0    0    0    0 -0.00000000000E+00 -0.00000000000E+00 -0.74505805969E-08  0.93827000000E+00  0.93827000000E+00 0. -1.
     999902    2    1    2    0    0 -0.15949441959E-01  0.15694761363E-01  0.14297218679E-01  0.10173758912E+01  0.10170292932E+01 0.  0.
     999903    2    3    3    0    0  0.12035950922E+00  0.31289750319E-02  0.28630910697E-01  0.12667757869E+00  0.27042151378E-01 0.  0.
         14    1    1    2    0    0  0.15949441959E-01 -0.15694761363E-01 -0.14297218679E-01  0.26554108816E-01  0.00000000000E+00 0.  1.
     999901    1    3    3    0    0 -0.13630895118E+00  0.12565786332E-01 -0.14333692018E-01  0.89069831250E+00  0.88000000000E+00 0. -1.
        -11    1    4    4    0    0  0.81607424840E-01 -0.24206889594E-02  0.69895412487E-02  0.81943555768E-01  0.51100000000E-03 0.  1.
         11    1    4    4    0    0  0.38752084377E-01  0.55496639914E-02  0.21641369449E-01  0.44734022920E-01  0.51100000000E-03 0. -1.
</event>
<event>
 8    1  0.1064839E+005  0.1043930E+01  0.7957747E-01            NaN
         13   -1    0    0    0    0  0.00000000000E+00  0.00000000000E+00  0.74505805969E-08  0.10566000000E+00  0.10566000000E+00 0. -1.
     999900   -1    0    0    0    0 -0.00000000000E+00 -0.00000000000E+00 -0.74505805969E-08  0.93827000000E+00  0.93827000000E+00 0. -1.
     999902    2    1    2    0    0 -0.18138274082E-01 -0.12040721858E-01 -0.85970889545E-02  0.10205230372E+01  0.10202545680E+01 0.  0.
     999903    2    3    3    0    0 -0.11314679899E+00 -0.21249789928E-01  0.63258251641E-01  0.13244949479E+00  0.16956136818E-01 0.  0.
         14    1    1    2    0    0  0.18138274082E-01  0.12040721858E-01  0.85970889545E-02  0.23406962811E-01  0.00000000000E+00 0. -1.
     999901    1    3    3    0    0  0.95008524907E-01  0.92090680699E-02 -0.71855340595E-01  0.88807354240E+00  0.88000000000E+00 0. -1.
        -11    1    4    4    0    0 -0.41439123037E-01 -0.63463205599E-02  0.32339994842E-01  0.52949155707E-01  0.51100000000E-03 0.  1.
         11    1    4    4    0    0 -0.71707675952E-01 -0.14903469368E-01  0.30918256798E-01  0.79500339082E-01  0.51100000000E-03 0. -1.
</event>
<event>
 8    1  0.1064839E+005  0.1043930E+01  0.7957747E-01            NaN
         13   -1    0    0    0    0  0.00000000000E+00  0.00000000000E+00  0.74505805969E-08  0.10566000000E+00  0.10566000000E+00 0. -1.
     999900   -1    0    0    0    0 -0.00000000000E+00 -0.00000000000E+00 -0.74505805969E-08  0.93827000000E+00  0.93827000000E+00 0.  1.
     999902    2    1    2    0    0 -0.10027672833E-01  0.13127256265E-01  0.15924228972E-01  0.10209852806E+01  0.10207274284E+01 0.  0.
     999903    2    3    3    0    0  0.33730350728E-01 -0.10759793515E+00  0.62483986684E-01  0.13044771964E+00  0.19932555212E-01 0.  0.
         14    1    1    2    0    0  0.10027672833E-01 -0.13127256265E-01 -0.15924228972E-01  0.22944719389E-01  0.00000000000E+00 0.  1.
     999901    1    3    3    0    0 -0.43758023560E-01  0.12072519142E+00 -0.46559757712E-01  0.89053756097E+00  0.88000000000E+00 0.  1.
        -11    1    4    4    0    0  0.13430878219E-01 -0.28613859416E-01  0.26740888981E-01  0.41406252003E-01  0.51100000000E-03 0.  1.
         11    1    4    4    0    0  0.20299472509E-01 -0.78984075736E-01  0.35743097703E-01  0.89041467634E-01  0.51100000000E-03 0. -1.
</event>
<event>
 8    1  0.1064839E+005  0.1043930E+01  0.7957747E-01            NaN
         13   -1    0    0    0    0  0.00000000000E+00  0.00000000000E+00  0.74505805969E-08  0.10566000000E+00  0.10566000000E+00 0. -1.
     999900   -1    0    0    0    0 -0.00000000000E+00 -0.00000000000E+00 -0.74505805969E-08  0.93827000000E+00  0.93827000000E+00 0. -1.
     999902    2    1    2    0    0 -0.16477655582E-01  0.13102877320E-01 -0.14645678917E-01  0.10182844460E+01  0.10179614524E+01 0.  0.
     999903    2    3    3    0    0 -0.32187700104E-02  0.11247731397E+00 -0.64648714705E-01  0.13118164461E+00  0.19174486465E-01 0.  0.
         14    1    1    2    0    0  0.16477655582E-01 -0.13102877320E-01  0.14645678917E-01  0.25645553971E-01  0.00000000000E+00 0.  1.
     999901    1    3    3    0    0 -0.13258885571E-01 -0.99374436646E-01  0.50003035788E-01  0.88710280142E+00  0.88000000000E+00 0.  1.
        -11    1    4    4    0    0 -0.83025077669E-02  0.22043268314E-01 -0.12776580284E-01  0.26801855121E-01  0.51100000000E-03 0.  1.
         11    1    4    4    0    0  0.50837377565E-02  0.90434045652E-01 -0.51872134421E-01  0.10437978949E+00  0.51100000000E-03 0. -1.
</event>
<event>
 8    1  0.1064839E+005  0.1043930E+01  0.7957747E-01            NaN
         13   -1    0    0    0    0  0.00000000000E+00  0.00000000000E+00  0.74505805969E-08  0.10566000000E+00  0.10566000000E+00 0.  1.
     999900   -1    0    0    0    0 -0.00000000000E+00 -0.00000000000E+00 -0.74505805969E-08  0.93827000000E+00  0.93827000000E+00 0.  1.
     999902    2    1    2    0    0 -0.15165789088E-01  0.35801266428E-02 -0.16872960665E-01  0.10209622995E+01  0.10207039246E+01 0.  0.
     999903    2    3    3    0    0  0.68323573358E-01  0.38222384722E-01 -0.10439690459E+00  0.13201291935E+00  0.19990893347E-01 0.  0.
         14    1    1    2    0    0  0.15165789088E-01 -0.35801266428E-02  0.16872960665E-01  0.22967700518E-01  0.00000000000E+00 0.  1.
     999901    1    3    3    0    0 -0.83489362446E-01 -0.34642258079E-01  0.87523943921E-01  0.88894938014E+00  0.88000000000E+00 0. -1.
        -11    1    4    4    0    0  0.61638342095E-01  0.26521317704E-01 -0.90309569469E-01  0.11251108820E+00  0.51100000000E-03 0.  1.
         11    1    4    4    0    0  0.66852312628E-02  0.11701067017E-01 -0.14087335117E-01  0.19501831147E-01  0.51100000000E-03 0. -1.
</event>
<event>
 8    1  0.1064839E+005  0.1043930E+01  0.7957747E-01            NaN
         13   -1    0    0    0    0  0.00000000000E+00  0.00000000000E+00  0.74505805969E-08  0.10566000000E+00  0.10566000000E+00 0. -1.
     999900   -1    0    0    0    0 -0.00000000000E+00 -0.00000000000E+00 -0.74505805969E-08  0.93827000000E+00  0.93827000000E+00 0. -1.
     999902    2    1    2    0    0 -0.93625634810E-02 -0.20355956981E-01  0.26878862334E-02  0.10213634914E+01  0.10211141631E+01 0.  0.
     999903    2    3    3    0    0 -0.11963124424E+00  0.35262677784E-01  0.38187117777E-01  0.13203070217E+00  0.20463609386E-01 0.  0.
         14    1    1    2    0    0  0.93625634810E-02  0.20355956981E-01 -0.26878862334E-02  0.22566508635E-01  0.00000000000E+00 0.  1.
     999901    1    3    3    0    0  0.11026868076E+00 -0.55618634765E-01 -0.35499231544E-01  0.88933278919E+00  0.88000000000E+00 0. -1.
        -11    1    4    4    0    0 -0.48792519288E-01  0.19889150692E-01  0.25114052042E-01  0.58371782436E-01  0.51100000000E-03 0.  1.
         11    1    4    4    0    0 -0.70838724954E-01  0.15373527092E-01  0.13073065735E-01  0.73658919739E-01  0.51100000000E-03 0. -1.
</event>
<event>
 8    1  0.1064839E+005  0.1043930E+01  0.7957747E-01            NaN
         13   -1    0    0    0    0  0.00000000000E+00  0.00000000000E+00  0.74505805969E-08  0.10566000000E+00  0.10566000000E+00 0. -1.
     999900   -1    0    0    0    0 -0.00000000000E+00 -0.00000000000E+00 -0.74505805969E-08  0.93827000000E+00  0.93827000000E+00 0.  1.
     999902    2    1    2    0    0 -0.19831491595E-01  0.23668409232E-02  0.13480817316E-01  0.10198338918E+01  0.10195491869E+01 0.  0.
     999903    2    3    3    0    0  0.54208236566E-01 -0.10169820243E+00  0.55795619867E-01  0.12960810184E+00  0.20101034220E-01 0.  0.
         14    1    1    2    0    0  0.19831491595E-01 -0.23668409232E-02 -0.13480817316E-01  0.24096108200E-01  0.00000000000E+00 0.  1.
     999901    1    3    3    0    0 -0.74039728162E-01  0.10406504336E+00 -0.42314802551E-01  0.89022578996E+00  0.88000000000E+00 0.  1.
        -11    1    4    4    0    0  0.18611542061E-01 -0.19895151698E-01  0.80035607899E-02  0.28399377903E-01  0.51100000000E-03 0. -1.
         11    1    4    4    0    0  0.35596694506E-01 -0.81803050734E-01  0.47792059077E-01  0.10120872394E+00  0.51100000000E-03 0.  1.
</event>
<event>
 8    1  0.1064839E+005  0.1043930E+01  0.7957747E-01            NaN
         13   -1    0    0    0    0  0.00000000000E+00  0.00000000000E+00  0.74505805969E-08  0.10566000000E+00  0.10566000000E+00 0.  1.
     999900   -1    0    0    0    0 -0.00000000000E+00 -0.00000000000E+00 -0.74505805969E-08  0.93827000000E+00  0.93827000000E+00 0. -1.
     999902    2    1    2    0    0  0.66227880249E-03 -0.22526872298E-01  0.68897285640E-02  0.10203637753E+01  0.10200915973E+01 0.  0.
     999903    2    3    3    0    0  0.32368084551E-01 -0.12784714441E+00 -0.42568771296E-02  0.13344671902E+00  0.19932902009E-01 0.  0.
         14    1    1    2    0    0 -0.66227880249E-03  0.22526872298E-01 -0.68897285640E-02  0.23566224739E-01  0.00000000000E+00 0. -1.
     999901    1    3    3    0    0 -0.31705805749E-01  0.10532027211E+00  0.11146605694E-01  0.88691705624E+00  0.88000000000E+00 0.  1.
        -11    1    4    4    0    0  0.33367996288E-01 -0.99593465889E-01 -0.16245785725E-02  0.10504847453E+00  0.51100000000E-03 0. -1.
         11    1    4    4    0    0 -0.99991173664E-03 -0.28253678521E-01 -0.26322985571E-02  0.28398244491E-01  0.51100000000E-03 0.  1.
</event>
<event>
 8    1  0.1064839E+005  0.1043930E+01  0.7957747E-01            NaN
         13   -1    0    0    0    0  0.00000000000E+00  0.00000000000E+00  0.74505805969E-08  0.10566000000E+00  0.10566000000E+00 0. -1.
     999900   -1    0    0    0    0 -0.00000000000E+00 -0.00000000000E+00 -0.74505805969E-08  0.93827000000E+00  0.93827000000E+00 0. -1.
     999902    2    1    2    0    0  0.43916119344E-02 -0.24377782510E-01 -0.53555398655E-05  0.10191598049E+01  0.10188587465E+01 0.  0.
     999903    2    3    3    0    0  0.67576864196E-01  0.30376732422E-01 -0.10390177406E+00  0.12911211025E+00  0.19620905043E-01 0.  0.
         14    1    1    2    0    0 -0.43916119344E-02  0.24377782510E-01  0.53555398655E-05  0.24770195077E-01  0.00000000000E+00 0. -1.
     999901    1    3    3    0    0 -0.63185252261E-01 -0.54754514931E-01  0.10389641852E+00  0.89004769467E+00  0.88000000000E+00 0.  1.
        -11    1    4    4    0    0  0.42730982010E-01  0.29208197374E-01 -0.70762268775E-01  0.87673344983E-01  0.51100000000E-03 0. -1.
         11    1    4    4    0    0  0.24845882186E-01  0.11685350472E-02 -0.33139505281E-01  0.41438765268E-01  0.51100000000E-03 0.  1.
</event>
<event>
 8    1  0.1064839E+005  0.1043930E+01  0.7957747E-01            NaN
         13   -1    0    0    0    0  0.00000000000E+00  0.00000000000E+00  0.74505805969E-08  0.10566000000E+00  0.10566000000E+00 0. -1.
     999900   -1    0    0    0    0 -0.00000000000E+00 -0.00000000000E+00 -0.74505805969E-08  0.93827000000E+00  0.93827000000E+00 0.  1.
     999902    2    1    2    0    0 -0.11723373356E-03  0.24959207896E-01  0.20486739550E-02  0.10188865804E+01  0.10185787602E+01 0.  0.
     999903    2    3    3    0    0  0.53325712073E-01 -0.10125265785E+00  0.51408301555E-01  0.12691014774E+00  0.19173936471E-01 0.  0.
         14    1    1    2    0    0  0.11723373356E-03 -0.24959207896E-01 -0.20486739550E-02  0.25043419645E-01  0.00000000000E+00 0.  1.
     999901    1    3    3    0    0 -0.53442945807E-01  0.12621186575E+00 -0.49359627600E-01  0.89197643262E+00  0.88000000000E+00 0.  1.
        -11    1    4    4    0    0  0.46657699973E-01 -0.97609115871E-01  0.45958801967E-01  0.11754553614E+00  0.51100000000E-03 0. -1.
         11    1    4    4    0    0  0.66680120998E-02 -0.36435419779E-02  0.54494995886E-02  0.93646115922E-02  0.51100000000E-03 0.  1.
</event>
<event>
 8    1  0.1064839E+005  0.1043930E+01  0.7957747E-01            NaN
         13   -1    0    0    0    0  0.00000000000E+00  0.00000000000E+00  0.74505805969E-08  0.10566000000E+00  0.10566000000E+00 0. -1.
     999900   -1    0    0    0    0 -0.00000000000E+00 -0.00000000000E+00 -0.74505805969E-08  0.93827000000E+00  0.93827000000E+00 0.  1.
     999902    2    1    2    0    0 -0.68583682147E-02 -0.18756759608E-01  0.18710959663E-01  0.10165629896E+01  0.10161945476E+01 0.  0.
     999903    2    3    3    0    0  0.87978918857E-01 -0.26356929674E-01 -0.83469545667E-01  0.12555640756E+00  0.19033352853E-01 0.  0.
         14    1    1    2    0    0  0.68583682147E-02  0.18756759608E-01 -0.18710959663E-01  0.27367010379E-01  0.00000000000E+00 0.  1.
     999901    1    3    3    0    0 -0.94837287072E-01  0.76001700653E-02  0.10218050533E+00  0.89100658206E+00  0.88000000000E+00 0. -1.
        -11    1    4    4    0    0  0.85356939935E-02 -0.26570280247E-02 -0.17311245015E-01  0.19489951125E-01  0.51100000000E-03 0.  1.
         11    1    4    4    0    0  0.79443224864E-01 -0.23699901649E-01 -0.66158300651E-01  0.10606645644E+00  0.51100000000E-03 0. -1.
</event>
<event>
 8    1  0.1064839E+005  0.1043930E+01  0.7957747E-01            NaN
         13   -1    0    0    0    0  0.00000000000E+00  0.00000000000E+00  0.74505805969E-08  0.10566000000E+00  0.10566000000E+00 0.  1.
     999900   -1    0    0    0    0 -0.00000000000E+00 -0.00000000000E+00 -0.74505805969E-08  0.93827000000E+00  0.93827000000E+00 0. -1.
     999902    2    1    2    0    0 -0.15159424008E-01 -0.10529582822E-01  0.15581647898E-01  0.10197749177E+01  0.10194888007E+01 0.  0.
     999903    2    3    3    0    0  0.44443597084E-01 -0.81322805685E-01  0.91332089374E-01  0.13168577243E+00  0.20272149983E-01 0.  0.
         14    1    1    2    0    0  0.15159424008E-01  0.10529582822E-01 -0.15581647898E-01  0.24155082320E-01  0.00000000000E+00 0. -1.
     999901    1    3    3    0    0 -0.59603021092E-01  0.70793222864E-01 -0.75750441475E-01  0.88808914525E+00  0.88000000000E+00 0.  1.
        -11    1    4    4    0    0  0.35940888377E-01 -0.51375174731E-01  0.69819408760E-01  0.93841179642E-01  0.51100000000E-03 0. -1.
         11    1    4    4    0    0  0.85027087067E-02 -0.29947630955E-01  0.21512680614E-01  0.37844592789E-01  0.51100000000E-03 0.  1.
</event>
<event>
 8    1  0.1064839E+005  0.1043930E+01  0.7957747E-01            NaN
         13   -1    0    0    0    0  0.00000000000E+00  0.00000000000E+00  0.74505805969E-08  0.10566000000E+00  0.10566000000E+00 0.  1.
     999900   -1    0    0    0    0 -0.00000000000E+00 -0.00000000000E+00 -0.74505805969E-08  0.93827000000E+00  0.93827000000E+00 0.  1.
     999902    2    1    2    0    0  0.18672861682E-01 -0.98244222220E-02  0.10811963572E-01  0.10202214869E+01  0.10199459735E+01 0.  0.
     999903    2    3    3    0    0  0.91369726073E-02 -0.57804611565E-02 -0.12733849625E+00  0.12938320961E+00  0.20199611398E-01 0.  0.
         14    1    1    2    0    0 -0.18672861682E-01  0.98244222220E-02 -0.10811963572E-01  0.23708513063E-01  0.00000000000E+00 0. -1.
     999901    1    3    3    0    0  0.95358890747E-02 -0.40439610654E-02  0.13815045983E+00  0.89083827733E+00  0.88000000000E+00 0. -1.
        -11    1    4    4    0    0 -0.36322150588E-02 -0.15853883001E-02 -0.54667019438E-02  0.67714395396E-02  0.51100000000E-03 0. -1.
         11    1    4    4    0    0  0.12769187666E-01 -0.41950728564E-02 -0.12187179431E+00  0.12261177007E+00  0.51100000000E-03 0.  1.
</event>
<event>
 8    1  0.1064839E+005  0.1043930E+01  0.7957747E-01            NaN
         13   -1    0    0    0    0  0.00000000000E+00  0.00000000000E+00  0.74505805969E-08  0.10566000000E+00  0.10566000000E+00 0.  1.
     999900   -1    0    0    0    0 -0.00000000000E+00 -0.00000000000E+00 -0.74505805969E-08  0.93827000000E+00  0.93827000000E+00 0.  1.
     999902    2    1    2    0    0  0.38231417850E-02  0.15560458486E-01 -0.17496821142E-01  0.10202048439E+01  0.10199289389E+01 0.  0.
     999903    2    3    3    0    0  0.50984480993E-01  0.93201405681E-01  0.74069215062E-01  0.13080243353E+00  0.18360519473E-01 0.  0.
         14    1    1    2    0    0 -0.38231417850E-02 -0.15560458486E-01  0.17496821142E-01  0.23725156090E-01  0.00000000000E+00 0.  1.
     999901    1    3    3    0    0 -0.47161339208E-01 -0.77640947195E-01 -0.91566036205E-01  0.88940241038E+00  0.88000000000E+00 0. -1.
        -11    1    4    4    0    0  0.51780787378E-01  0.89013823581E-01  0.73390273115E-01  0.12645593714E+00  0.51100000000E-03 0. -1.
         11    1    4    4    0    0 -0.79630638492E-03  0.41875820995E-02  0.67894194784E-03  0.43464963899E-02  0.51100000000E-03 0.  1.
</event>
<event>
 8    1  0.1064839E+005  0.1043930E+01  0.7957747E-01            NaN
         13   -1    0    0    0    0  0.00000000000E+00  0.00000000000E+00  0.74505805969E-08  0.10566000000E+00  0.10566000000E+00 0. -1.
     999900   -1    0    0    0    0 -0.00000000000E+00 -0.00000000000E+00 -0.74505805969E-08  0.93827000000E+00  0.93827000000E+00 0. -1.
     999902    2    1    2    0    0  0.57068151913E-02 -0.80570428628E-02  0.20643242864E-01  0.10210470991E+01  0.10207906501E+01 0.  0.
     999903    2    3    3    0    0  0.12924318988E+00  0.16888271536E-01 -0.94420527400E-02  0.13155925227E+00  0.15154822712E-01 0.  0.
         14    1    1    2    0    0 -0.57068151913E-02  0.80570428628E-02 -0.20643242864E-01  0.22882900936E-01  0.00000000000E+00 0.  1.
     999901    1    3    3    0    0 -0.12353637469E+00 -0.24945314399E-01  0.30085295604E-01  0.88948784679E+00  0.88000000000E+00 0. -1.
        -11    1    4    4    0    0  0.10644832964E+00  0.15841753307E-01 -0.13196504467E-01  0.10842793405E+00  0.51100000000E-03 0.  1.
         11    1    4    4    0    0  0.22794860245E-01  0.10465182291E-02  0.37544517266E-02  0.23131318223E-01  0.51100000000E-03 0. -1.
</event>
<event>
 7    1  0.1064839E+005  0.1043930E+01  0.7957747E-01            NaN
         13   -1    0    0    0    0  0.00000000000E+00  0.00000000000E+00  0.74505805969E-08  0.10566000000E+00  0.10566000000E+00 0. -1.
     999900   -1    0    0    0    0 -0.00000000000E+00 -0.00000000000E+00 -0.74505805969E-08  0.93827000000E+00  0.93827000000E+00 0. -1.
     999903    2    1    2    0    0 -0.49094668361E-01  0.96771289923E-01  0.33467951396E-01  0.11543668543E+00  0.20749832723E-01 0.  0.
         14    1    1    2    0    0 -0.87031589975E-02  0.11156541367E-01 -0.37423180398E-01  0.40008846808E-01  0.00000000000E+00 0.  1.
     999901    1    1    2    0    0  0.57797827359E-01 -0.10792783129E+00  0.39552290023E-02  0.88848446776E+00  0.88000000000E+00 0.  1.
        -11    1    3    3    0    0 -0.29681851472E-01  0.59454060004E-01  0.98120800038E-02  0.67173920481E-01  0.51100000000E-03 0. -1.
         11    1    3    3    0    0 -0.19412816889E-01  0.37317229919E-01  0.23655871392E-01  0.48262764951E-01  0.51100000000E-03 0.  1.
</event>
<event>
 8    1  0.1064839E+005  0.1043930E+01  0.7957747E-01            NaN
         13   -1    0    0    0    0  0.00000000000E+00  0.00000000000E+00  0.74505805969E-08  0.10566000000E+00  0.10566000000E+00 0.  1.
     999900   -1    0    0    0    0 -0.00000000000E+00 -0.00000000000E+00 -0.74505805969E-08  0.93827000000E+00  0.93827000000E+00 0.  1.
     999902    2    1    2    0    0  0.65540481939E-02 -0.19470872027E-01 -0.69334668269E-03  0.10233739514E+01  0.10231674805E+01 0.  0.
     999903    2    3    3    0    0  0.27475311998E-01 -0.51977507623E-01 -0.11920794198E+00  0.13458821233E+00  0.21139995245E-01 0.  0.
         14    1    1    2    0    0 -0.65540481939E-02  0.19470872027E-01  0.69334668269E-03  0.20556048620E-01  0.00000000000E+00 0. -1.
     999901    1    3    3    0    0 -0.20921263804E-01  0.32506635596E-01  0.11851459530E+00  0.88878573905E+00  0.88000000000E+00 0. -1.
        -11    1    4    4    0    0  0.10970643913E-01 -0.86249231450E-02 -0.44584849075E-01  0.46720597333E-01  0.51100000000E-03 0.  1.
         11    1    4    4    0    0  0.16504668085E-01 -0.43352584478E-01 -0.74623092907E-01  0.87867614999E-01  0.51100000000E-03 0. -1.
</event>
<event>
 8    1  0.1064839E+005  0.1043930E+01  0.7957747E-01            NaN
         13   -1    0    0    0    0  0.00000000000E+00  0.00000000000E+00  0.74505805969E-08  0.10566000000E+00  0.10566000000E+00 0.  1.
     999900   -1    0    0    0    0 -0.00000000000E+00 -0.00000000000E+00 -0.74505805969E-08  0.93827000000E+00  0.93827000000E+00 0. -1.
     999902    2    1    2    0    0 -0.10803099171E-01  0.20778674747E-01 -0.11587432138E-02  0.10204821224E+01  0.10202127030E+01 0.  0.
     999903    2    3    3    0    0 -0.35112660528E-01  0.23480984507E-01 -0.12300914017E+00  0.13174944245E+00  0.21033579272E-01 0.  0.
         14    1    1    2    0    0  0.10803099171E-01 -0.20778674747E-01  0.11587432138E-02  0.23447877554E-01  0.00000000000E+00 0.  1.
     999901    1    3    3    0    0  0.24309561357E-01 -0.27023097604E-02  0.12185039696E+00  0.88873267999E+00  0.88000000000E+00 0.  1.
        -11    1    4    4    0    0 -0.13320456584E-01 -0.10451819015E-02 -0.24390544614E-01  0.27815225262E-01  0.51100000000E-03 0.  1.
         11    1    4    4    0    0 -0.21792203945E-01  0.24526166408E-01 -0.98618595561E-01  0.10393421719E+00  0.51100000000E-03 0. -1.
</event>
<event>
 8    1  0.1064839E+005  0.1043930E+01  0.7957747E-01            NaN
         13   -1    0    0    0    0  0.00000000000E+00  0.00000000000E+00  0.74505805969E-08  0.10566000000E+00  0.10566000000E+00 0.  1.
     999900   -1    0    0    0    0 -0.00000000000E+00 -0.00000000000E+00 -0.74505805969E-08  0.93827000000E+00  0.93827000000E+00 0. -1.
     999902    2    1    2    0    0 -0.20675220201E-01 -0.85070360263E-02 -0.53917107685E-02  0.10209320667E+01  0.10206730034E+01 0.  0.
     999903    2    3    3    0    0 -0.11721691629E+00 -0.60929035485E-01 -0.12320949454E-01  0.13407447976E+00  0.19287495913E-01 0.  0.
         14    1    1    2    0    0  0.20675220201E-01  0.85070360263E-02  0.53917107685E-02  0.22997933327E-01  0.00000000000E+00 0.  1.
     999901    1    3    3    0    0  0.96541696089E-01  0.52421999459E-01  0.69292386859E-02  0.88685758691E+00  0.88000000000E+00 0. -1.
        -11    1    4    4    0    0 -0.10372917159E+00 -0.48719800799E-01 -0.15345062328E-01  0.11562479011E+00  0.51100000000E-03 0. -1.
         11    1    4    4    0    0 -0.13487744701E-01 -0.12209234686E-01  0.30241128733E-02  0.18449689657E-01  0.51100000000E-03 0.  1.
</event>
<event>
 8    1  0.1064839E+005  0.1043930E+01  0.7957747E-01            NaN
         13   -1    0    0    0    0  0.00000000000E+00  0.00000000000E+00  0.74505805969E-08  0.10566000000E+00  0.10566000000E+00 0. -1.
     999900   -1    0    0    0    0 -0.00000000000E+00 -0.00000000000E+00 -0.74505805969E-08  0.93827000000E+00  0.93827000000E+00 0.  1.
     999902    2    1    2    0    0 -0.20824454635E-01  0.20738100348E-02 -0.10866403856E-01  0.10203495562E+01  0.10200770458E+01 0.  0.
     999903    2    3    3    0    0 -0.92319415779E-01 -0.26587771375E-01  0.87613434305E-01  0.13151251022E+00  0.19739360583E-01 0.  0.
         14    1    1    2    0    0  0.20824454635E-01 -0.20738100348E-02  0.10866403856E-01  0.23580443840E-01  0.00000000000E+00 0. -1.
     999901    1    3    3    0    0  0.71494961144E-01  0.28661581409E-01 -0.98479838161E-01  0.88883704594E+00  0.88000000000E+00 0.  1.
        -11    1    4    4    0    0 -0.84686904615E-01 -0.18030125237E-01  0.78062660780E-01  0.11658043300E+00  0.51100000000E-03 0.  1.
         11    1    4    4    0    0 -0.76325111643E-02 -0.85576461373E-02  0.95507735247E-02  0.14932077217E-01  0.51100000000E-03 0. -1.
</event>
<event>
 8    1  0.1064839E+005  0.1043930E+01  0.7957747E-01            NaN
         13   -1    0    0    0    0  0.00000000000E+00  0.00000000000E+00  0.74505805969E-08  0.10566000000E+00  0.10566000000E+00 0.  1.
     999900   -1    0    0    0    0 -0.00000000000E+00 -0.00000000000E+00 -0.74505805969E-08  0.93827000000E+00  0.93827000000E+00 0.  1.
     999902    2    1    2    0    0 -0.19047099673E-01  0.11567653056E-01 -0.72252945463E-02  0.10205033595E+01  0.10202344335E+01 0.  0.
     999903    2    3    3    0    0  0.79937419055E-01 -0.97841557463E-01 -0.94305904259E-02  0.12821799394E+00  0.19696613952E-01 0.  0.
         14    1    1    2    0    0  0.19047099673E-01 -0.11567653056E-01  0.72252945463E-02  0.23426640486E-01  0.00000000000E+00 0.  1.
     999901    1    3    3    0    0 -0.98984518728E-01  0.10940921052E+00  0.22052958796E-02  0.89228536558E+00  0.88000000000E+00 0. -1.
        -11    1    4    4    0    0  0.51371102843E-01 -0.56843600397E-01  0.31635414373E-02  0.76684119796E-01  0.51100000000E-03 0. -1.
         11    1    4    4    0    0  0.28566316212E-01 -0.40997957066E-01 -0.12594131863E-01  0.51533874140E-01  0.51100000000E-03 0.  1.
</event>
<event>
 8    1  0.1064839E+005  0.1043930E+01  0.7957747E-01            NaN
         13   -1    0    0    0    0  0.00000000000E+00  0.00000000000E+00  0.74505805969E-08  0.10566000000E+00  0.10566000000E+00 0.  1.
     999900   -1    0    0    0    0 -0.00000000000E+00 -0.00000000000E+00 -0.74505805969E-08  0.93827000000E+00  0.93827000000E+00 0.  1.
     999902    2    1    2    0    0 -0.12797534976E-01 -0.37089359808E-02  0.19891997176E-01  0.10199878894E+01  0.10197068549E+01 0.  0.
     999903    2    3    3    0    0 -0.77149574934E-01  0.67910813730E-01 -0.76287157966E-01  0.12952677096E+00  0.19837297974E-01 0.  0.
         14    1    1    2    0    0  0.12797534976E-01  0.37089359808E-02 -0.19891997176E-01  0.23942110584E-01  0.00000000000E+00 0. -1.
     999901    1    3    3    0    0  0.64352039958E-01 -0.71619749711E-01  0.96179155143E-01  0.89046111845E+00  0.88000000000E+00 0. -1.
        -11    1    4    4    0    0 -0.12011017860E-01  0.20221201253E-01 -0.12520693894E-01  0.26649398244E-01  0.51100000000E-03 0. -1.
         11    1    4    4    0    0 -0.65138557074E-01  0.47689612477E-01 -0.63766464072E-01  0.10287737272E+00  0.51100000000E-03 0.  1.
</event>
<event>
 8    1  0.1064839E+005  0.1043930E+01  0.7957747E-01            NaN
         13   -1    0    0    0    0  0.00000000000E+00  0.00000000000E+00  0.74505805969E-08  0.10566000000E+00  0.10566000000E+00 0.  1.
     999900   -1    0    0    0    0 -0.00000000000E+00 -0.00000000000E+00 -0.74505805969E-08  0.93827000000E+00  0.93827000000E+00 0.  1.
     999902    2    1    2    0    0  0.15898297980E-01  0.31043943376E-02  0.15743026229E-01  0.10213415955E+01  0.10210917778E+01 0.  0.
     999903    2    3    3    0    0  0.11839865463E+00 -0.57442921810E-01 -0.34189697674E-02  0.13311894172E+00  0.19774544407E-01 0.  0.
         14    1    1    2    0    0 -0.15898297980E-01 -0.31043943376E-02 -0.15743026229E-01  0.22588404497E-01  0.00000000000E+00 0.  1.
     999901    1    3    3    0    0 -0.10250035665E+00  0.60547316147E-01  0.19161995996E-01  0.88822265378E+00  0.88000000000E+00 0. -1.
        -11    1    4    4    0    0  0.35755392521E-01 -0.11261408624E-01  0.60445161174E-02  0.37974527181E-01  0.51100000000E-03 0.  1.
         11    1    4    4    0    0  0.82643262106E-01 -0.46181513185E-01 -0.94634858848E-02  0.95144414538E-01  0.51100000000E-03 0. -1.
</event>
<event>
 8    1  0.1064839E+005  0.1043930E+01  0.7957747E-01            NaN
         13   -1    0    0    0    0  0.00000000000E+00  0.00000000000E+00  0.74505805969E-08  0.10566000000E+00  0.10566000000E+00 0. -1.
     999900   -1    0    0    0    0 -0.00000000000E+00 -0.00000000000E+00 -0.74505805969E-08  0.93827000000E+00  0.93827000000E+00 0. -1.
     999902    2    1    2    0    0  0.12248830489E-01 -0.11117182967E-01  0.17087718165E-01  0.10201473232E+01  0.10198700629E+01 0.  0.
     999903    2    3    3    0    0  0.82070140507E-01 -0.51066054752E-01 -0.85393877200E-01  0.13055561621E+00  0.20233752743E-01 0.  0.
         14    1    1    2    0    0 -0.12248830489E-01  0.11117182967E-01 -0.17087718165E-01  0.23782676837E-01  0.00000000000E+00 0.  1.
     999901    1    3    3    0    0 -0.69821310018E-01  0.39948871785E-01  0.10248159537E+00  0.88959170695E+00  0.88000000000E+00 0.  1.
        -11    1    4    4    0    0  0.32559143532E-01 -0.24114723918E-01 -0.23519568670E-01  0.46851349699E-01  0.51100000000E-03 0. -1.
         11    1    4    4    0    0  0.49510996975E-01 -0.26951330833E-01 -0.61874308530E-01  0.83704266511E-01  0.51100000000E-03 0.  1.
</event>
<event>
 8    1  0.1064839E+005  0.1043930E+01  0.7957747E-01            NaN
         13   -1    0    0    0    0  0.00000000000E+00  0.00000000000E+00  0.74505805969E-08  0.10566000000E+00  0.10566000000E+00 0.  1.
     999900   -1    0    0    0    0 -0.00000000000E+00 -0.00000000000E+00 -0.74505805969E-08  0.93827000000E+00  0.93827000000E+00 0. -1.
     999902    2    1    2    0    0  0.22790423096E-01 -0.57950424193E-02  0.21632373685E-03  0.10204133528E+01  0.10201423321E+01 0.  0.
     999903    2    3    3    0    0 -0.65527516708E-02  0.10716140075E+00  0.70295360434E-01  0.12994648008E+00  0.20448609231E-01 0.  0.
         14    1    1    2    0    0 -0.22790423096E-01  0.57950424193E-02 -0.21632373685E-03  0.23516647242E-01  0.00000000000E+00 0.  1.
     999901    1    3    3    0    0  0.29343174767E-01 -0.11295644317E+00 -0.70079036698E-01  0.89046687268E+00  0.88000000000E+00 0.  1.
        -11    1    4    4    0    0  0.39521964986E-02  0.60690567843E-01  0.31446524095E-01  0.68469773484E-01  0.51100000000E-03 0. -1.
         11    1    4    4    0    0 -0.10504948169E-01  0.46470832911E-01  0.38848836339E-01  0.61476706592E-01  0.51100000000E-03 0.  1.
</event>
<event>
 8    1  0.1064839E+005  0.1043930E+01  0.7957747E-01            NaN
         13   -1    0    0    0    0  0.00000000000E+00  0.00000000000E+00  0.74505805969E-08  0.10566000000E+00  0.10566000000E+00 0. -1.
     999900   -1    0    0    0    0 -0.00000000000E+00 -0.00000000000E+00 -0.74505805969E-08  0.93827000000E+00  0.93827000000E+00 0. -1.
     999902    2    1    2    0    0  0.77472348263E-02 -0.34598434856E-01 -0.10053903206E-01  0.10070768819E+01  0.10064023518E+01 0.  0.
     999903    2    3    3    0    0 -0.36004511561E-01  0.10402991174E+00  0.24567527019E-01  0.11447916895E+00  0.19579819941E-01 0.  0.
         14    1    1    2    0    0 -0.77472348263E-02  0.34598434856E-01  0.10053903206E-01  0.36853118072E-01  0.00000000000E+00 0. -1.
     999901    1    3    3    0    0  0.43751746387E-01 -0.13862834660E+00 -0.34621430226E-01  0.89259771298E+00  0.88000000000E+00 0. -1.
        -11    1    4    4    0    0 -0.93974158555E-02  0.32808223481E-01 -0.13333341038E-02  0.34157427503E-01  0.51100000000E-03 0.  1.
         11    1    4    4    0    0 -0.26607095705E-01  0.71221688260E-01  0.25900861123E-01  0.80321741443E-01  0.51100000000E-03 0. -1.
</event>
<event>
 8    1  0.1064839E+005  0.1043930E+01  0.7957747E-01            NaN
         13   -1    0    0    0    0  0.00000000000E+00  0.00000000000E+00  0.74505805969E-08  0.10566000000E+00  0.10566000000E+00 0. -1.
     999900   -1    0    0    0    0 -0.00000000000E+00 -0.00000000000E+00 -0.74505805969E-08  0.93827000000E+00  0.93827000000E+00 0.  1.
     999902    2    1    2    0    0  0.21603347355E-01 -0.16753023000E-03  0.79087760967E-02  0.10209238829E+01  0.10206646331E+01 0.  0.
     999903    2    3    3    0    0  0.22871814157E-01 -0.82953552036E-01 -0.96691412395E-01  0.13086976444E+00  0.19319791258E-01 0.  0.
         14    1    1    2    0    0 -0.21603347355E-01  0.16753023000E-03 -0.79087760967E-02  0.23006117070E-01  0.00000000000E+00 0. -1.
     999901    1    3    3    0    0 -0.12684668019E-02  0.82786021806E-01  0.10460018849E+00  0.89005411849E+00  0.88000000000E+00 0. -1.
        -11    1    4    4    0    0  0.10745900283E-01 -0.43708144464E-01 -0.64628513314E-01  0.78759012942E-01  0.51100000000E-03 0. -1.
         11    1    4    4    0    0  0.12125913874E-01 -0.39245407572E-01 -0.32062899081E-01  0.52110751494E-01  0.51100000000E-03 0.  1.
</event>
<event>
 8    1  0.1064839E+005  0.1043930E+01  0.7957747E-01            NaN
         13   -1    0    0    0    0  0.00000000000E+00  0.00000000000E+00  0.74505805969E-08  0.10566000000E+00  0.10566000000E+00 0.  1.
     999900   -1    0    0    0    0 -0.00000000000E+00 -0.00000000000E+00 -0.74505805969E-08  0.93827000000E+00  0.93827000000E+00 0.  1.
     999902    2    1    2    0    0  0.64596844466E-02  0.17149294996E-01  0.15021203966E-01  0.10202348020E+01  0.10199596015E+01 0.  0.
     999903    2    3    3    0    0  0.11133138631E+00  0.54575669749E-01  0.43107727616E-01  0.13277344494E+00  0.19933143131E-01 0.  0.
         14    1    1    2    0    0 -0.64596844466E-02 -0.17149294996E-01 -0.15021203966E-01  0.23695198049E-01  0.00000000000E+00 0. -1.
     999901    1    3    3    0    0 -0.10487170186E+00 -0.37426374753E-01 -0.28086523650E-01  0.88746135701E+00  0.88000000000E+00 0. -1.
        -11    1    4    4    0    0  0.53193906370E-01  0.18490080831E-01  0.11884327684E-01  0.57558432306E-01  0.51100000000E-03 0. -1.
         11    1    4    4    0    0  0.58137479937E-01  0.36085588918E-01  0.31223399932E-01  0.75215012633E-01  0.51100000000E-03 0.  1.
</event>
<event>
 8    1  0.1064839E+005  0.1043930E+01  0.7957747E-01            NaN
         13   -1    0    0    0    0  0.00000000000E+00  0.00000000000E+00  0.74505805969E-08  0.10566000000E+00  0.10566000000E+00 0.  1.
     999900   -1    0    0    0    0 -0.00000000000E+00 -0.00000000000E+00 -0.74505805969E-08  0.93827000000E+00  0.93827000000E+00 0.  1.
     999902    2    1    2    0    0  0.73164606651E-02 -0.44940076988E-02 -0.22219849288E-01  0.10201088245E+01  0.10198306552E+01 0.  0.
     999903    2    3    3    0    0  0.93035262280E-01 -0.38531976387E-03  0.87175195158E-01  0.12919251525E+00  0.20868225755E-01 0.  0.
         14    1    1    2    0    0 -0.73164606651E-02  0.44940076988E-02  0.22219849288E-01  0.23821175543E-01  0.00000000000E+00 0.  1.
     999901    1    3    3    0    0 -0.85718801615E-01 -0.41086879349E-02 -0.10939504445E+00  0.89091630921E+00  0.88000000000E+00 0.  1.
        -11    1    4    4    0    0  0.72679635751E-01 -0.86941959796E-02  0.63841684657E-01  0.97128473258E-01  0.51100000000E-03 0. -1.
         11    1    4    4    0    0  0.20355626529E-01  0.83088762157E-02  0.23333510501E-01  0.32064041989E-01  0.51100000000E-03 0.  1.
</event>
<event>
 8    1  0.1064839E+005  0.1043930E+01  0.7957747E-01            NaN
         13   -1    0    0    0    0  0.00000000000E+00  0.00000000000E+00  0.74505805969E-08  0.10566000000E+00  0.10566000000E+00 0. -1.
     999900   -1    0    0    0    0 -0.00000000000E+00 -0.00000000000E+00 -0.74505805969E-08  0.93827000000E+00  0.93827000000E+00 0.  1.
     999902    2    1    2    0    0 -0.88272276592E-02  0.21719610337E-01 -0.82663683225E-04  0.10204849951E+01  0.10202156424E+01 0.  0.
     999903    2    3    3    0    0  0.51646165109E-01 -0.87084027928E-01 -0.76621378649E-01  0.12843486320E+00  0.19331945825E-01 0.  0.
         14    1    1    2    0    0  0.88272276592E-02 -0.21719610337E-01  0.82663683225E-04  0.23445004897E-01  0.00000000000E+00 0.  1.
     999901    1    3    3    0    0 -0.60473392769E-01  0.10880363826E+00  0.76538714966E-01  0.89205013190E+00  0.88000000000E+00 0.  1.
        -11    1    4    4    0    0  0.11949002151E-01 -0.20733771290E-01 -0.85432088759E-02  0.25414866972E-01  0.51100000000E-03 0. -1.
         11    1    4    4    0    0  0.39697162958E-01 -0.66350256638E-01 -0.68078169774E-01  0.10301999623E+00  0.51100000000E-03 0.  1.
</event>
<event>
 8    1  0.1064839E+005  0.1043930E+01  0.7957747E-01            NaN
         13   -1    0    0    0    0  0.00000000000E+00  0.00000000000E+00  0.74505805969E-08  0.10566000000E+00  0.10566000000E+00 0. -1.
     999900   -1    0    0    0    0 -0.00000000000E+00 -0.00000000000E+00 -0.74505805969E-08  0.93827000000E+00  0.93827000000E+00 0. -1.
     999902    2    1    2    0    0 -0.17066886441E-01  0.14233803180E-01 -0.27899015837E-02  0.10215321582E+01  0.10212865841E+01 0.  0.
     999903    2    3    3    0    0  0.12260699989E+00  0.28254617925E-01  0.26493746343E-01  0.12992523260E+00  0.18650673295E-01 0.  0.
         14    1    1    2    0    0  0.17066886441E-01 -0.14233803180E-01  0.27899015837E-02  0.22397841785E-01  0.00000000000E+00 0.  1.
     999901    1    3    3    0    0 -0.13967388633E+00 -0.14020814745E-01 -0.29283647927E-01  0.89160692562E+00  0.88000000000E+00 0. -1.
        -11    1    4    4    0    0  0.13051059703E-01  0.90182680538E-02  0.49412471744E-02  0.16623367971E-01  0.51100000000E-03 0. -1.
         11    1    4    4    0    0  0.10955594019E+00  0.19236349872E-01  0.21552499169E-01  0.11330186463E+00  0.51100000000E-03 0.  1.
</event>
<event>
 8    1  0.1064839E+005  0.1043930E+01  0.7957747E-01            NaN
         13   -1    0    0    0    0  0.00000000000E+00  0.00000000000E+00  0.74505805969E-08  0.10566000000E+00  0.10566000000E+00 0. -1.
     999900   -1    0    0    0    0 -0.00000000000E+00 -0.00000000000E+00 -0.74505805969E-08  0.93827000000E+00  0.93827000000E+00 0.  1.
     999902    2    1    2    0    0  0.11517520157E-02  0.29110219019E-01 -0.12067331181E-02  0.10147720236E+01  0.10143530314E+01 0.  0.
     999903    2    3    3    0    0 -0.23756671309E-01 -0.46511382737E-01 -0.11129992394E+00  0.12434540287E+00  0.18612307490E-01 0.  0.
         14    1    1    2    0    0 -0.11517520157E-02 -0.29110219019E-01  0.12067331181E-02  0.29157976419E-01  0.00000000000E+00 0.  1.
     999901    1    3    3    0    0  0.24908423324E-01  0.75621601756E-01  0.11009319082E+00  0.89042662071E+00  0.88000000000E+00 0. -1.
        -11    1    4    4    0    0 -0.94822801703E-02 -0.22779622993E-01 -0.73146445107E-01  0.77197722853E-01  0.51100000000E-03 0.  1.
         11    1    4    4    0    0 -0.14274391138E-01 -0.23731759744E-01 -0.38153478833E-01  0.47147680017E-01  0.51100000000E-03 0. -1.
</event>
<event>
 8    1  0.1064839E+005  0.1043930E+01  0.7957747E-01            NaN
         13   -1    0    0    0    0  0.00000000000E+00  0.00000000000E+00  0.74505805969E-08  0.10566000000E+00  0.10566000000E+00 0. -1.
     999900   -1    0    0    0    0 -0.00000000000E+00 -0.00000000000E+00 -0.74505805969E-08  0.93827000000E+00  0.93827000000E+00 0. -1.
     999902    2    1    2    0    0 -0.19892347656E-01 -0.11210024021E-01 -0.64874931106E-02  0.10201927360E+01  0.10199165461E+01 0.  0.
     999903    2    3    3    0    0 -0.32375794122E-01  0.37529720849E-01 -0.12011078861E+00  0.13146237622E+00  0.19977057599E-01 0.  0.
         14    1    1    2    0    0  0.19892347656E-01  0.11210024021E-01  0.64874931106E-02  0.23737263968E-01  0.00000000000E+00 0.  1.
     999901    1    3    3    0    0  0.12483446466E-01 -0.48739744871E-01  0.11362329550E+00  0.88873035981E+00  0.88000000000E+00 0.  1.
        -11    1    4    4    0    0 -0.31120400088E-01  0.36960838301E-01 -0.97627102645E-01  0.10893068971E+00  0.51100000000E-03 0. -1.
         11    1    4    4    0    0 -0.12553940341E-02  0.56888254845E-03 -0.22483685962E-01  0.22531686510E-01  0.51100000000E-03 0.  1.
</event>
<event>
 8    1  0.1064839E+005  0.1043930E+01  0.7957747E-01            NaN
         13   -1    0    0    0    0  0.00000000000E+00  0.00000000000E+00  0.74505805969E-08  0.10566000000E+00  0.10566000000E+00 0. -1.
     999900   -1    0    0    0    0 -0.00000000000E+00 -0.00000000000E+00 -0.74505805969E-08  0.93827000000E+00  0.93827000000E+00 0.  1.
     999902    2    1    2    0    0  0.23613079312E-01  0.34066780658E-03 -0.53549160673E-03  0.10203083929E+01  0.10200349192E+01 0.  0.
     999903    2    3    3    0    0  0.69309837210E-01 -0.36745541583E-01 -0.10545370034E+00  0.13212405895E+00  0.13497987943E-01 0.  0.
         14    1    1    2    0    0 -0.23613079312E-01 -0.34066780658E-03  0.53549160673E-03  0.23621607067E-01  0.00000000000E+00 0. -1.
     999901    1    3    3    0    0 -0.45696757898E-01  0.37086209389E-01  0.10491820873E+00  0.88818433398E+00  0.88000000000E+00 0. -1.
        -11    1    4    4    0    0  0.46597217618E-01 -0.29776864221E-01 -0.80506581834E-01  0.97670533797E-01  0.51100000000E-03 0.  1.
         11    1    4    4    0    0  0.22712619592E-01 -0.69686773614E-02 -0.24947118503E-01  0.34453525153E-01  0.51100000000E-03 0. -1.
</event>
<event>
 8    1  0.1064839E+005  0.1043930E+01  0.7957747E-01            NaN
         13   -1    0    0    0    0  0.00000000000E+00  0.00000000000E+00  0.74505805969E-08  0.10566000000E+00  0.10566000000E+00 0. -1.
     999900   -1    0    0    0    0 -0.00000000000E+00 -0.00000000000E+00 -0.74505805969E-08  0.93827000000E+00  0.93827000000E+00 0. -1.
     999902    2    1    2    0    0  0.21448033589E-01 -0.45218635602E-02 -0.78091316531E-02  0.10206609662E+01  0.10203956880E+01 0.  0.
     999903    2    3    3    0    0  0.10976755131E+00  0.72012461581E-01 -0.21154298759E-02  0.13291648815E+00  0.20678680700E-01 0.  0.
         14    1    1    2    0    0 -0.21448033589E-01  0.45218635602E-02  0.78091316531E-02  0.23269033759E-01  0.00000000000E+00 0.  1.
     999901    1    3    3    0    0 -0.88319517723E-01 -0.76534325141E-01 -0.56937017773E-02  0.88774447809E+00  0.88000000000E+00 0.  1.
        -11    1    4    4    0    0  0.52934063908E-01  0.40104138226E-01 -0.10364779120E-01  0.67216417577E-01  0.51100000000E-03 0.  1.
         11    1    4    4    0    0  0.56833487404E-01  0.31908323355E-01  0.82493492440E-02  0.65700070577E-01  0.51100000000E-03 0. -1.
</event>
<event>
 8    1  0.1064839E+005  0.1043930E+01  0.7957747E-01            NaN
         13   -1    0    0    0    0  0.00000000000E+00  0.00000000000E+00  0.74505805969E-08  0.10566000000E+00  0.10566000000E+00 0.  1.
     999900   -1    0    0    0    0 -0.00000000000E+00 -0.00000000000E+00 -0.74505805969E-08  0.93827000000E+00  0.93827000000E+00 0. -1.
     999902    2    1    2    0    0  0.11308065458E-02  0.12387250592E-01  0.21370603089E-01  0.10192029829E+01  0.10189029860E+01 0.  0.
     999903    2    3    3    0    0  0.11401346287E+00  0.59329671059E-01 -0.74842190930E-02  0.13028302824E+00  0.19964326428E-01 0.  0.
         14    1    1    2    0    0 -0.11308065458E-02 -0.12387250592E-01 -0.21370603089E-01  0.24727017148E-01  0.00000000000E+00 0. -1.
     999901    1    3    3    0    0 -0.11288265632E+00 -0.46942420467E-01  0.28854822182E-01  0.88891995461E+00  0.88000000000E+00 0.  1.
        -11    1    4    4    0    0  0.26520416285E-01  0.64766781325E-02 -0.64621532609E-02  0.28058873557E-01  0.51100000000E-03 0.  1.
         11    1    4    4    0    0  0.87493046583E-01  0.52852992926E-01 -0.10220658321E-02  0.10222415469E+00  0.51100000000E-03 0. -1.
</event>
<event>
 8    1  0.1064839E+005  0.1043930E+01  0.7957747E-01            NaN
         13   -1    0    0    0    0  0.00000000000E+00  0.00000000000E+00  0.74505805969E-08  0.10566000000E+00  0.10566000000E+00 0. -1.
     999900   -1    0    0    0    0 -0.00000000000E+00 -0.00000000000E+00 -0.74505805969E-08  0.93827000000E+00  0.93827000000E+00 0. -1.
     999902    2    1    2    0    0  0.92721827458E-02  0.19626820107E-01 -0.98660595488E-02  0.10200862467E+01  0.10198075437E+01 0.  0.
     999903    2    3    3    0    0  0.10070801451E+00 -0.25918463357E-01  0.75342815009E-01  0.13008881048E+00  0.20801151649E-01 0.  0.
         14    1    1    2    0    0 -0.92721827458E-02 -0.19626820107E-01  0.98660595488E-02  0.23843753300E-01  0.00000000000E+00 0.  1.
     999901    1    3    3    0    0 -0.91435831761E-01  0.45545283464E-01 -0.85208874558E-01  0.88999743622E+00  0.88000000000E+00 0. -1.
        -11    1    4    4    0    0  0.37318181067E-01 -0.19604645269E-01  0.33809007701E-01  0.54039789757E-01  0.51100000000E-03 0.  1.
         11    1    4    4    0    0  0.63389833440E-01 -0.63138180873E-02  0.41533807308E-01  0.76049020722E-01  0.51100000000E-03 0. -1.
</event>
<event>
 8    1  0.1064839E+005  0.1043930E+01  0.7957747E-01            NaN
         13   -1    0    0    0    0  0.00000000000E+00  0.00000000000E+00  0.74505805969E-08  0.10566000000E+00  0.10566000000E+00 0.  1.
     999900   -1    0    0    0    0 -0.00000000000E+00 -0.00000000000E+00 -0.74505805969E-08  0.93827000000E+00  0.93827000000E+00 0.  1.
     999902    2    1    2    0    0 -0.62487215009E-02 -0.16794431643E-01  0.16979628423E-01  0.10192438250E+01  0.10189448305E+01 0.  0.
     999903    2    3    3    0    0  0.82419993120E-01  0.83101819580E-02 -0.94693618083E-01  0.12741239667E+00  0.20122701844E-01 0.  0.
         14    1    1    2    0    0  0.62487215009E-02  0.16794431643E-01 -0.16979628423E-01  0.24686174997E-01  0.00000000000E+00 0. -1.
     999901    1    3    3    0    0 -0.88668714621E-01 -0.25104613601E-01  0.11167324651E+00  0.89183142833E+00  0.88000000000E+00 0. -1.
        -11    1    4    4    0    0  0.55487091937E-01  0.15018458141E-01 -0.63646912008E-01  0.85764573022E-01  0.51100000000E-03 0. -1.
         11    1    4    4    0    0  0.26932901183E-01 -0.67082761833E-02 -0.31046706075E-01  0.41647823648E-01  0.51100000000E-03 0.  1.
</event>
<event>
 8    1  0.1064839E+005  0.1043930E+01  0.7957747E-01            NaN
         13   -1    0    0    0    0  0.00000000000E+00  0.00000000000E+00  0.74505805969E-08  0.10566000000E+00  0.10566000000E+00 0. -1.
     999900   -1    0    0    0    0 -0.00000000000E+00 -0.00000000000E+00 -0.74505805969E-08  0.93827000000E+00  0.93827000000E+00 0. -1.
     999902    2    1    2    0    0 -0.63841290624E-03  0.23606742817E-01 -0.34663124363E-02  0.10200615857E+01  0.10197822991E+01 0.  0.
     999903    2    3    3    0    0  0.54860380343E-02 -0.23230735068E-01  0.12499424320E+00  0.12948122856E+00  0.23917860494E-01 0.  0.
         14    1    1    2    0    0  0.63841290624E-03 -0.23606742817E-01  0.34663124363E-02  0.23868414261E-01  0.00000000000E+00 0. -1.
     999901    1    3    3    0    0 -0.61244509405E-02  0.46837477885E-01 -0.12846055564E+00  0.89058035718E+00  0.88000000000E+00 0. -1.
        -11    1    4    4    0    0 -0.12789194827E-02 -0.26188387795E-01  0.10245546566E+00  0.10575845524E+00  0.51100000000E-03 0. -1.
         11    1    4    4    0    0  0.67649575170E-02  0.29576527263E-02  0.22538777544E-01  0.23722773321E-01  0.51100000000E-03 0.  1.
</event>
<event>
 8    1  0.1064839E+005  0.1043930E+01  0.7957747E-01            NaN
         13   -1    0    0    0    0  0.00000000000E+00  0.00000000000E+00  0.74505805969E-08  0.10566000000E+00  0.10566000000E+00 0. -1.
     999900   -1    0    0    0    0 -0.00000000000E+00 -0.00000000000E+00 -0.74505805969E-08  0.93827000000E+00  0.93827000000E+00 0. -1.
     999902    2    1    2    0    0 -0.39219083244E-02  0.15010633425E-01 -0.18616998294E-01  0.10196958690E+01  0.10194078537E+01 0.  0.
     999903    2    3    3    0    0 -0.11771474581E+00  0.56930961906E-01 -0.36117778178E-02  0.13125269103E+00  0.10785553220E-01 0.  0.
         14    1    1    2    0    0  0.39219083244E-02 -0.15010633425E-01  0.18616998294E-01  0.24234131019E-01  0.00000000000E+00 0. -1.
     999901    1    3    3    0    0  0.11379283749E+00 -0.41920328481E-01 -0.15005220477E-01  0.88844317795E+00  0.88000000000E+00 0. -1.
        -11    1    4    4    0    0 -0.83701910332E-01  0.36962162414E-01 -0.62898801355E-02  0.91717146470E-01  0.51100000000E-03 0. -1.
         11    1    4    4    0    0 -0.34012835483E-01  0.19968799492E-01  0.26781023177E-02  0.39535544561E-01  0.51100000000E-03 0.  1.
</event>
<event>
 7    1  0.1064839E+005  0.1043930E+01  0.7957747E-01            NaN
         13   -1    0    0    0    0  0.00000000000E+00  0.00000000000E+00  0.74505805969E-08  0.10566000000E+00  0.10566000000E+00 0.  1.
     999900   -1    0    0    0    0 -0.00000000000E+00 -0.00000000000E+00 -0.74505805969E-08  0.93827000000E+00  0.93827000000E+00 0.  1.
     999902    2    1    2    0    0  0.89702408385E-02  0.13558161131E-01 -0.17230221151E-01  0.10202409841E+01  0.10199659289E+01 0.  0.
         14    1    1    2    0    0 -0.89702408385E-02 -0.13558161131E-01  0.17230221151E-01  0.23689015912E-01  0.00000000000E+00 0.  1.
     999901    1    3    3    0    0  0.90592245865E-01  0.13637627663E-01 -0.10298803480E+00  0.89072974308E+00  0.88000000000E+00 0.  1.
        -11    1    3    3    0    0 -0.40144838258E-01 -0.26256693282E-01  0.40820088658E-01  0.62988592141E-01  0.51100000000E-03 0.  1.
         11    1    3    3    0    0 -0.41477166768E-01  0.26177226750E-01  0.44937724994E-01  0.66522648865E-01  0.51100000000E-03 0. -1.
</event>
<event>
 8    1  0.1064839E+005  0.1043930E+01  0.7957747E-01            NaN
         13   -1    0    0    0    0  0.00000000000E+00  0.00000000000E+00  0.74505805969E-08  0.10566000000E+00  0.10566000000E+00 0. -1.
     999900   -1    0    0    0    0 -0.00000000000E+00 -0.00000000000E+00 -0.74505805969E-08  0.93827000000E+00  0.93827000000E+00 0.  1.
     999902    2    1    2    0    0  0.20566496275E-01  0.11140116917E-01  0.68285463927E-02  0.10195637935E+01  0.10192725921E+01 0.  0.
     999903    2    3    3    0    0 -0.10427581647E+00 -0.69345240103E-01 -0.62405337006E-02  0.12702007097E+00  0.20321071414E-01 0.  0.
         14    1    1    2    0    0 -0.20566496275E-01 -0.11140116917E-01 -0.68285463927E-02  0.24366206512E-01  0.00000000000E+00 0.  1.
     999901    1    3    3    0    0  0.12484231275E+00  0.80485357021E-01  0.13069080093E-01  0.89254372252E+00  0.88000000000E+00 0.  1.
        -11    1    4    4    0    0 -0.56350567813E-01 -0.44692521582E-01 -0.11616035566E-01  0.72856031881E-01  0.51100000000E-03 0. -1.
         11    1    4    4    0    0 -0.47925248658E-01 -0.24652718522E-01  0.53755018655E-02  0.54164039092E-01  0.51100000000E-03 0.  1.
</event>
<event>
 8    1  0.1064839E+005  0.1043930E+01  0.7957747E-01            NaN
         13   -1    0    0    0    0  0.00000000000E+00  0.00000000000E+00  0.74505805969E-08  0.10566000000E+00  0.10566000000E+00 0.  1.
     999900   -1    0    0    0    0 -0.00000000000E+00 -0.00000000000E+00 -0.74505805969E-08  0.93827000000E+00  0.93827000000E+00 0.  1.
     999902    2    1    2    0    0  0.29316576771E-02  0.84150946010E-02  0.21691426536E-01  0.10204794900E+01  0.10202100093E+01 0.  0.
     999903    2    3    3    0    0 -0.16765898128E-01  0.10916865992E+00  0.71507828721E-01  0.13311206410E+00  0.20163342755E-01 0.  0.
         14    1    1    2    0    0 -0.29316576771E-02 -0.84150946010E-02 -0.21691426536E-01  0.23450509995E-01  0.00000000000E+00 0. -1.
     999901    1    3    3    0    0  0.19697555805E-01 -0.10075356532E+00 -0.49816402185E-01  0.88736742590E+00  0.88000000000E+00 0. -1.
        -11    1    4    4    0    0 -0.10946465287E-01  0.19156705936E-01  0.13663563730E-01  0.25956859968E-01  0.51100000000E-03 0.  1.
         11    1    4    4    0    0 -0.58194328414E-02  0.90011953987E-01  0.57844264991E-01  0.10715520413E+00  0.51100000000E-03 0. -1.
</event>
<event>
 8    1  0.1064839E+005  0.1043930E+01  0.7957747E-01            NaN
         13   -1    0    0    0    0  0.00000000000E+00  0.00000000000E+00  0.74505805969E-08  0.10566000000E+00  0.10566000000E+00 0.  1.
     999900   -1    0    0    0    0 -0.00000000000E+00 -0.00000000000E+00 -0.74505805969E-08  0.93827000000E+00  0.93827000000E+00 0. -1.
     999902    2    1    2    0    0  0.12101418565E-01  0.13756520017E-01  0.15032780667E-01  0.10202304078E+01  0.10199551041E+01 0.  0.
     999903    2    3    3    0    0 -0.77095785605E-02 -0.12670527084E+00  0.79314946619E-02  0.12884249084E+00  0.20586781626E-01 0.  0.
         14    1    1    2    0    0 -0.12101418565E-01 -0.13756520017E-01 -0.15032780667E-01  0.23699592166E-01  0.00000000000E+00 0. -1.
     999901    1    3    3    0    0  0.19810997125E-01  0.14046179086E+00  0.71012860051E-02  0.89138791699E+00  0.88000000000E+00 0. -1.
        -11    1    4    4    0    0  0.97089035236E-03 -0.18398495472E-01  0.82339670940E-02  0.20186792682E-01  0.51100000000E-03 0. -1.
         11    1    4    4    0    0 -0.86804689128E-02 -0.10830677537E+00 -0.30247243211E-03  0.10865569816E+00  0.51100000000E-03 0.  1.
</event>
<event>
 8    1  0.1064839E+005  0.1043930E+01  0.7957747E-01            NaN
         13   -1    0    0    0    0  0.00000000000E+00  0.00000000000E+00  0.74505805969E-08  0.10566000000E+00  0.10566000000E+00 0. -1.
     999900   -1    0    0    0    0 -0.00000000000E+00 -0.00000000000E+00 -0.74505805969E-08  0.93827000000E+00  0.93827000000E+00 0.  1.
     999902    2    1    2    0    0  0.30899507586E-02 -0.22385671272E-01 -0.81160958038E-02  0.10199188133E+01  0.10196361354E+01 0.  0.
     999903    2    3    3    0    0 -0.10194070851E-02 -0.12806220910E-01 -0.12924468158E+00  0.13156033446E+00  0.20949830585E-01 0.  0.
         14    1    1    2    0    0 -0.30899507586E-02  0.22385671272E-01  0.81160958038E-02  0.24011186665E-01  0.00000000000E+00 0. -1.
     999901    1    3    3    0    0  0.41093578437E-02 -0.95794503615E-02  0.12112858578E+00  0.88835847887E+00  0.88000000000E+00 0. -1.
        -11    1    4    4    0    0  0.10583713302E-02 -0.13060921686E-01 -0.36391766190E-01  0.38682419683E-01  0.51100000000E-03 0. -1.
         11    1    4    4    0    0 -0.20777784153E-02  0.25470077584E-03 -0.92852915394E-01  0.92877914779E-01  0.51100000000E-03 0.  1.
</event>
<event>
 8    1  0.1064839E+005  0.1043930E+01  0.7957747E-01            NaN
         13   -1    0    0    0    0  0.00000000000E+00  0.00000000000E+00  0.74505805969E-08  0.10566000000E+00  0.10566000000E+00 0. -1.
     999900   -1    0    0    0    0 -0.00000000000E+00 -0.00000000000E+00 -0.74505805969E-08  0.93827000000E+00  0.93827000000E+00 0.  1.
     999902    2    1    2    0    0  0.21785325622E-01 -0.10826321510E-01 -0.17312990249E-02  0.10195413337E+01  0.10192495887E+01 0.  0.
     999903    2    3    3    0    0 -0.96432034512E-01  0.14913151368E-01 -0.79997452281E-01  0.12782195209E+00  0.20428404285E-01 0.  0.
         14    1    1    2    0    0 -0.21785325622E-01  0.10826321510E-01  0.17312990249E-02  0.24388666348E-01  0.00000000000E+00 0.  1.
     999901    1    3    3    0    0  0.11821736013E+00 -0.25739472878E-01  0.78266153256E-01  0.89171938156E+00  0.88000000000E+00 0. -1.
        -11    1    4    4    0    0 -0.24417598739E-01 -0.44953950843E-02 -0.24202129286E-01  0.34676099667E-01  0.51100000000E-03 0. -1.
         11    1    4    4    0    0 -0.72014435773E-01  0.19408546453E-01 -0.55795322996E-01  0.93145852427E-01  0.51100000000E-03 0.  1.
</event>
<event>
 8    1  0.1064839E+005  0.1043930E+01  0.7957747E-01            NaN
         13   -1    0    0    0    0  0.00000000000E+00  0.00000000000E+00  0.74505805969E-08  0.10566000000E+00  0.10566000000E+00 0.  1.
     999900   -1    0    0    0    0 -0.00000000000E+00 -0.00000000000E+00 -0.74505805969E-08  0.93827000000E+00  0.93827000000E+00 0. -1.
     999902    2    1    2    0    0  0.10242306595E-01  0.19259194484E-01 -0.93393349776E-02  0.10202014393E+01  0.10199254542E+01 0.  0.
     999903    2    3    3    0    0  0.80248278847E-01 -0.31549311104E-01  0.94966107066E-01  0.12982962613E+00  0.20050562113E-01 0.  0.
         14    1    1    2    0    0 -0.10242306595E-01 -0.19259194484E-01  0.93393349776E-02  0.23728560731E-01  0.00000000000E+00 0. -1.
     999901    1    3    3    0    0 -0.70005972252E-01  0.50808505588E-01 -0.10430544204E+00  0.89037181314E+00  0.88000000000E+00 0. -1.
        -11    1    4    4    0    0  0.39700771970E-01 -0.26274552727E-01  0.52620238554E-01  0.70962342425E-01  0.51100000000E-03 0.  1.
         11    1    4    4    0    0  0.40547506877E-01 -0.52747583774E-02  0.42345868512E-01  0.58867283706E-01  0.51100000000E-03 0. -1.
</event>
<event>
 8    1  0.1064839E+005  0.1043930E+01  0.7957747E-01            NaN
         13   -1    0    0    0    0  0.00000000000E+00  0.00000000000E+00  0.74505805969E-08  0.10566000000E+00  0.10566000000E+00 0. -1.
     999900   -1    0    0    0    0 -0.00000000000E+00 -0.00000000000E+00 -0.74505805969E-08  0.93827000000E+00  0.93827000000E+00 0. -1.
     999902    2    1    2    0    0  0.23044809574E-01  0.52159547079E-02 -0.75059062467E-02  0.10191387100E+01  0.10188371323E+01 0.  0.
     999903    2    3    3    0    0  0.45076973092E-01  0.11966699346E+00  0.17978809272E-01  0.13108807673E+00  0.22554898645E-01 0.  0.
         14    1    1    2    0    0 -0.23044809574E-01 -0.52159547079E-02  0.75059062467E-02  0.24791290011E-01  0.00000000000E+00 0.  1.
     999901    1    3    3    0    0 -0.22032163518E-01 -0.11445103875E+00 -0.25484715519E-01  0.88805063326E+00  0.88000000000E+00 0.  1.
        -11    1    4    4    0    0  0.80896421966E-02  0.30038922462E-01  0.13800566985E-01  0.34036685262E-01  0.51100000000E-03 0. -1.
         11    1    4    4    0    0  0.36987330895E-01  0.89628070995E-01  0.41782422876E-02  0.97051391472E-01  0.51100000000E-03 0.  1.
</event>
<event>
 8    1  0.1064839E+005  0.1043930E+01  0.7957747E-01            NaN
         13   -1    0    0    0    0  0.00000000000E+00  0.00000000000E+00  0.74505805969E-08  0.10566000000E+00  0.10566000000E+00 0. -1.
     999900   -1    0    0    0    0 -0.00000000000E+00 -0.00000000000E+00 -0.74505805969E-08  0.93827000000E+00  0.93827000000E+00 0. -1.
     999902    2    1    2    0    0 -0.17628879522E-01  0.63610125534E-02  0.85321917969E-02  0.10233378129E+01  0.10231306080E+01 0.  0.
     999903    2    3    3    0    0  0.42006863433E-01  0.11849331984E+00  0.41341643726E-01  0.13361508285E+00  0.18401506396E-01 0.  0.
         14    1    1    2    0    0  0.17628879522E-01 -0.63610125534E-02 -0.85321917969E-02  0.20592187129E-01  0.00000000000E+00 0.  1.
     999901    1    3    3    0    0 -0.59635742955E-01 -0.11213230729E+00 -0.32809451929E-01  0.88972273002E+00  0.88000000000E+00 0. -1.
        -11    1    4    4    0    0  0.26934880625E-01  0.90493879338E-01  0.37453471312E-01  0.10157585159E+00  0.51100000000E-03 0.  1.
         11    1    4    4    0    0  0.15071982808E-01  0.27999440502E-01  0.38881724134E-02  0.32039231262E-01  0.51100000000E-03 0. -1.
</event>
<event>
 8    1  0.1064839E+005  0.1043930E+01  0.7957747E-01            NaN
         13   -1    0    0    0    0  0.00000000000E+00  0.00000000000E+00  0.74505805969E-08  0.10566000000E+00  0.10566000000E+00 0. -1.
     999900   -1    0    0    0    0 -0.00000000000E+00 -0.00000000000E+00 -0.74505805969E-08  0.93827000000E+00  0.93827000000E+00 0. -1.
     999902    2    1    2    0    0 -0.60935734065E-02 -0.22105980948E-01  0.76590490439E-02  0.10197542464E+01  0.10194676336E+01 0.  0.
     999903    2    3    3    0    0 -0.91703582086E-01  0.55407246077E-01  0.70842080810E-01  0.12996243396E+00  0.19802119662E-01 0.  0.
         14    1    1    2    0    0  0.60935734065E-02  0.22105980948E-01 -0.76590490439E-02  0.24175753614E-01  0.00000000000E+00 0.  1.
     999901    1    3    3    0    0  0.85610008680E-01 -0.77513227025E-01 -0.63183031766E-01  0.88979181242E+00  0.88000000000E+00 0.  1.
        -11    1    4    4    0    0 -0.45771252623E-01  0.20687096273E-01  0.23683923439E-01  0.55535149854E-01  0.51100000000E-03 0. -1.
         11    1    4    4    0    0 -0.45932329464E-01  0.34720149804E-01  0.47158157371E-01  0.74427284110E-01  0.51100000000E-03 0.  1.
</event>
<event>
 8    1  0.1064839E+005  0.1043930E+01  0.7957747E-01            NaN
         13   -1    0    0    0    0  0.00000000000E+00  0.00000000000E+00  0.74505805969E-08  0.10566000000E+00  0.10566000000E+00 0.  1.
     999900   -1    0    0    0    0 -0.00000000000E+00 -0.00000000000E+00 -0.74505805969E-08  0.93827000000E+00  0.93827000000E+00 0. -1.
     999902    2    1    2    0    0  0.19035663034E-02 -0.13938422068E-01 -0.23509560502E-01  0.10165328722E+01  0.10161636078E+01 0.  0.
     999903    2    3    3    0    0  0.25505119384E-01 -0.11487168705E+00  0.45688242284E-01  0.12775118184E+00  0.19670622200E-01 0.  0.
         14    1    1    2    0    0 -0.19035663034E-02  0.13938422068E-01  0.23509560502E-01  0.27397127758E-01  0.00000000000E+00 0.  1.
     999901    1    3    3    0    0 -0.23601553080E-01  0.10093326498E+00 -0.69197802786E-01  0.88878169040E+00  0.88000000000E+00 0. -1.
        -11    1    4    4    0    0  0.21712321480E-01 -0.10057473543E+00  0.32434949294E-01  0.10788414790E+00  0.51100000000E-03 0. -1.
         11    1    4    4    0    0  0.37927979033E-02 -0.14296951620E-01  0.13253292989E-01  0.19867033942E-01  0.51100000000E-03 0.  1.
</event>
<event>
 8    1  0.1064839E+005  0.1043930E+01  0.7957747E-01            NaN
         13   -1    0    0    0    0  0.00000000000E+00  0.00000000000E+00  0.74505805969E-08  0.10566000000E+00  0.10566000000E+00 0.  1.
     999900   -1    0    0    0    0 -0.00000000000E+00 -0.00000000000E+00 -0.74505805969E-08  0.93827000000E+00  0.93827000000E+00 0.  1.
     999902    2    1    2    0    0 -0.96363931797E-02 -0.16415765446E-01 -0.13801994710E-01  0.10204176099E+01  0.10201466886E+01 0.  0.
     999903    2    3    3    0    0  0.10094875226E+00 -0.79740992017E-01  0.13123228561E-01  0.13083111815E+00  0.19881799684E-01 0.  0.
         14    1    1    2    0    0  0.96363931797E-02  0.16415765446E-01  0.13801994710E-01  0.23512390067E-01  0.00000000000E+00 0.  1.
     999901    1    3    3    0    0 -0.11058514544E+00  0.63325226571E-01 -0.26925223271E-01  0.88958649178E+00  0.88000000000E+00 0. -1.
        -11    1    4    4    0    0  0.38571456705E-01 -0.18673423725E-01  0.53795028157E-02  0.43193219347E-01  0.51100000000E-03 0. -1.
         11    1    4    4    0    0  0.62377295553E-01 -0.61067568292E-01  0.77437257456E-02  0.87637898805E-01  0.51100000000E-03 0.  1.
</event>
<event>
 8    1  0.1064839E+005  0.1043930E+01  0.7957747E-01            NaN
         13   -1    0    0    0    0  0.00000000000E+00  0.00000000000E+00  0.74505805969E-08  0.10566000000E+00  0.10566000000E+00 0. -1.
     999900   -1    0    0    0    0 -0.00000000000E+00 -0.00000000000E+00 -0.74505805969E-08  0.93827000000E+00  0.93827000000E+00 0.  1.
     999902    2    1    2    0    0  0.16041187425E-01  0.41800504990E-02 -0.16299599474E-01  0.10206820010E+01  0.10204172076E+01 0.  0.
     999903    2    3    3    0    0  0.59735131950E-01  0.10487921912E+00  0.48815545229E-01  0.13147478922E+00  0.18295522739E-01 0.  0.
         14    1    1    2    0    0 -0.16041187425E-01 -0.41800504990E-02  0.16299599474E-01  0.23247999036E-01  0.00000000000E+00 0. -1.
     999901    1    3    3    0    0 -0.43693944525E-01 -0.10069916862E+00 -0.65115144703E-01  0.88920721174E+00  0.88000000000E+00 0.  1.
        -11    1    4    4    0    0  0.36369129037E-02  0.17928380523E-01  0.41325287117E-02  0.18761473241E-01  0.51100000000E-03 0. -1.
         11    1    4    4    0    0  0.56098219046E-01  0.86950838596E-01  0.44683016517E-01  0.11271331598E+00  0.51100000000E-03 0.  1.
</event>
<event>
 8    1  0.1064839E+005  0.1043930E+01  0.7957747E-01            NaN
         13   -1    0    0    0    0  0.00000000000E+00  0.00000000000E+00  0.74505805969E-08  0.10566000000E+00  0.10566000000E+00 0. -1.
     999900   -1    0    0    0    0 -0.00000000000E+00 -0.00000000000E+00 -0.74505805969E-08  0.93827000000E+00  0.93827000000E+00 0. -1.
     999902    2    1    2    0    0 -0.35282490210E-02  0.23700604891E-01 -0.18350512876E-02  0.10198980499E+01  0.10196148771E+01 0.  0.
     999903    2    3    3    0    0 -0.74345827899E-01 -0.22170499631E-01  0.10185308329E+00  0.12980225899E+00  0.21348130664E-01 0.  0.
         14    1    1    2    0    0  0.35282490210E-02 -0.23700604891E-01  0.18350512876E-02  0.24031950120E-01  0.00000000000E+00 0. -1.
     999901    1    3    3    0    0  0.70817578878E-01  0.45871104523E-01 -0.10368813458E+00  0.89009579089E+00  0.88000000000E+00 0. -1.
        -11    1    4    4    0    0 -0.17270465638E-01 -0.72888593560E-02  0.40832601933E-01  0.44932827150E-01  0.51100000000E-03 0. -1.
         11    1    4    4    0    0 -0.57075362261E-01 -0.14881640275E-01  0.61020481359E-01  0.84869431839E-01  0.51100000000E-03 0.  1.
</event>
<event>
 7    1  0.1064839E+005  0.1043930E+01  0.7957747E-01            NaN
         13   -1    0    0    0    0  0.00000000000E+00  0.00000000000E+00  0.74505805969E-08  0.10566000000E+00  0.10566000000E+00 0.  1.
     999900   -1    0    0    0    0 -0.00000000000E+00 -0.00000000000E+00 -0.74505805969E-08  0.93827000000E+00  0.93827000000E+00 0. -1.
     999903    2    1    2    0    0 -0.57764286859E-01 -0.71193809693E-01 -0.50802924225E-01  0.10678365443E+00  0.20409320619E-01 0.  0.
         14    1    1    2    0    0 -0.75681376245E-03  0.31468025486E-01 -0.38583785114E-01  0.49794757443E-01  0.00000000000E+00 0. -1.
     999901    1    1    2    0    0  0.58521100622E-01  0.39725784207E-01  0.89386709339E-01  0.88735158813E+00  0.88000000000E+00 0.  1.
        -11    1    3    3    0    0 -0.36991163503E-01 -0.32438602572E-01 -0.20090787610E-01  0.53146119161E-01  0.51100000000E-03 0. -1.
         11    1    3    3    0    0 -0.20773123356E-01 -0.38755207122E-01 -0.30712136615E-01  0.53637535267E-01  0.51100000000E-03 0.  1.
</event>
<event>
 8    1  0.1064839E+005  0.1043930E+01  0.7957747E-01            NaN
         13   -1    0    0    0    0  0.00000000000E+00  0.00000000000E+00  0.74505805969E-08  0.10566000000E+00  0.10566000000E+00 0.  1.
     999900   -1    0    0    0    0 -0.00000000000E+00 -0.00000000000E+00 -0.74505805969E-08  0.93827000000E+00  0.93827000000E+00 0.  1.
     999902    2    1    2    0    0 -0.15689153790E-01 -0.62462201934E-02  0.17435236930E-01  0.10196575403E+01  0.10193686022E+01 0.  0.
     999903    2    3    3    0    0 -0.35254367296E-01  0.57503383694E-01 -0.10743023382E+00  0.12834491536E+00  0.19535931308E-01 0.  0.
         14    1    1    2    0    0  0.15689153790E-01  0.62462201934E-02 -0.17435236930E-01  0.24272459705E-01  0.00000000000E+00 0. -1.
     999901    1    3    3    0    0  0.19565213506E-01 -0.63749603887E-01  0.12486547075E+00  0.89131262493E+00  0.88000000000E+00 0. -1.
        -11    1    4    4    0    0 -0.13326385554E-01  0.13337947185E-01 -0.17236384355E-01  0.25550879705E-01  0.51100000000E-03 0. -1.
         11    1    4    4    0    0 -0.21927981741E-01  0.44165436509E-01 -0.90193849462E-01  0.10279403566E+00  0.51100000000E-03 0.  1.
</event>
<event>
 8    1  0.1064839E+005  0.1043930E+01  0.7957747E-01            NaN
         13   -1    0    0    0    0  0.00000000000E+00  0.00000000000E+00  0.74505805969E-08  0.10566000000E+00  0.10566000000E+00 0.  1.
     999900   -1    0    0    0    0 -0.00000000000E+00 -0.00000000000E+00 -0.74505805969E-08  0.93827000000E+00  0.93827000000E+00 0. -1.
     999902    2    1    2    0    0  0.18486246922E-01  0.78334700744E-03 -0.13002911867E-01  0.10213151669E+01  0.10210647578E+01 0.  0.
     999903    2    3    3    0    0 -0.65119739012E-01  0.10929389567E+00  0.18630828901E-01  0.13015570106E+00  0.20190658541E-01 0.  0.
         14    1    1    2    0    0 -0.18486246922E-01 -0.78334700744E-03  0.13002911867E-01  0.22614833071E-01  0.00000000000E+00 0.  1.
     999901    1    3    3    0    0  0.83605985934E-01 -0.10851054867E+00 -0.31633740768E-01  0.89115946587E+00  0.88000000000E+00 0. -1.
        -11    1    4    4    0    0 -0.62982753903E-02  0.29736040628E-02 -0.10559519387E-02  0.70630552534E-02  0.51100000000E-03 0.  1.
         11    1    4    4    0    0 -0.58821463622E-01  0.10632029161E+00  0.19686780840E-01  0.12309264581E+00  0.51100000000E-03 0. -1.
</event>
<event>
 8    1  0.1064839E+005  0.1043930E+01  0.7957747E-01            NaN
         13   -1    0    0    0    0  0.00000000000E+00  0.00000000000E+00  0.74505805969E-08  0.10566000000E+00  0.10566000000E+00 0. -1.
     999900   -1    0    0    0    0 -0.00000000000E+00 -0.00000000000E+00 -0.74505805969E-08  0.93827000000E+00  0.93827000000E+00 0.  1.
     999902    2    1    2    0    0  0.62241745637E-02 -0.21518319980E-01  0.11333131288E-01  0.10188258508E+01  0.10185165172E+01 0.  0.
     999903    2    3    3    0    0  0.38907872782E-01  0.10840749386E+00  0.51317721047E-01  0.12778841685E+00  0.20745209020E-01 0.  0.
         14    1    1    2    0    0 -0.62241745637E-02  0.21518319980E-01 -0.11333131288E-01  0.25104149230E-01  0.00000000000E+00 0.  1.
     999901    1    3    3    0    0 -0.32683698218E-01 -0.12992581384E+00 -0.39984589759E-01  0.89103743392E+00  0.88000000000E+00 0.  1.
        -11    1    4    4    0    0  0.17807287583E-01  0.42076191021E-01  0.97753325510E-02  0.46726048296E-01  0.51100000000E-03 0. -1.
         11    1    4    4    0    0  0.21100585199E-01  0.66331302841E-01  0.41542388496E-01  0.81062368552E-01  0.51100000000E-03 0.  1.
</event>
<event>
 8    1  0.1064839E+005  0.1043930E+01  0.7957747E-01            NaN
         13   -1    0    0    0    0  0.00000000000E+00  0.00000000000E+00  0.74505805969E-08  0.10566000000E+00  0.10566000000E+00 0.  1.
     999900   -1    0    0    0    0 -0.00000000000E+00 -0.00000000000E+00 -0.74505805969E-08  0.93827000000E+00  0.93827000000E+00 0. -1.
     999902    2    1    2    0    0 -0.23361458478E-01 -0.43491868131E-02 -0.33308854791E-02  0.10199348345E+01  0.10196525382E+01 0.  0.
     999903    2    3    3    0    0  0.13531501661E-01  0.12048292717E+00  0.40438176396E-01  0.12928345606E+00  0.19486626752E-01 0.  0.
         14    1    1    2    0    0  0.23361458478E-01  0.43491868131E-02  0.33308854791E-02  0.23995165476E-01  0.00000000000E+00 0.  1.
     999901    1    3    3    0    0 -0.36892960139E-01 -0.12483211399E+00 -0.43769061875E-01  0.89065137847E+00  0.88000000000E+00 0. -1.
        -11    1    4    4    0    0  0.77807731707E-02  0.32641633447E-01  0.19436309704E-01  0.38782056690E-01  0.51100000000E-03 0. -1.
         11    1    4    4    0    0  0.57507284906E-02  0.87841293726E-01  0.21001866693E-01  0.90501399366E-01  0.51100000000E-03 0.  1.
</event>
<event>
 8    1  0.1064839E+005  0.1043930E+01  0.7957747E-01            NaN
         13   -1    0    0    0    0  0.00000000000E+00  0.00000000000E+00  0.74505805969E-08  0.10566000000E+00  0.10566000000E+00 0. -1.
     999900   -1    0    0    0    0 -0.00000000000E+00 -0.00000000000E+00 -0.74505805969E-08  0.93827000000E+00  0.93827000000E+00 0. -1.
     999902    2    1    2    0    0 -0.18886347006E-01  0.12370750252E-01  0.17939366555E-02  0.10212816496E+01  0.10210304893E+01 0.  0.
     999903    2    3    3    0    0 -0.10214222015E+00 -0.37023706139E-01  0.74248110346E-01  0.13301313167E+00  0.19388742951E-01 0.  0.
         14    1    1    2    0    0  0.18886347006E-01 -0.12370750252E-01 -0.17939366555E-02  0.22648350354E-01  0.00000000000E+00 0.  1.
     999901    1    3    3    0    0  0.83255873149E-01  0.49394456391E-01 -0.72454173691E-01  0.88826851797E+00  0.88000000000E+00 0. -1.
        -11    1    4    4    0    0 -0.60978158065E-01 -0.25030949419E-01  0.33847888644E-01  0.74100100381E-01  0.51100000000E-03 0. -1.
         11    1    4    4    0    0 -0.41164062089E-01 -0.11992756720E-01  0.40400221703E-01  0.58913031292E-01  0.51100000000E-03 0.  1.
</event>
<event>
 8    1  0.1064839E+005  0.1043930E+01  0.7957747E-01            NaN
         13   -1    0    0    0    0  0.00000000000E+00  0.00000000000E+00  0.74505805969E-08  0.10566000000E+00  0.10566000000E+00 0. -1.
     999900   -1    0    0    0    0 -0.00000000000E+00 -0.00000000000E+00 -0.74505805969E-08  0.93827000000E+00  0.93827000000E+00 0. -1.
     999902    2    1    2    0    0  0.14970324938E-02 -0.20726510994E-01 -0.11831007577E-01  0.10200176161E+01  0.10197372873E+01 0.  0.
     999903    2    3    3    0    0 -0.58650431535E-01 -0.12803404406E-01  0.11260052499E+00  0.12919569261E+00  0.20220001914E-01 0.  0.
         14    1    1    2    0    0 -0.14970324938E-02  0.20726510994E-01  0.11831007577E-01  0.23912383916E-01  0.00000000000E+00 0.  1.
     999901    1    3    3    0    0  0.60147464028E-01 -0.79231065885E-02 -0.12443153257E+00  0.89082192347E+00  0.88000000000E+00 0. -1.
        -11    1    4    4    0    0 -0.90062531654E-02 -0.84303286990E-02  0.33505071168E-01  0.35707617577E-01  0.51100000000E-03 0. -1.
         11    1    4    4    0    0 -0.49644178369E-01 -0.43730757068E-02  0.79095453821E-01  0.93488075032E-01  0.51100000000E-03 0.  1.
</event>
<event>
 8    1  0.1064839E+005  0.1043930E+01  0.7957747E-01            NaN
         13   -1    0    0    0    0  0.00000000000E+00  0.00000000000E+00  0.74505805969E-08  0.10566000000E+00  0.10566000000E+00 0.  1.
     999900   -1    0    0    0    0 -0.00000000000E+00 -0.00000000000E+00 -0.74505805969E-08  0.93827000000E+00  0.93827000000E+00 0. -1.
     999902    2    1    2    0    0 -0.90779211073E-02 -0.20872498390E-01 -0.67702866941E-02  0.10201832819E+01  0.10199068693E+01 0.  0.
     999903    2    3    3    0    0  0.91236555406E-01  0.73218189107E-01 -0.49250861102E-01  0.12848790177E+00  0.19961996953E-01 0.  0.
         14    1    1    2    0    0  0.90779211073E-02  0.20872498390E-01  0.67702866941E-02  0.23746718144E-01  0.00000000000E+00 0. -1.
     999901    1    3    3    0    0 -0.10031447651E+00 -0.94090687498E-01  0.42480574408E-01  0.89169538009E+00  0.88000000000E+00 0.  1.
        -11    1    4    4    0    0  0.19567344502E-01  0.22222310156E-01 -0.50371028200E-02  0.30039067319E-01  0.51100000000E-03 0.  1.
         11    1    4    4    0    0  0.71669210904E-01  0.50995878951E-01 -0.44213758282E-01  0.98448834447E-01  0.51100000000E-03 0. -1.
</event>
<event>
 8    1  0.1064839E+005  0.1043930E+01  0.7957747E-01            NaN
         13   -1    0    0    0    0  0.00000000000E+00  0.00000000000E+00  0.74505805969E-08  0.10566000000E+00  0.10566000000E+00 0. -1.
     999900   -1    0    0    0    0 -0.00000000000E+00 -0.00000000000E+00 -0.74505805969E-08  0.93827000000E+00  0.93827000000E+00 0.  1.
     999902    2    1    2    0    0  0.18656627259E-01 -0.13062798046E-02 -0.15173440146E-01  0.10198466158E+01  0.10195622151E+01 0.  0.
     999903    2    3    3    0    0  0.11121886871E+00 -0.85289085618E-02 -0.70702451414E-01  0.13322188912E+00  0.17517307585E-01 0.  0.
         14    1    1    2    0    0 -0.18656627259E-01  0.13062798046E-02  0.15173440146E-01  0.24083384178E-01  0.00000000000E+00 0.  1.
     999901    1    3    3    0    0 -0.92562241456E-01  0.72226287572E-02  0.55529011268E-01  0.88662472670E+00  0.88000000000E+00 0. -1.
        -11    1    4    4    0    0  0.36251729627E-01 -0.66980340722E-02 -0.32067522831E-01  0.48863470025E-01  0.51100000000E-03 0.  1.
         11    1    4    4    0    0  0.74967139087E-01 -0.18308744896E-02 -0.38634928583E-01  0.84358419093E-01  0.51100000000E-03 0. -1.
</event>
<event>
 8    1  0.1064839E+005  0.1043930E+01  0.7957747E-01            NaN
         13   -1    0    0    0    0  0.00000000000E+00  0.00000000000E+00  0.74505805969E-08  0.10566000000E+00  0.10566000000E+00 0. -1.
     999900   -1    0    0    0    0 -0.00000000000E+00 -0.00000000000E+00 -0.74505805969E-08  0.93827000000E+00  0.93827000000E+00 0. -1.
     999902    2    1    2    0    0  0.10339319652E-01  0.18900170028E-01  0.93401402049E-02  0.10204490252E+01  0.10201788357E+01 0.  0.
     999903    2    3    3    0    0 -0.97230289823E-01  0.13159429270E-01  0.83682980002E-01  0.13076872599E+00  0.21696053058E-01 0.  0.
         14    1    1    2    0    0 -0.10339319652E-01 -0.18900170028E-01 -0.93401402049E-02  0.23480974788E-01  0.00000000000E+00 0.  1.
     999901    1    3    3    0    0  0.10756960948E+00  0.57407407575E-02 -0.74342839797E-01  0.88968029922E+00  0.88000000000E+00 0. -1.
        -11    1    4    4    0    0 -0.27583760122E-01 -0.53075728958E-02  0.18783818624E-01  0.33795371215E-01  0.51100000000E-03 0.  1.
         11    1    4    4    0    0 -0.69646529702E-01  0.18467002166E-01  0.64899161378E-01  0.96973354779E-01  0.51100000000E-03 0. -1.
</event>
<event>
 8    1  0.1064839E+005  0.1043930E+01  0.7957747E-01            NaN
         13   -1    0    0    0    0  0.00000000000E+00  0.00000000000E+00  0.74505805969E-08  0.10566000000E+00  0.10566000000E+00 0. -1.
     999900   -1    0    0    0    0 -0.00000000000E+00 -0.00000000000E+00 -0.74505805969E-08  0.93827000000E+00  0.93827000000E+00 0.  1.
     999902    2    1    2    0    0  0.13986826788E-01  0.21500032357E-02  0.19990305530E-01  0.10194378349E+01  0.10191435782E+01 0.  0.
     999903    2    3    3    0    0  0.72758637327E-01 -0.25866368749E-01 -0.10128568651E+00  0.12873759963E+00  0.18753424427E-01 0.  0.
         14    1    1    2    0    0 -0.13986826788E-01 -0.21500032357E-02 -0.19990305530E-01  0.24492165129E-01  0.00000000000E+00 0.  1.
     999901    1    3    3    0    0 -0.58771810538E-01  0.28016371985E-01  0.12127599204E+00  0.89070023524E+00  0.88000000000E+00 0. -1.
        -11    1    4    4    0    0  0.43843471159E-01 -0.14763074254E-01 -0.74943848506E-01  0.88074059033E-01  0.51100000000E-03 0. -1.
         11    1    4    4    0    0  0.28915166168E-01 -0.11103294495E-01 -0.26341838009E-01  0.40663540597E-01  0.51100000000E-03 0.  1.
</event>
<event>
 8    1  0.1064839E+005  0.1043930E+01  0.7957747E-01            NaN
         13   -1    0    0    0    0  0.00000000000E+00  0.00000000000E+00  0.74505805969E-08  0.10566000000E+00  0.10566000000E+00 0. -1.
     999900   -1    0    0    0    0 -0.00000000000E+00 -0.00000000000E+00 -0.74505805969E-08  0.93827000000E+00  0.93827000000E+00 0.  1.
     999902    2    1    2    0    0  0.11950635584E-01  0.16707858403E-01  0.10772837765E-01  0.10207346501E+01  0.10204710685E+01 0.  0.
     999903    2    3    3    0    0  0.22135873140E-02 -0.85546383718E-01 -0.93954052678E-01  0.12859202601E+00  0.19633170989E-01 0.  0.
         14    1    1    2    0    0 -0.11950635584E-01 -0.16707858403E-01 -0.10772837765E-01  0.23195349896E-01  0.00000000000E+00 0.  1.
     999901    1    3    3    0    0  0.97370482698E-02  0.10225424212E+00  0.10472689044E+00  0.89214262409E+00  0.88000000000E+00 0.  1.
        -11    1    4    4    0    0 -0.70223904562E-02 -0.23569559617E-01 -0.33128560403E-01  0.41262582852E-01  0.51100000000E-03 0.  1.
         11    1    4    4    0    0  0.92359777702E-02 -0.61976824101E-01 -0.60825492275E-01  0.87329443160E-01  0.51100000000E-03 0. -1.
</event>
<event>
 8    1  0.1064839E+005  0.1043930E+01  0.7957747E-01            NaN
         13   -1    0    0    0    0  0.00000000000E+00  0.00000000000E+00  0.74505805969E-08  0.10566000000E+00  0.10566000000E+00 0. -1.
     999900   -1    0    0    0    0 -0.00000000000E+00 -0.00000000000E+00 -0.74505805969E-08  0.93827000000E+00  0.93827000000E+00 0.  1.
     999902    2    1    2    0    0  0.10810408132E-01  0.17124326837E-01 -0.12817645038E-01  0.10199633666E+01  0.10196817492E+01 0.  0.
     999903    2    3    3    0    0  0.12597098537E+00 -0.29612208181E-01 -0.99282425176E-02  0.13122571636E+00  0.19391921139E-01 0.  0.
         14    1    1    2    0    0 -0.10810408132E-01 -0.17124326837E-01  0.12817645038E-01  0.23966633429E-01  0.00000000000E+00 0. -1.
     999901    1    3    3    0    0 -0.11516057724E+00  0.46736535018E-01 -0.28894025205E-02  0.88873765021E+00  0.88000000000E+00 0. -1.
        -11    1    4    4    0    0  0.98343882580E-01 -0.19614107152E-01 -0.15026727317E-01  0.10140165726E+00  0.51100000000E-03 0. -1.
         11    1    4    4    0    0  0.27627102793E-01 -0.99981010284E-02  0.50984847999E-02  0.29824059099E-01  0.51100000000E-03 0.  1.
</event>
<event>
 8    1  0.1064839E+005  0.1043930E+01  0.7957747E-01            NaN
         13   -1    0    0    0    0  0.00000000000E+00  0.00000000000E+00  0.74505805969E-08  0.10566000000E+00  0.10566000000E+00 0. -1.
     999900   -1    0    0    0    0 -0.00000000000E+00 -0.00000000000E+00 -0.74505805969E-08  0.93827000000E+00  0.93827000000E+00 0.  1.
     999902    2    1    2    0    0  0.19126734116E-01 -0.12706495903E-01  0.72567041485E-02  0.10198479164E+01  0.10195635467E+01 0.  0.
     999903    2    3    3    0    0 -0.87208607135E-01 -0.93654419447E-01 -0.20559328874E-03  0.12972688135E+00  0.21272753384E-01 0.  0.
         14    1    1    2    0    0 -0.19126734116E-01  0.12706495903E-01 -0.72567041485E-02  0.24082083614E-01  0.00000000000E+00 0.  1.
     999901    1    3    3    0    0  0.10633534125E+00  0.80947923545E-01  0.74622974373E-02  0.89012103503E+00  0.88000000000E+00 0. -1.
        -11    1    4    4    0    0 -0.61976221328E-01 -0.78354455851E-01 -0.39227767394E-02  0.99980608421E-01  0.51100000000E-03 0. -1.
         11    1    4    4    0    0 -0.25232385807E-01 -0.15299963596E-01  0.37171834507E-02  0.29746272932E-01  0.51100000000E-03 0.  1.
</event>
<event>
 8    1  0.1064839E+005  0.1043930E+01  0.7957747E-01            NaN
         13   -1    0    0    0    0  0.00000000000E+00  0.00000000000E+00  0.74505805969E-08  0.10566000000E+00  0.10566000000E+00 0.  1.
     999900   -1    0    0    0    0 -0.00000000000E+00 -0.00000000000E+00 -0.74505805969E-08  0.93827000000E+00  0.93827000000E+00 0. -1.
     999902    2    1    2    0    0 -0.66969350581E-02  0.15392110436E-02  0.20739282537E-01  0.10220819806E+01  0.10218484424E+01 0.  0.
     999903    2    3    3    0    0  0.10638963503E+00  0.84146050452E-02 -0.71565040383E-01  0.13003045107E+00  0.19919919189E-01 0.  0.
         14    1    1    2    0    0  0.66969350581E-02 -0.15392110436E-02 -0.20739282537E-01  0.21848019360E-01  0.00000000000E+00 0. -1.
     999901    1    3    3    0    0 -0.11308657009E+00 -0.68753940016E-02  0.92304322920E-01  0.89205152957E+00  0.88000000000E+00 0.  1.
        -11    1    4    4    0    0  0.55069595306E-01  0.13457902753E-01 -0.42312957029E-01  0.70741946024E-01  0.51100000000E-03 0. -1.
         11    1    4    4    0    0  0.51320039725E-01 -0.50432977081E-02 -0.29252083354E-01  0.59288505047E-01  0.51100000000E-03 0.  1.
</event>
<event>
 8    1  0.1064839E+005  0.1043930E+01  0.7957747E-01            NaN
         13   -1    0    0    0    0  0.00000000000E+00  0.00000000000E+00  0.74505805969E-08  0.10566000000E+00  0.10566000000E+00 0.  1.
     999900   -1    0    0    0    0 -0.00000000000E+00 -0.00000000000E+00 -0.74505805969E-08  0.93827000000E+00  0.93827000000E+00 0. -1.
     999902    2    1    2    0    0  0.37147162656E-02  0.19371664253E-01 -0.12747087885E-01  0.10204449251E+01  0.10201746402E+01 0.  0.
     999903    2    3    3    0    0 -0.91737308842E-03 -0.11819038336E+00 -0.45291842500E-01  0.12915151986E+00  0.25670134262E-01 0.  0.
         14    1    1    2    0    0 -0.37147162656E-02 -0.19371664253E-01  0.12747087885E-01  0.23485074886E-01  0.00000000000E+00 0.  1.
     999901    1    3    3    0    0  0.46320893540E-02  0.13756204761E+00  0.32544754615E-01  0.89129340525E+00  0.88000000000E+00 0. -1.
        -11    1    4    4    0    0  0.86816472735E-03 -0.38585577342E-01 -0.23167507037E-02  0.38668190333E-01  0.51100000000E-03 0. -1.
         11    1    4    4    0    0 -0.17855378158E-02 -0.79604806018E-01 -0.42975091796E-01  0.90483329528E-01  0.51100000000E-03 0.  1.
</event>
<event>
 8    1  0.1064839E+005  0.1043930E+01  0.7957747E-01            NaN
         13   -1    0    0    0    0  0.00000000000E+00  0.00000000000E+00  0.74505805969E-08  0.10566000000E+00  0.10566000000E+00 0.  1.
     999900   -1    0    0    0    0 -0.00000000000E+00 -0.00000000000E+00 -0.74505805969E-08  0.93827000000E+00  0.93827000000E+00 0.  1.
     999902    2    1    2    0    0 -0.15401575933E-01 -0.14051345894E-01  0.11279623551E-01  0.10202260178E+01  0.10199506109E+01 0.  0.
     999903    2    3    3    0    0  0.77267777554E-01  0.67844758826E-01 -0.72941978597E-01  0.12759627416E+00  0.19673743645E-01 0.  0.
         14    1    1    2    0    0  0.15401575933E-01  0.14051345894E-01 -0.11279623551E-01  0.23703982157E-01  0.00000000000E+00 0. -1.
     999901    1    3    3    0    0 -0.92669353487E-01 -0.81896104720E-01  0.84221602147E-01  0.89262974369E+00  0.88000000000E+00 0. -1.
        -11    1    4    4    0    0  0.57908786768E-01  0.56009214568E-01 -0.47597096452E-01  0.93574592776E-01  0.51100000000E-03 0. -1.
         11    1    4    4    0    0  0.19358990786E-01  0.11835544258E-01 -0.25344882145E-01  0.34021681382E-01  0.51100000000E-03 0.  1.
</event>
<event>
 8    1  0.1064839E+005  0.1043930E+01  0.7957747E-01            NaN
         13   -1    0    0    0    0  0.00000000000E+00  0.00000000000E+00  0.74505805969E-08  0.10566000000E+00  0.10566000000E+00 0.  1.
     999900   -1    0    0    0    0 -0.00000000000E+00 -0.00000000000E+00 -0.74505805969E-08  0.93827000000E+00  0.93827000000E+00 0.  1.
     999902    2    1    2    0    0  0.14754665871E-01  0.15137242198E-01  0.11561937544E-01  0.10198361280E+01  0.10195514766E+01 0.  0.
     999903    2    3    3    0    0  0.31320803574E-02 -0.12217856501E+00  0.35624486902E-01  0.12878634173E+00  0.19478348865E-01 0.  0.
         14    1    1    2    0    0 -0.14754665871E-01 -0.15137242198E-01 -0.11561937544E-01  0.24093871962E-01  0.00000000000E+00 0.  1.
     999901    1    3    3    0    0  0.11622585514E-01  0.13731580720E+00 -0.24062549358E-01  0.89104978631E+00  0.88000000000E+00 0.  1.
        -11    1    4    4    0    0 -0.88736467412E-03 -0.26092238234E-01  0.16026000602E-01  0.30637985058E-01  0.51100000000E-03 0.  1.
         11    1    4    4    0    0  0.40194450315E-02 -0.96086326772E-01  0.19598486300E-01  0.98148356670E-01  0.51100000000E-03 0. -1.
</event>
<event>
 8    1  0.1064839E+005  0.1043930E+01  0.7957747E-01            NaN
         13   -1    0    0    0    0  0.00000000000E+00  0.00000000000E+00  0.74505805969E-08  0.10566000000E+00  0.10566000000E+00 0.  1.
     999900   -1    0    0    0    0 -0.00000000000E+00 -0.00000000000E+00 -0.74505805969E-08  0.93827000000E+00  0.93827000000E+00 0.  1.
     999902    2    1    2    0    0 -0.15835100090E-01 -0.17312121837E-01 -0.86058655266E-03  0.10204523390E+01  0.10201822267E+01 0.  0.
     999903    2    3    3    0    0  0.72529683319E-01 -0.92711745765E-03  0.10575524106E+00  0.12947324944E+00  0.17825173200E-01 0.  0.
         14    1    1    2    0    0  0.15835100090E-01  0.17312121837E-01  0.86058655266E-03  0.23477661011E-01  0.00000000000E+00 0.  1.
     999901    1    3    3    0    0 -0.88364783409E-01 -0.16385004379E-01 -0.10661582761E+00  0.89097908955E+00  0.88000000000E+00 0. -1.
        -11    1    4    4    0    0  0.18413787018E-01  0.67097609214E-02  0.34365742324E-01  0.39564552449E-01  0.51100000000E-03 0. -1.
         11    1    4    4    0    0  0.54115896302E-01 -0.76368783790E-02  0.71389498736E-01  0.89908696991E-01  0.51100000000E-03 0.  1.
</event>
<event>
 8    1  0.1064839E+005  0.1043930E+01  0.7957747E-01            NaN
         13   -1    0    0    0    0  0.00000000000E+00  0.00000000000E+00  0.74505805969E-08  0.10566000000E+00  0.10566000000E+00 0. -1.
     999900   -1    0    0    0    0 -0.00000000000E+00 -0.00000000000E+00 -0.74505805969E-08  0.93827000000E+00  0.93827000000E+00 0. -1.
     999902    2    1    2    0    0 -0.10727759669E-01  0.19880324156E-01 -0.37349245259E-02  0.10210332365E+01  0.10207764732E+01 0.  0.
     999903    2    3    3    0    0 -0.34428869234E-01  0.12749225832E+00  0.86368965238E-02  0.13407487622E+00  0.21490776736E-01 0.  0.
         14    1    1    2    0    0  0.10727759669E-01 -0.19880324156E-01  0.37349245259E-02  0.22896763467E-01  0.00000000000E+00 0.  1.
     999901    1    3    3    0    0  0.23701109565E-01 -0.10761193416E+00 -0.12371821050E-01  0.88695836031E+00  0.88000000000E+00 0.  1.
        -11    1    4    4    0    0 -0.19222751543E-01  0.97164652372E-01 -0.54810941933E-04  0.99049219950E-01  0.51100000000E-03 0.  1.
         11    1    4    4    0    0 -0.15206117691E-01  0.30327605946E-01  0.86917074657E-02  0.35025656272E-01  0.51100000000E-03 0. -1.
</event>
<event>
 8    1  0.1064839E+005  0.1043930E+01  0.7957747E-01            NaN
         13   -1    0    0    0    0  0.00000000000E+00  0.00000000000E+00  0.74505805969E-08  0.10566000000E+00  0.10566000000E+00 0. -1.
     999900   -1    0    0    0    0 -0.00000000000E+00 -0.00000000000E+00 -0.74505805969E-08  0.93827000000E+00  0.93827000000E+00 0.  1.
     999902    2    1    2    0    0 -0.20847168311E-01 -0.27203748526E-02 -0.95286998194E-02  0.10208475178E+01  0.10205865243E+01 0.  0.
     999903    2    3    3    0    0 -0.70460524326E-01  0.66030043746E-01  0.87062044204E-01  0.13151187978E+00  0.19771768198E-01 0.  0.
         14    1    1    2    0    0  0.20847168311E-01  0.27203748526E-02  0.95286998194E-02  0.23082482236E-01  0.00000000000E+00 0.  1.
     999901    1    3    3    0    0  0.49613356015E-01 -0.68750418599E-01 -0.96590744023E-01  0.88933563798E+00  0.88000000000E+00 0.  1.
        -11    1    4    4    0    0 -0.28411763965E-01  0.23654165666E-01  0.21201960916E-01  0.42620794838E-01  0.51100000000E-03 0.  1.
         11    1    4    4    0    0 -0.42048760361E-01  0.42375878080E-01  0.65860083288E-01  0.88891084944E-01  0.51100000000E-03 0. -1.
</event>
<event>
 8    1  0.1064839E+005  0.1043930E+01  0.7957747E-01            NaN
         13   -1    0    0    0    0  0.00000000000E+00  0.00000000000E+00  0.74505805969E-08  0.10566000000E+00  0.10566000000E+00 0.  1.
     999900   -1    0    0    0    0 -0.00000000000E+00 -0.00000000000E+00 -0.74505805969E-08  0.93827000000E+00  0.93827000000E+00 0.  1.
     999902    2    1    2    0    0 -0.95065966745E-02 -0.27945204568E-02 -0.22652811141E-01  0.10192048190E+01  0.10189048672E+01 0.  0.
     999903    2    3    3    0    0 -0.27778111728E-01  0.11108884196E+00 -0.59581647626E-01  0.13091038159E+00  0.21799104886E-01 0.  0.
         14    1    1    2    0    0  0.95065966745E-02  0.27945204568E-02  0.22652811141E-01  0.24725181041E-01  0.00000000000E+00 0.  1.
     999901    1    3    3    0    0  0.18271515053E-01 -0.11388336242E+00  0.36928836485E-01  0.88829443737E+00  0.88000000000E+00 0.  1.
        -11    1    4    4    0    0 -0.17394739247E-02  0.12548437772E-01 -0.15061443579E-01  0.19687490032E-01  0.51100000000E-03 0. -1.
         11    1    4    4    0    0 -0.26038637803E-01  0.98540404192E-01 -0.44520204046E-01  0.11122289156E+00  0.51100000000E-03 0.  1.
</event>
<event>
 8    1  0.1064839E+005  0.1043930E+01  0.7957747E-01            NaN
         13   -1    0    0    0    0  0.00000000000E+00  0.00000000000E+00  0.74505805969E-08  0.10566000000E+00  0.10566000000E+00 0. -1.
     999900   -1    0    0    0    0 -0.00000000000E+00 -0.00000000000E+00 -0.74505805969E-08  0.93827000000E+00  0.93827000000E+00 0.  1.
     999902    2    1    2    0    0  0.43939767373E-03 -0.17999424542E-01  0.15176725716E-01  0.10203820626E+01  0.10201103118E+01 0.  0.
     999903    2    3    3    0    0  0.50532572706E-01  0.10050912322E+00 -0.57760140460E-01  0.12804054245E+00  0.20062949173E-01 0.  0.
         14    1    1    2    0    0 -0.43939767373E-03  0.17999424542E-01 -0.15176725716E-01  0.23547937438E-01  0.00000000000E+00 0.  1.
     999901    1    3    3    0    0 -0.50093175032E-01 -0.11850854776E+00  0.72936866175E-01  0.89234152012E+00  0.88000000000E+00 0.  1.
        -11    1    4    4    0    0  0.16653124358E-01  0.51327189069E-01 -0.33892064503E-01  0.63723936209E-01  0.51100000000E-03 0.  1.
         11    1    4    4    0    0  0.33879448348E-01  0.49181934148E-01 -0.23868075956E-01  0.64316606237E-01  0.51100000000E-03 0. -1.
</event>
<event>
 8    1  0.1064839E+005  0.1043930E+01  0.7957747E-01            NaN
         13   -1    0    0    0    0  0.00000000000E+00  0.00000000000E+00  0.74505805969E-08  0.10566000000E+00  0.10566000000E+00 0. -1.
     999900   -1    0    0    0    0 -0.00000000000E+00 -0.00000000000E+00 -0.74505805969E-08  0.93827000000E+00  0.93827000000E+00 0.  1.
     999902    2    1    2    0    0  0.35550244700E-02 -0.16745229210E-01 -0.15921207432E-01  0.10205521099E+01  0.10202843149E+01 0.  0.
     999903    2    3    3    0    0 -0.11695620548E+00 -0.54151720659E-01 -0.17303161789E-01  0.13155035963E+00  0.19872968104E-01 0.  0.
         14    1    1    2    0    0 -0.35550244700E-02  0.16745229210E-01  0.15921207432E-01  0.23377890118E-01  0.00000000000E+00 0. -1.
     999901    1    3    3    0    0  0.12051122995E+00  0.37406491449E-01  0.13819543564E-02  0.88900175025E+00  0.88000000000E+00 0. -1.
        -11    1    4    4    0    0 -0.54070473482E-01 -0.32561615034E-01 -0.15686658675E-01  0.65040043493E-01  0.51100000000E-03 0. -1.
         11    1    4    4    0    0 -0.62885731998E-01 -0.21590105625E-01 -0.16165031132E-02  0.66510316140E-01  0.51100000000E-03 0.  1.
</event>
<event>
 7    1  0.1064839E+005  0.1043930E+01  0.7957747E-01            NaN
         13   -1    0    0    0    0  0.00000000000E+00  0.00000000000E+00  0.74505805969E-08  0.10566000000E+00  0.10566000000E+00 0. -1.
     999900   -1    0    0    0    0 -0.00000000000E+00 -0.00000000000E+00 -0.74505805969E-08  0.93827000000E+00  0.93827000000E+00 0.  1.
     999903    2    1    2    0    0  0.65459407452E-01 -0.41402380020E-01 -0.76895421246E-01  0.11114256890E+00  0.20992229914E-01 0.  0.
         14    1    1    2    0    0  0.17075034890E-01  0.38873095672E-01 -0.12894575776E-01  0.44372789726E-01  0.00000000000E+00 0. -1.
     999901    1    1    2    0    0 -0.82534442342E-01  0.25292843483E-02  0.89789997022E-01  0.88841464138E+00  0.88000000000E+00 0.  1.
        -11    1    3    3    0    0  0.50127810415E-02 -0.39230928985E-02 -0.16992150560E-01  0.18152491105E-01  0.51100000000E-03 0. -1.
         11    1    3    3    0    0  0.60446626411E-01 -0.37479287121E-01 -0.59903270685E-01  0.92990077790E-01  0.51100000000E-03 0.  1.
</event>
<event>
 8    1  0.1064839E+005  0.1043930E+01  0.7957747E-01            NaN
         13   -1    0    0    0    0  0.00000000000E+00  0.00000000000E+00  0.74505805969E-08  0.10566000000E+00  0.10566000000E+00 0.  1.
     999900   -1    0    0    0    0 -0.00000000000E+00 -0.00000000000E+00 -0.74505805969E-08  0.93827000000E+00  0.93827000000E+00 0.  1.
     999902    2    1    2    0    0  0.20575189003E-01  0.13091748329E-01  0.70548075985E-02  0.10185429445E+01  0.10182265108E+01 0.  0.
     999903    2    3    3    0    0  0.73331996210E-01  0.28590237662E-01 -0.10172133430E+00  0.13014228437E+00  0.19869599160E-01 0.  0.
         14    1    1    2    0    0 -0.20575189003E-01 -0.13091748329E-01 -0.70548075985E-02  0.25387055502E-01  0.00000000000E+00 0.  1.
     999901    1    3    3    0    0 -0.52756807207E-01 -0.15498489333E-01  0.10877614190E+00  0.88840066013E+00  0.88000000000E+00 0. -1.
        -11    1    4    4    0    0  0.32353447823E-01  0.30174103887E-02 -0.47118175274E-01  0.57238395450E-01  0.51100000000E-03 0.  1.
         11    1    4    4    0    0  0.40978548387E-01  0.25572827273E-01 -0.54603159024E-01  0.72903888916E-01  0.51100000000E-03 0. -1.
</event>
<event>
 8    1  0.1064839E+005  0.1043930E+01  0.7957747E-01            NaN
         13   -1    0    0    0    0  0.00000000000E+00  0.00000000000E+00  0.74505805969E-08  0.10566000000E+00  0.10566000000E+00 0.  1.
     999900   -1    0    0    0    0 -0.00000000000E+00 -0.00000000000E+00 -0.74505805969E-08  0.93827000000E+00  0.93827000000E+00 0. -1.
     999902    2    1    2    0    0 -0.19032767966E-01 -0.13250581244E-01 -0.67120711616E-02  0.10197871738E+01  0.10195013505E+01 0.  0.
     999903    2    3    3    0    0 -0.95413752634E-01 -0.59239661269E-01  0.66931748240E-01  0.13222170438E+00  0.19738250345E-01 0.  0.
         14    1    1    2    0    0  0.19032767966E-01  0.13250581244E-01  0.67120711616E-02  0.24142826243E-01  0.00000000000E+00 0.  1.
     999901    1    3    3    0    0  0.76380984668E-01  0.45989080025E-01 -0.73643819402E-01  0.88756546938E+00  0.88000000000E+00 0. -1.
        -11    1    4    4    0    0 -0.56614394101E-01 -0.45196234008E-01  0.37833406071E-01  0.81728311642E-01  0.51100000000E-03 0. -1.
         11    1    4    4    0    0 -0.38799358533E-01 -0.14043427261E-01  0.29098342169E-01  0.50493392734E-01  0.51100000000E-03 0.  1.
</event>
<event>
 8    1  0.1064839E+005  0.1043930E+01  0.7957747E-01            NaN
         13   -1    0    0    0    0  0.00000000000E+00  0.00000000000E+00  0.74505805969E-08  0.10566000000E+00  0.10566000000E+00 0.  1.
     999900   -1    0    0    0    0 -0.00000000000E+00 -0.00000000000E+00 -0.74505805969E-08  0.93827000000E+00  0.93827000000E+00 0.  1.
     999902    2    1    2    0    0 -0.11712784764E-02 -0.18346032806E-01 -0.14478805625E-01  0.10205294738E+01  0.10202611540E+01 0.  0.
     999903    2    3    3    0    0  0.44768914756E-01 -0.86013824876E-01 -0.89566159631E-01  0.13355284382E+00  0.20288699905E-01 0.  0.
         14    1    1    2    0    0  0.11712784764E-02  0.18346032806E-01  0.14478805625E-01  0.23400526176E-01  0.00000000000E+00 0. -1.
     999901    1    3    3    0    0 -0.45940193233E-01  0.67667792070E-01  0.75087354006E-01  0.88697663000E+00  0.88000000000E+00 0. -1.
        -11    1    4    4    0    0  0.36473032575E-03 -0.12760997383E-01 -0.69575941189E-02  0.14548034896E-01  0.51100000000E-03 0. -1.
         11    1    4    4    0    0  0.44404184431E-01 -0.73252827493E-01 -0.82608565512E-01  0.11900480893E+00  0.51100000000E-03 0.  1.
</event>
<event>
 8    1  0.1064839E+005  0.1043930E+01  0.7957747E-01            NaN
         13   -1    0    0    0    0  0.00000000000E+00  0.00000000000E+00  0.74505805969E-08  0.10566000000E+00  0.10566000000E+00 0.  1.
     999900   -1    0    0    0    0 -0.00000000000E+00 -0.00000000000E+00 -0.74505805969E-08  0.93827000000E+00  0.93827000000E+00 0. -1.
     999902    2    1    2    0    0 -0.17419584408E-01  0.46651439316E-02  0.70224427238E-02  0.10245774759E+01  0.10243946914E+01 0.  0.
     999903    2    3    3    0    0  0.97670684294E-01  0.75475694518E-01 -0.43057675913E-01  0.13285558967E+00  0.23674906930E-01 0.  0.
         14    1    1    2    0    0  0.17419584408E-01 -0.46651439316E-02 -0.70224427238E-02  0.19352524142E-01  0.00000000000E+00 0. -1.
     999901    1    3    3    0    0 -0.11509026870E+00 -0.70810550586E-01  0.50080118637E-01  0.89172188619E+00  0.88000000000E+00 0.  1.
        -11    1    4    4    0    0  0.68654378937E-01  0.63811207312E-01 -0.26197749550E-01  0.97323569233E-01  0.51100000000E-03 0. -1.
         11    1    4    4    0    0  0.29016305357E-01  0.11664487206E-01 -0.16859926363E-01  0.35532020437E-01  0.51100000000E-03 0.  1.
</event>
<event>
 8    1  0.1064839E+005  0.1043930E+01  0.7957747E-01            NaN
         13   -1    0    0    0    0  0.00000000000E+00  0.00000000000E+00  0.74505805969E-08  0.10566000000E+00  0.10566000000E+00 0.  1.
     999900   -1    0    0    0    0 -0.00000000000E+00 -0.00000000000E+00 -0.74505805969E-08  0.93827000000E+00  0.93827000000E+00 0. -1.
     999902    2    1    2    0    0 -0.90442190184E-02 -0.19832938905E-01 -0.51741945139E-02  0.10215265259E+01  0.10212808269E+01 0.  0.
     999903    2    3    3    0    0 -0.91848530173E-01  0.28925357769E-01  0.87255428218E-01  0.13148317830E+00  0.20037155596E-01 0.  0.
         14    1    1    2    0    0  0.90442190184E-02  0.19832938905E-01  0.51741945139E-02  0.22403474108E-01  0.00000000000E+00 0.  1.
     999901    1    3    3    0    0  0.82804311155E-01 -0.48758296674E-01 -0.92429622732E-01  0.89004334760E+00  0.88000000000E+00 0. -1.
        -11    1    4    4    0    0 -0.65952029790E-01  0.19902297756E-01  0.49563969452E-01  0.84868250119E-01  0.51100000000E-03 0.  1.
         11    1    4    4    0    0 -0.25896500383E-01  0.90230600137E-02  0.37691458766E-01  0.46614928178E-01  0.51100000000E-03 0. -1.
</event>
<event>
 8    1  0.1064839E+005  0.1043930E+01  0.7957747E-01            NaN
         13   -1    0    0    0    0  0.00000000000E+00  0.00000000000E+00  0.74505805969E-08  0.10566000000E+00  0.10566000000E+00 0.  1.
     999900   -1    0    0    0    0 -0.00000000000E+00 -0.00000000000E+00 -0.74505805969E-08  0.93827000000E+00  0.93827000000E+00 0. -1.
     999902    2    1    2    0    0  0.46687739224E-02  0.22468174154E-01 -0.60239525645E-02  0.10202043956E+01  0.10199284801E+01 0.  0.
     999903    2    3    3    0    0 -0.72399713273E-01 -0.14298341960E-01  0.10419197148E+00  0.12922803321E+00  0.19943835636E-01 0.  0.
         14    1    1    2    0    0 -0.46687739224E-02 -0.22468174154E-01  0.60239525645E-02  0.23725604402E-01  0.00000000000E+00 0.  1.
     999901    1    3    3    0    0  0.77068487195E-01  0.36766516114E-01 -0.11021592405E+00  0.89097636239E+00  0.88000000000E+00 0. -1.
        -11    1    4    4    0    0 -0.27100449631E-01 -0.13831293346E-01  0.50675975735E-01  0.59110529380E-01  0.51100000000E-03 0. -1.
         11    1    4    4    0    0 -0.45299263642E-01 -0.46704861391E-03  0.53515995749E-01  0.70117503827E-01  0.51100000000E-03 0.  1.
</event>
<event>
 8    1  0.1064839E+005  0.1043930E+01  0.7957747E-01            NaN
         13   -1    0    0    0    0  0.00000000000E+00  0.00000000000E+00  0.74505805969E-08  0.10566000000E+00  0.10566000000E+00 0. -1.
     999900   -1    0    0    0    0 -0.00000000000E+00 -0.00000000000E+00 -0.74505805969E-08  0.93827000000E+00  0.93827000000E+00 0.  1.
     999902    2    1    2    0    0  0.15720651692E-01  0.16578971786E-01  0.66236026261E-02  0.10201419083E+01  0.10198645203E+01 0.  0.
     999903    2    3    3    0    0 -0.78982429742E-01 -0.96549717884E-01  0.18555201149E-01  0.12778035763E+00  0.20577951205E-01 0.  0.
         14    1    1    2    0    0 -0.15720651692E-01 -0.16578971786E-01 -0.66236026261E-02  0.23788091703E-01  0.00000000000E+00 0.  1.
     999901    1    3    3    0    0  0.94703081435E-01  0.11312868967E+00 -0.11931598523E-01  0.89236155066E+00  0.88000000000E+00 0. -1.
        -11    1    4    4    0    0 -0.25179905773E-01 -0.27019977853E-01  0.14773762313E-01  0.39782308025E-01  0.51100000000E-03 0.  1.
         11    1    4    4    0    0 -0.53802523969E-01 -0.69529740031E-01  0.37814388365E-02  0.87998049608E-01  0.51100000000E-03 0. -1.
</event>
<event>
 8    1  0.1064839E+005  0.1043930E+01  0.7957747E-01            NaN
         13   -1    0    0    0    0  0.00000000000E+00  0.00000000000E+00  0.74505805969E-08  0.10566000000E+00  0.10566000000E+00 0.  1.
     999900   -1    0    0    0    0 -0.00000000000E+00 -0.00000000000E+00 -0.74505805969E-08  0.93827000000E+00  0.93827000000E+00 0.  1.
     999902    2    1    2    0    0 -0.18809832463E-01 -0.99043895317E-02 -0.11439400597E-01  0.10197894405E+01  0.10195036715E+01 0.  0.
     999903    2    3    3    0    0 -0.62630411223E-01  0.82062473570E-01 -0.78727098611E-01  0.13136061306E+00  0.20020904829E-01 0.  0.
         14    1    1    2    0    0  0.18809832463E-01  0.99043895317E-02  0.11439400597E-01  0.24140559548E-01  0.00000000000E+00 0.  1.
     999901    1    3    3    0    0  0.43820578760E-01 -0.91966863102E-01  0.67287698014E-01  0.88842882739E+00  0.88000000000E+00 0. -1.
        -11    1    4    4    0    0 -0.48362724424E-01  0.74713202350E-01 -0.64618573745E-01  0.10998562139E+00  0.51100000000E-03 0. -1.
         11    1    4    4    0    0 -0.14267686798E-01  0.73492712208E-02 -0.14108524866E-01  0.21374991671E-01  0.51100000000E-03 0.  1.
</event>
<event>
 8    1  0.1064839E+005  0.1043930E+01  0.7957747E-01            NaN
         13   -1    0    0    0    0  0.00000000000E+00  0.00000000000E+00  0.74505805969E-08  0.10566000000E+00  0.10566000000E+00 0.  1.
     999900   -1    0    0    0    0 -0.00000000000E+00 -0.00000000000E+00 -0.74505805969E-08  0.93827000000E+00  0.93827000000E+00 0. -1.
     999902    2    1    2    0    0 -0.23695986586E-01  0.65086671573E-02  0.16518950487E-02  0.10193009260E+01  0.10190033300E+01 0.  0.
     999903    2    3    3    0    0 -0.31598388271E-01  0.45808330400E-01  0.11688185219E+00  0.13088387613E+00  0.19296641816E-01 0.  0.
         14    1    1    2    0    0  0.23695986586E-01 -0.65086671573E-02 -0.16518950487E-02  0.24629073992E-01  0.00000000000E+00 0.  1.
     999901    1    3    3    0    0  0.79024016848E-02 -0.39299663242E-01 -0.11522995714E+00  0.88841704987E+00  0.88000000000E+00 0. -1.
        -11    1    4    4    0    0 -0.16733982341E-01  0.39034645772E-01  0.81205962462E-01  0.91642780381E-01  0.51100000000E-03 0.  1.
         11    1    4    4    0    0 -0.14864405930E-01  0.67736846275E-02  0.35675889727E-01  0.39241095753E-01  0.51100000000E-03 0. -1.
</event>
<event>
 8    1  0.1166655E+005  0.1043930E+01  0.7957747E-01            NaN
         13   -1    0    0    0    0  0.00000000000E+00  0.00000000000E+00  0.74505805969E-08  0.10566000000E+00  0.10566000000E+00 0. -1.
     999900   -1    0    0    0    0 -0.00000000000E+00 -0.00000000000E+00 -0.74505805969E-08  0.93827000000E+00  0.93827000000E+00 0.  1.
     999902    2    1    2    0    0  0.24785393778E-01  0.24237087621E-02  0.95554694258E-02  0.10172560969E+01  0.10169063229E+01 0.  0.
     999903    2    3    3    0    0  0.26756150616E-01  0.30690024218E-01 -0.11914408597E+00  0.12744350766E+00  0.19717130643E-01 0.  0.
         14    1    1    2    0    0 -0.24785393778E-01 -0.24237087621E-02 -0.95554694258E-02  0.26673903067E-01  0.00000000000E+00 0.  1.
     999901    1    3    3    0    0 -0.19707568377E-02 -0.28266315455E-01  0.12869955539E+00  0.88981258927E+00  0.88000000000E+00 0. -1.
        -11    1    4    4    0    0  0.18200669000E-01  0.26450841577E-01 -0.65432735063E-01  0.72887689708E-01  0.51100000000E-03 0.  1.
         11    1    4    4    0    0  0.85554816160E-02  0.42391826410E-02 -0.53711350906E-01  0.54555817951E-01  0.51100000000E-03 0. -1.
</event>
<event>
 8    1  0.1064839E+005  0.1043930E+01  0.7957747E-01            NaN
         13   -1    0    0    0    0  0.00000000000E+00  0.00000000000E+00  0.74505805969E-08  0.10566000000E+00  0.10566000000E+00 0. -1.
     999900   -1    0    0    0    0 -0.00000000000E+00 -0.00000000000E+00 -0.74505805969E-08  0.93827000000E+00  0.93827000000E+00 0.  1.
     999902    2    1    2    0    0 -0.77694882631E-02  0.13826363091E-01  0.17043473798E-01  0.10206488217E+01  0.10203832633E+01 0.  0.
     999903    2    3    3    0    0  0.15444493077E-01 -0.61822815146E-01 -0.10930296166E+00  0.12811024614E+00  0.20112307182E-01 0.  0.
         14    1    1    2    0    0  0.77694882631E-02 -0.13826363091E-01 -0.17043473798E-01  0.23281178306E-01  0.00000000000E+00 0.  1.
     999901    1    3    3    0    0 -0.23213981340E-01  0.75649178237E-01  0.12634643546E+00  0.89253857555E+00  0.88000000000E+00 0. -1.
        -11    1    4    4    0    0  0.13738145949E-01 -0.27514315134E-01 -0.66158106513E-01  0.72958415346E-01  0.51100000000E-03 0. -1.
         11    1    4    4    0    0  0.17063471276E-02 -0.34308500012E-01 -0.43144855145E-01  0.55151830795E-01  0.51100000000E-03 0.  1.
</event>
<event>
 8    1  0.1064839E+005  0.1043930E+01  0.7957747E-01            NaN
         13   -1    0    0    0    0  0.00000000000E+00  0.00000000000E+00  0.74505805969E-08  0.10566000000E+00  0.10566000000E+00 0. -1.
     999900   -1    0    0    0    0 -0.00000000000E+00 -0.00000000000E+00 -0.74505805969E-08  0.93827000000E+00  0.93827000000E+00 0. -1.
     999902    2    1    2    0    0 -0.20613274934E-01 -0.32571582858E-02  0.89839362968E-02  0.10212093641E+01  0.10209565799E+01 0.  0.
     999903    2    3    3    0    0  0.90115298883E-01  0.52120736007E-01 -0.68134973735E-01  0.12920327976E+00  0.34839268664E-01 0.  0.
         14    1    1    2    0    0  0.20613274934E-01  0.32571582858E-02 -0.89839362968E-02  0.22720635885E-01  0.00000000000E+00 0.  1.
     999901    1    3    3    0    0 -0.11072857382E+00 -0.55377894293E-01  0.77118910032E-01  0.89200608435E+00  0.88000000000E+00 0.  1.
        -11    1    4    4    0    0  0.69805538598E-01  0.38296821697E-01 -0.32686612481E-01  0.86070526474E-01  0.51100000000E-03 0.  1.
         11    1    4    4    0    0  0.20309760285E-01  0.13823914309E-01 -0.35448361255E-01  0.43132753289E-01  0.51100000000E-03 0. -1.
</event>
<event>
 8    1  0.1064839E+005  0.1043930E+01  0.7957747E-01            NaN
         13   -1    0    0    0    0  0.00000000000E+00  0.00000000000E+00  0.74505805969E-08  0.10566000000E+00  0.10566000000E+00 0. -1.
     999900   -1    0    0    0    0 -0.00000000000E+00 -0.00000000000E+00 -0.74505805969E-08  0.93827000000E+00  0.93827000000E+00 0. -1.
     999902    2    1    2    0    0  0.26240846386E-02  0.10385830321E-01  0.21133504691E-01  0.10202366188E+01  0.10199614611E+01 0.  0.
     999903    2    3    3    0    0 -0.10768441223E+00  0.54563492325E-01 -0.43665667907E-01  0.12988917928E+00  0.19783857298E-01 0.  0.
         14    1    1    2    0    0 -0.26240846386E-02 -0.10385830321E-01 -0.21133504691E-01  0.23693381189E-01  0.00000000000E+00 0.  1.
     999901    1    3    3    0    0  0.11030849687E+00 -0.44177662004E-01  0.64799172598E-01  0.89034743953E+00  0.88000000000E+00 0.  1.
        -11    1    4    4    0    0 -0.31839531077E-01  0.26509551026E-01 -0.16086514395E-01  0.44447149528E-01  0.51100000000E-03 0. -1.
         11    1    4    4    0    0 -0.75844881153E-01  0.28053941298E-01 -0.27579153512E-01  0.85442029756E-01  0.51100000000E-03 0.  1.
</event>
<event>
 8    1  0.1064839E+005  0.1043930E+01  0.7957747E-01            NaN
         13   -1    0    0    0    0  0.00000000000E+00  0.00000000000E+00  0.74505805969E-08  0.10566000000E+00  0.10566000000E+00 0. -1.
     999900   -1    0    0    0    0 -0.00000000000E+00 -0.00000000000E+00 -0.74505805969E-08  0.93827000000E+00  0.93827000000E+00 0. -1.
     999902    2    1    2    0    0 -0.13479202394E-01 -0.16093501017E-01  0.93414655063E-02  0.10209527798E+01  0.10206941882E+01 0.  0.
     999903    2    3    3    0    0 -0.28362163153E-01 -0.12885404023E+00  0.55329411255E-02  0.13362479836E+00  0.20425408579E-01 0.  0.
         14    1    1    2    0    0  0.13479202394E-01  0.16093501017E-01 -0.93414655063E-02  0.22977220240E-01  0.00000000000E+00 0. -1.
     999901    1    3    3    0    0  0.14882960758E-01  0.11276053921E+00  0.38085243808E-02  0.88732798140E+00  0.88000000000E+00 0.  1.
        -11    1    4    4    0    0 -0.79057111493E-02 -0.26518567428E-01 -0.69048892393E-02  0.28524959310E-01  0.51100000000E-03 0.  1.
         11    1    4    4    0    0 -0.20456452003E-01 -0.10233547280E+00  0.12437830365E-01  0.10509983905E+00  0.51100000000E-03 0. -1.
</event>
<event>
 8    1  0.1064839E+005  0.1043930E+01  0.7957747E-01            NaN
         13   -1    0    0    0    0  0.00000000000E+00  0.00000000000E+00  0.74505805969E-08  0.10566000000E+00  0.10566000000E+00 0.  1.
     999900   -1    0    0    0    0 -0.00000000000E+00 -0.00000000000E+00 -0.74505805969E-08  0.93827000000E+00  0.93827000000E+00 0. -1.
     999902    2    1    2    0    0  0.23683065238E-01  0.59918523250E-03  0.54384191192E-02  0.10196231490E+01  0.10193333817E+01 0.  0.
     999903    2    3    3    0    0  0.12358804129E+00 -0.42008125702E-01 -0.89207742862E-02  0.13282972684E+00  0.22923122503E-01 0.  0.
         14    1    1    2    0    0 -0.23683065238E-01 -0.59918523250E-03 -0.54384191192E-02  0.24306850979E-01  0.00000000000E+00 0. -1.
     999901    1    3    3    0    0 -0.99904976048E-01  0.42607310934E-01  0.14359193405E-01  0.88679342218E+00  0.88000000000E+00 0. -1.
        -11    1    4    4    0    0  0.52029923269E-01 -0.28679329298E-01 -0.86456637267E-02  0.60038533182E-01  0.51100000000E-03 0.  1.
         11    1    4    4    0    0  0.71558118017E-01 -0.13328796404E-01 -0.27511055946E-03  0.72791193660E-01  0.51100000000E-03 0. -1.
</event>
<event>
 8    1  0.1064839E+005  0.1043930E+01  0.7957747E-01            NaN
         13   -1    0    0    0    0  0.00000000000E+00  0.00000000000E+00  0.74505805969E-08  0.10566000000E+00  0.10566000000E+00 0. -1.
     999900   -1    0    0    0    0 -0.00000000000E+00 -0.00000000000E+00 -0.74505805969E-08  0.93827000000E+00  0.93827000000E+00 0.  1.
     999902    2    1    2    0    0 -0.27040008598E-03 -0.17276705423E-01  0.15985221417E-01  0.10203909905E+01  0.10201194481E+01 0.  0.
     999903    2    3    3    0    0 -0.70133238209E-01 -0.76502895739E-01  0.80758919880E-01  0.13326969673E+00  0.21620471055E-01 0.  0.
         14    1    1    2    0    0  0.27040008598E-03  0.17276705423E-01 -0.15985221417E-01  0.23539009542E-01  0.00000000000E+00 0.  1.
     999901    1    3    3    0    0  0.69862838123E-01  0.59226190316E-01 -0.64773698463E-01  0.88712129373E+00  0.88000000000E+00 0.  1.
        -11    1    4    4    0    0 -0.15259649528E-01 -0.27293010547E-01  0.32869117884E-01  0.45369652411E-01  0.51100000000E-03 0.  1.
         11    1    4    4    0    0 -0.54873588681E-01 -0.49209885192E-01  0.47889801996E-01  0.87900044320E-01  0.51100000000E-03 0. -1.
</event>
<event>
 8    1  0.1064839E+005  0.1043930E+01  0.7957747E-01            NaN
         13   -1    0    0    0    0  0.00000000000E+00  0.00000000000E+00  0.74505805969E-08  0.10566000000E+00  0.10566000000E+00 0.  1.
     999900   -1    0    0    0    0 -0.00000000000E+00 -0.00000000000E+00 -0.74505805969E-08  0.93827000000E+00  0.93827000000E+00 0.  1.
     999902    2    1    2    0    0  0.20955779901E-01  0.89027483646E-02 -0.71763956721E-02  0.10200573316E+01  0.10197779442E+01 0.  0.
     999903    2    3    3    0    0 -0.33965580361E-01  0.64309449230E-01 -0.10467021872E+00  0.13124278189E+00  0.31296121205E-01 0.  0.
         14    1    1    2    0    0 -0.20955779901E-01 -0.89027483646E-02  0.71763956721E-02  0.23872668358E-01  0.00000000000E+00 0.  1.
     999901    1    3    3    0    0  0.54921360262E-01 -0.55406700865E-01  0.97493823048E-01  0.88881454975E+00  0.88000000000E+00 0. -1.
        -11    1    4    4    0    0 -0.22880209119E-01  0.63238445304E-01 -0.82594297139E-01  0.10651142650E+00  0.51100000000E-03 0. -1.
         11    1    4    4    0    0 -0.11085371242E-01  0.10710039254E-02 -0.22075921581E-01  0.24731355394E-01  0.51100000000E-03 0.  1.
</event>
<event>
 8    1  0.1064839E+005  0.1043930E+01  0.7957747E-01            NaN
         13   -1    0    0    0    0  0.00000000000E+00  0.00000000000E+00  0.74505805969E-08  0.10566000000E+00  0.10566000000E+00 0. -1.
     999900   -1    0    0    0    0 -0.00000000000E+00 -0.00000000000E+00 -0.74505805969E-08  0.93827000000E+00  0.93827000000E+00 0. -1.
     999902    2    1    2    0    0  0.11500735560E-01  0.52573885316E-02 -0.18078727604E-01  0.10218676464E+01  0.10216294531E+01 0.  0.
     999903    2    3    3    0    0 -0.67754794186E-01 -0.16283193900E-01  0.10700146869E+00  0.12923642853E+00  0.19921988321E-01 0.  0.
         14    1    1    2    0    0 -0.11500735560E-01 -0.52573885316E-02  0.18078727604E-01  0.22062353555E-01  0.00000000000E+00 0. -1.
     999901    1    3    3    0    0  0.79255529746E-01  0.21540582431E-01 -0.12508019630E+00  0.89263121791E+00  0.88000000000E+00 0. -1.
        -11    1    4    4    0    0 -0.36730569969E-02 -0.61983442000E-02  0.71612478742E-02  0.10171303291E-01  0.51100000000E-03 0.  1.
         11    1    4    4    0    0 -0.64081737189E-01 -0.10084849700E-01  0.99840220819E-01  0.11906512524E+00  0.51100000000E-03 0. -1.
</event>
<event>
 8    1  0.1064839E+005  0.1043930E+01  0.7957747E-01            NaN
         13   -1    0    0    0    0  0.00000000000E+00  0.00000000000E+00  0.74505805969E-08  0.10566000000E+00  0.10566000000E+00 0. -1.
     999900   -1    0    0    0    0 -0.00000000000E+00 -0.00000000000E+00 -0.74505805969E-08  0.93827000000E+00  0.93827000000E+00 0. -1.
     999902    2    1    2    0    0 -0.14966875652E-01 -0.13989482322E-01 -0.11186158977E-01  0.10205881249E+01  0.10203211639E+01 0.  0.
     999903    2    3    3    0    0 -0.17757593529E-01 -0.48399424174E-01  0.11628196932E+00  0.13073422902E+00  0.30201090405E-01 0.  0.
         14    1    1    2    0    0  0.14966875652E-01  0.13989482322E-01  0.11186158977E-01  0.23341875141E-01  0.00000000000E+00 0. -1.
     999901    1    3    3    0    0  0.27907178760E-02  0.34409941851E-01 -0.12746812829E+00  0.88985389584E+00  0.88000000000E+00 0. -1.
        -11    1    4    4    0    0 -0.39638017256E-02 -0.44493195097E-01  0.96075629241E-01  0.10595349824E+00  0.51100000000E-03 0. -1.
         11    1    4    4    0    0 -0.13793791803E-01 -0.39062290771E-02  0.20206340076E-01  0.24780730783E-01  0.51100000000E-03 0.  1.
</event>
<event>
 8    1  0.1064839E+005  0.1043930E+01  0.7957747E-01            NaN
         13   -1    0    0    0    0  0.00000000000E+00  0.00000000000E+00  0.74505805969E-08  0.10566000000E+00  0.10566000000E+00 0.  1.
     999900   -1    0    0    0    0 -0.00000000000E+00 -0.00000000000E+00 -0.74505805969E-08  0.93827000000E+00  0.93827000000E+00 0.  1.
     999902    2    1    2    0    0 -0.13608940768E-01  0.27455268538E-02 -0.18873172310E-01  0.10205005779E+01  0.10202315873E+01 0.  0.
     999903    2    3    3    0    0  0.97933649892E-01  0.26950358318E-01 -0.80324226703E-01  0.13100417236E+00  0.19818935030E-01 0.  0.
         14    1    1    2    0    0  0.13608940768E-01 -0.27455268538E-02  0.18873172310E-01  0.23429422092E-01  0.00000000000E+00 0.  1.
     999901    1    3    3    0    0 -0.11154259066E+00 -0.24204831464E-01  0.61451054393E-01  0.88949640555E+00  0.88000000000E+00 0. -1.
        -11    1    4    4    0    0  0.36613781801E-01  0.32209894630E-03 -0.29564117128E-01  0.47063477433E-01  0.51100000000E-03 0.  1.
         11    1    4    4    0    0  0.61319868090E-01  0.26628259371E-01 -0.50760109575E-01  0.83940694927E-01  0.51100000000E-03 0. -1.
</event>
<event>
 8    1  0.1064839E+005  0.1043930E+01  0.7957747E-01            NaN
         13   -1    0    0    0    0  0.00000000000E+00  0.00000000000E+00  0.74505805969E-08  0.10566000000E+00  0.10566000000E+00 0. -1.
     999900   -1    0    0    0    0 -0.00000000000E+00 -0.00000000000E+00 -0.74505805969E-08  0.93827000000E+00  0.93827000000E+00 0. -1.
     999902    2    1    2    0    0 -0.22557316045E-01 -0.11181564838E-01  0.10018736373E-01  0.10168332294E+01  0.10164721252E+01 0.  0.
     999903    2    3    3    0    0  0.85697851782E-01  0.87895427351E-01 -0.63878436893E-02  0.12453024967E+00  0.19931146118E-01 0.  0.
         14    1    1    2    0    0  0.22557316045E-01  0.11181564838E-01 -0.10018736373E-01  0.27096770617E-01  0.00000000000E+00 0. -1.
     999901    1    3    3    0    0 -0.10825516783E+00 -0.99076992190E-01  0.16406580062E-01  0.89230297972E+00  0.88000000000E+00 0.  1.
        -11    1    4    4    0    0  0.26289505785E-01  0.40574358069E-01 -0.44255366516E-02  0.48551654377E-01  0.51100000000E-03 0. -1.
         11    1    4    4    0    0  0.59408345997E-01  0.47321069282E-01 -0.19623070378E-02  0.75978595289E-01  0.51100000000E-03 0.  1.
</event>
<event>
 8    1  0.1064839E+005  0.1043930E+01  0.7957747E-01            NaN
         13   -1    0    0    0    0  0.00000000000E+00  0.00000000000E+00  0.74505805969E-08  0.10566000000E+00  0.10566000000E+00 0.  1.
     999900   -1    0    0    0    0 -0.00000000000E+00 -0.00000000000E+00 -0.74505805969E-08  0.93827000000E+00  0.93827000000E+00 0. -1.
     999902    2    1    2    0    0  0.30040321997E-02 -0.15015210773E-01  0.17948824806E-01  0.10203367578E+01  0.10200639481E+01 0.  0.
     999903    2    3    3    0    0  0.10285925296E+00  0.40952310503E-01  0.68115477796E-01  0.13150599688E+00  0.19924639104E-01 0.  0.
         14    1    1    2    0    0 -0.30040321997E-02  0.15015210773E-01 -0.17948824806E-01  0.23593242166E-01  0.00000000000E+00 0. -1.
     999901    1    3    3    0    0 -0.99855220764E-01 -0.55967521276E-01 -0.50166652990E-01  0.88883076096E+00  0.88000000000E+00 0. -1.
        -11    1    4    4    0    0  0.24345337495E-01  0.88807722372E-02  0.66410224859E-02  0.26756828548E-01  0.51100000000E-03 0.  1.
         11    1    4    4    0    0  0.78513915468E-01  0.32071538265E-01  0.61474455310E-01  0.10474916833E+00  0.51100000000E-03 0. -1.
</event>
<event>
 8    1  0.1064839E+005  0.1043930E+01  0.7957747E-01            NaN
         13   -1    0    0    0    0  0.00000000000E+00  0.00000000000E+00  0.74505805969E-08  0.10566000000E+00  0.10566000000E+00 0. -1.
     999900   -1    0    0    0    0 -0.00000000000E+00 -0.00000000000E+00 -0.74505805969E-08  0.93827000000E+00  0.93827000000E+00 0. -1.
     999902    2    1    2    0    0  0.48687163136E-02  0.27053229528E-02 -0.23002218394E-01  0.10202630352E+01  0.10199884979E+01 0.  0.
     999903    2    3    3    0    0  0.43720070509E-01 -0.12092181635E+00  0.35494238072E-02  0.13037647672E+00  0.21257870037E-01 0.  0.
         14    1    1    2    0    0 -0.48687163136E-02 -0.27053229528E-02  0.23002218394E-01  0.23666964779E-01  0.00000000000E+00 0. -1.
     999901    1    3    3    0    0 -0.38851354196E-01  0.12362713930E+00 -0.26551642201E-01  0.88988655850E+00  0.88000000000E+00 0. -1.
        -11    1    4    4    0    0  0.68391927426E-02 -0.22828442746E-01  0.88938409057E-02  0.25441577833E-01  0.51100000000E-03 0.  1.
         11    1    4    4    0    0  0.36880877767E-01 -0.98093373603E-01 -0.53444170985E-02  0.10493489889E+00  0.51100000000E-03 0. -1.
</event>
<event>
 8    1  0.1064839E+005  0.1043930E+01  0.7957747E-01            NaN
         13   -1    0    0    0    0  0.00000000000E+00  0.00000000000E+00  0.74505805969E-08  0.10566000000E+00  0.10566000000E+00 0.  1.
     999900   -1    0    0    0    0 -0.00000000000E+00 -0.00000000000E+00 -0.74505805969E-08  0.93827000000E+00  0.93827000000E+00 0.  1.
     999902    2    1    2    0    0  0.43911514414E-02  0.22600024259E-01  0.34109670369E-02  0.10206560230E+01  0.10203906308E+01 0.  0.
     999903    2    3    3    0    0 -0.58924041648E-01  0.27611206152E-01 -0.11178896809E+00  0.13087798854E+00  0.19946255507E-01 0.  0.
         14    1    1    2    0    0 -0.43911514414E-02 -0.22600024259E-01 -0.34109670369E-02  0.23273976962E-01  0.00000000000E+00 0.  1.
     999901    1    3    3    0    0  0.63315193090E-01 -0.50111818928E-02  0.11519993513E+00  0.88977803450E+00  0.88000000000E+00 0. -1.
        -11    1    4    4    0    0 -0.37778719083E-01  0.68537837290E-02 -0.64903849839E-01  0.75412046862E-01  0.51100000000E-03 0.  1.
         11    1    4    4    0    0 -0.21145322565E-01  0.20757422423E-01 -0.46885118251E-01  0.55465941680E-01  0.51100000000E-03 0. -1.
</event>
<event>
 8    1  0.1064839E+005  0.1043930E+01  0.7957747E-01            NaN
         13   -1    0    0    0    0  0.00000000000E+00  0.00000000000E+00  0.74505805969E-08  0.10566000000E+00  0.10566000000E+00 0.  1.
     999900   -1    0    0    0    0 -0.00000000000E+00 -0.00000000000E+00 -0.74505805969E-08  0.93827000000E+00  0.93827000000E+00 0. -1.
     999902    2    1    2    0    0  0.21582116826E-01  0.78250850353E-03 -0.11565831634E-01  0.10194316623E+01  0.10191372556E+01 0.  0.
     999903    2    3    3    0    0 -0.61889407944E-01  0.10955466977E+00  0.15708331716E-01  0.12839700618E+00  0.20162217788E-01 0.  0.
         14    1    1    2    0    0 -0.21582116826E-01 -0.78250850353E-03  0.11565831634E-01  0.24498337651E-01  0.00000000000E+00 0.  1.
     999901    1    3    3    0    0  0.83471524770E-01 -0.10877216127E+00 -0.27274163350E-01  0.89103465617E+00  0.88000000000E+00 0.  1.
        -11    1    4    4    0    0 -0.48469975547E-01  0.86724835613E-01  0.20593149782E-01  0.10146366138E+00  0.51100000000E-03 0. -1.
         11    1    4    4    0    0 -0.13419432396E-01  0.22829834156E-01 -0.48848180661E-02  0.26933344797E-01  0.51100000000E-03 0.  1.
</event>
<event>
 8    1  0.1064839E+005  0.1043930E+01  0.7957747E-01            NaN
         13   -1    0    0    0    0  0.00000000000E+00  0.00000000000E+00  0.74505805969E-08  0.10566000000E+00  0.10566000000E+00 0.  1.
     999900   -1    0    0    0    0 -0.00000000000E+00 -0.00000000000E+00 -0.74505805969E-08  0.93827000000E+00  0.93827000000E+00 0.  1.
     999902    2    1    2    0    0 -0.37740307611E-02 -0.10997456586E-01  0.29600424122E-01  0.10121279172E+01  0.10116281671E+01 0.  0.
     999903    2    3    3    0    0  0.21431164057E-01  0.10099241254E+00 -0.58313993187E-01  0.12032862513E+00  0.20486435530E-01 0.  0.
         14    1    1    2    0    0  0.37740307611E-02  0.10997456586E-01 -0.29600424122E-01  0.31802082758E-01  0.00000000000E+00 0. -1.
     999901    1    3    3    0    0 -0.25205194819E-01 -0.11198986913E+00  0.87914417310E-01  0.89179929211E+00  0.88000000000E+00 0.  1.
        -11    1    4    4    0    0  0.17979171073E-01  0.70395869759E-01 -0.50725719573E-01  0.88612577092E-01  0.51100000000E-03 0. -1.
         11    1    4    4    0    0  0.34519929844E-02  0.30596542785E-01 -0.75882736148E-02  0.31716048042E-01  0.51100000000E-03 0.  1.
</event>
<event>
 8    1  0.1064839E+005  0.1043930E+01  0.7957747E-01            NaN
         13   -1    0    0    0    0  0.00000000000E+00  0.00000000000E+00  0.74505805969E-08  0.10566000000E+00  0.10566000000E+00 0. -1.
     999900   -1    0    0    0    0 -0.00000000000E+00 -0.00000000000E+00 -0.74505805969E-08  0.93827000000E+00  0.93827000000E+00 0.  1.
     999902    2    1    2    0    0 -0.12438197024E-01 -0.16949089367E-01  0.75183777399E-02  0.10216027436E+01  0.10213587319E+01 0.  0.
     999903    2    3    3    0    0  0.48742354261E-01 -0.10357487126E+00 -0.64364384370E-01  0.13232538671E+00  0.16237701090E-01 0.  0.
         14    1    1    2    0    0  0.12438197024E-01  0.16949089367E-01 -0.75183777399E-02  0.22327256424E-01  0.00000000000E+00 0. -1.
     999901    1    3    3    0    0 -0.61180551286E-01  0.86625781895E-01  0.71882762110E-01  0.88927735687E+00  0.88000000000E+00 0. -1.
        -11    1    4    4    0    0  0.36711028952E-01 -0.59408733840E-01 -0.38739155309E-01  0.79862886113E-01  0.51100000000E-03 0.  1.
         11    1    4    4    0    0  0.12031325309E-01 -0.44166137423E-01 -0.25625229060E-01  0.52462500597E-01  0.51100000000E-03 0. -1.
</event>
<event>
 8    1  0.1064839E+005  0.1043930E+01  0.7957747E-01            NaN
         13   -1    0    0    0    0  0.00000000000E+00  0.00000000000E+00  0.74505805969E-08  0.10566000000E+00  0.10566000000E+00 0.  1.
     999900   -1    0    0    0    0 -0.00000000000E+00 -0.00000000000E+00 -0.74505805969E-08  0.93827000000E+00  0.93827000000E+00 0. -1.
     999902    2    1    2    0    0  0.87156135373E-02 -0.21014537556E-01 -0.67970467422E-02  0.10201861049E+01  0.10199097588E+01 0.  0.
     999903    2    3    3    0    0  0.12978288659E+00 -0.70823194540E-02 -0.77408351265E-02  0.13178738700E+00  0.20352836219E-01 0.  0.
         14    1    1    2    0    0 -0.87156135373E-02  0.21014537556E-01  0.67970467422E-02  0.23743895057E-01  0.00000000000E+00 0. -1.
     999901    1    3    3    0    0 -0.12106727306E+00 -0.13932218102E-01  0.94378838435E-03  0.88839871794E+00  0.88000000000E+00 0.  1.
        -11    1    4    4    0    0  0.21272232006E-01 -0.29660612834E-02 -0.87375403676E-02  0.23192910700E-01  0.51100000000E-03 0.  1.
         11    1    4    4    0    0  0.10851065459E+00 -0.41162581706E-02  0.99670524105E-03  0.10859447630E+00  0.51100000000E-03 0. -1.
</event>
<event>
 8    1  0.1064839E+005  0.1043930E+01  0.7957747E-01            NaN
         13   -1    0    0    0    0  0.00000000000E+00  0.00000000000E+00  0.74505805969E-08  0.10566000000E+00  0.10566000000E+00 0. -1.
     999900   -1    0    0    0    0 -0.00000000000E+00 -0.00000000000E+00 -0.74505805969E-08  0.93827000000E+00  0.93827000000E+00 0.  1.
     999902    2    1    2    0    0 -0.73490947734E-02 -0.97127927770E-02 -0.19682202940E-01  0.10207840144E+01  0.10205215663E+01 0.  0.
     999903    2    3    3    0    0 -0.74776053542E-01 -0.97827499761E-01 -0.47180781916E-01  0.13339077111E+00  0.20134392056E-01 0.  0.
         14    1    1    2    0    0  0.73490947734E-02  0.97127927770E-02  0.19682202940E-01  0.23145985615E-01  0.00000000000E+00 0. -1.
     999901    1    3    3    0    0  0.67426958769E-01  0.88114706984E-01  0.27498578976E-01  0.88739324327E+00  0.88000000000E+00 0.  1.
        -11    1    4    4    0    0 -0.22109735516E-01 -0.33558793829E-01 -0.25206525345E-01  0.47441153958E-01  0.51100000000E-03 0.  1.
         11    1    4    4    0    0 -0.52666318026E-01 -0.64268705932E-01 -0.21974256571E-01  0.85949617157E-01  0.51100000000E-03 0. -1.
</event>
<event>
 8    1  0.1064839E+005  0.1043930E+01  0.7957747E-01            NaN
         13   -1    0    0    0    0  0.00000000000E+00  0.00000000000E+00  0.74505805969E-08  0.10566000000E+00  0.10566000000E+00 0.  1.
     999900   -1    0    0    0    0 -0.00000000000E+00 -0.00000000000E+00 -0.74505805969E-08  0.93827000000E+00  0.93827000000E+00 0.  1.
     999902    2    1    2    0    0 -0.23372832610E-01 -0.12088804031E-03 -0.13150477957E-02  0.10205198896E+01  0.10202513474E+01 0.  0.
     999903    2    3    3    0    0 -0.13203675021E+00  0.57468977012E-02  0.53767205367E-02  0.13379160108E+00  0.20113506871E-01 0.  0.
         14    1    1    2    0    0  0.23372832610E-01  0.12088804031E-03  0.13150477957E-02  0.23410110398E-01  0.00000000000E+00 0. -1.
     999901    1    3    3    0    0  0.10866391759E+00 -0.58677857415E-02 -0.66917683324E-02  0.88672828852E+00  0.88000000000E+00 0.  1.
        -11    1    4    4    0    0 -0.93682279143E-01 -0.45542097690E-02  0.67002393670E-03  0.93796696664E-01  0.51100000000E-03 0.  1.
         11    1    4    4    0    0 -0.38354471062E-01  0.10301107470E-01  0.47066966000E-02  0.39994904418E-01  0.51100000000E-03 0. -1.
</event>
<event>
 8    1  0.1064839E+005  0.1043930E+01  0.7957747E-01            NaN
         13   -1    0    0    0    0  0.00000000000E+00  0.00000000000E+00  0.74505805969E-08  0.10566000000E+00  0.10566000000E+00 0. -1.
     999900   -1    0    0    0    0 -0.00000000000E+00 -0.00000000000E+00 -0.74505805969E-08  0.93827000000E+00  0.93827000000E+00 0.  1.
     999902    2    1    2    0    0  0.62769085853E-02  0.50386439767E-02  0.21964820651E-01  0.10205368202E+01  0.10202686708E+01 0.  0.
     999903    2    3    3    0    0 -0.10781980743E+00 -0.65813762754E-01 -0.15253173992E-01  0.12956919831E+00  0.24473569273E-01 0.  0.
         14    1    1    2    0    0 -0.62769085853E-02 -0.50386439767E-02 -0.21964820651E-01  0.23393179791E-01  0.00000000000E+00 0.  1.
     999901    1    3    3    0    0  0.11409671601E+00  0.70852406731E-01  0.37217994643E-01  0.89096762190E+00  0.88000000000E+00 0.  1.
        -11    1    4    4    0    0 -0.58053766653E-01 -0.40740744443E-01 -0.19856169904E-01  0.73651725605E-01  0.51100000000E-03 0.  1.
         11    1    4    4    0    0 -0.49766040774E-01 -0.25073018311E-01  0.46029959121E-02  0.55917472707E-01  0.51100000000E-03 0. -1.
</event>
<event>
 8    1  0.1606706E+005  0.1043930E+01  0.7957747E-01            NaN
         13   -1    0    0    0    0  0.00000000000E+00  0.00000000000E+00  0.74505805969E-08  0.10566000000E+00  0.10566000000E+00 0. -1.
     999900   -1    0    0    0    0 -0.00000000000E+00 -0.00000000000E+00 -0.74505805969E-08  0.93827000000E+00  0.93827000000E+00 0. -1.
     999902    2    1    2    0    0 -0.22674554578E-01  0.42379209630E-02  0.76554331701E-02  0.10196256577E+01  0.10193359509E+01 0.  0.
     999903    2    3    3    0    0  0.39935890361E-01  0.66651051618E-01 -0.10057394091E+00  0.12859868607E+00  0.19628205431E-01 0.  0.
         14    1    1    2    0    0  0.22674554578E-01 -0.42379209630E-02 -0.76554331701E-02  0.24304342336E-01  0.00000000000E+00 0.  1.
     999901    1    3    3    0    0 -0.62610444939E-01 -0.62413130655E-01  0.10822937408E+00  0.89102697159E+00  0.88000000000E+00 0.  1.
        -11    1    4    4    0    0  0.24249024449E-01  0.32031661665E-01 -0.37517270702E-01  0.54971349425E-01  0.51100000000E-03 0. -1.
         11    1    4    4    0    0  0.15686865912E-01  0.34619389953E-01 -0.63056670207E-01  0.73627336645E-01  0.51100000000E-03 0.  1.
</event>
<event>
 8    1  0.1064839E+005  0.1043930E+01  0.7957747E-01            NaN
         13   -1    0    0    0    0  0.00000000000E+00  0.00000000000E+00  0.74505805969E-08  0.10566000000E+00  0.10566000000E+00 0. -1.
     999900   -1    0    0    0    0 -0.00000000000E+00 -0.00000000000E+00 -0.74505805969E-08  0.93827000000E+00  0.93827000000E+00 0. -1.
     999902    2    1    2    0    0  0.19557061615E-01 -0.72804686032E-02 -0.69229184911E-02  0.10219433977E+01  0.10217068549E+01 0.  0.
     999903    2    3    3    0    0  0.32947120724E-01 -0.11580102528E+00  0.53137055380E-01  0.13314465477E+00  0.20212922057E-01 0.  0.
         14    1    1    2    0    0 -0.19557061615E-01  0.72804686032E-02  0.69229184911E-02  0.21986602342E-01  0.00000000000E+00 0. -1.
     999901    1    3    3    0    0 -0.13390059109E-01  0.10852055668E+00 -0.60059973871E-01  0.88879874289E+00  0.88000000000E+00 0.  1.
        -11    1    4    4    0    0  0.81681058378E-02 -0.56753885587E-01  0.32243430830E-01  0.65784659572E-01  0.51100000000E-03 0. -1.
         11    1    4    4    0    0  0.24779014886E-01 -0.59047139695E-01  0.20893624550E-01  0.67359995195E-01  0.51100000000E-03 0.  1.
</event>
<event>
 8    1  0.1064839E+005  0.1043930E+01  0.7957747E-01            NaN
         13   -1    0    0    0    0  0.00000000000E+00  0.00000000000E+00  0.74505805969E-08  0.10566000000E+00  0.10566000000E+00 0.  1.
     999900   -1    0    0    0    0 -0.00000000000E+00 -0.00000000000E+00 -0.74505805969E-08  0.93827000000E+00  0.93827000000E+00 0. -1.
     999902    2    1    2    0    0 -0.12868188259E-01 -0.30215377887E-01  0.15906897443E-02  0.10110500726E+01  0.10105152942E+01 0.  0.
     999903    2    3    3    0    0  0.85970636304E-01  0.76597484138E-01 -0.12354194750E-01  0.11898922239E+00  0.27343811612E-01 0.  0.
         14    1    1    2    0    0  0.12868188259E-01  0.30215377887E-01 -0.15906897443E-02  0.32879927369E-01  0.00000000000E+00 0. -1.
     999901    1    3    3    0    0 -0.98838824564E-01 -0.10681286202E+00  0.13944884495E-01  0.89206085024E+00  0.88000000000E+00 0.  1.
        -11    1    4    4    0    0  0.55970993371E-01  0.65954817547E-01 -0.95572786721E-02  0.87030987316E-01  0.51100000000E-03 0. -1.
         11    1    4    4    0    0  0.29999642933E-01  0.10642666591E-01 -0.27969160780E-02  0.31958235071E-01  0.51100000000E-03 0.  1.
</event>
<event>
 8    1  0.1064839E+005  0.1043930E+01  0.7957747E-01            NaN
         13   -1    0    0    0    0  0.00000000000E+00  0.00000000000E+00  0.74505805969E-08  0.10566000000E+00  0.10566000000E+00 0.  1.
     999900   -1    0    0    0    0 -0.00000000000E+00 -0.00000000000E+00 -0.74505805969E-08  0.93827000000E+00  0.93827000000E+00 0. -1.
     999902    2    1    2    0    0 -0.12474752215E-01 -0.16745084660E-01 -0.11025977222E-01  0.10203166674E+01  0.10200433875E+01 0.  0.
     999903    2    3    3    0    0 -0.89136957492E-01  0.82394981843E-01  0.41608646317E-01  0.12988067862E+00  0.20084347318E-01 0.  0.
         14    1    1    2    0    0  0.12474752215E-01  0.16745084660E-01  0.11025977222E-01  0.23613332606E-01  0.00000000000E+00 0.  1.
     999901    1    3    3    0    0  0.76662205277E-01 -0.99140066503E-01 -0.52634623538E-01  0.89043598877E+00  0.88000000000E+00 0.  1.
        -11    1    4    4    0    0 -0.36082195327E-01  0.37487937980E-01  0.27861980817E-01  0.59023905409E-01  0.51100000000E-03 0.  1.
         11    1    4    4    0    0 -0.53054762165E-01  0.44907043863E-01  0.13746665499E-01  0.70856773213E-01  0.51100000000E-03 0. -1.
</event>
<event>
 8    1  0.1064839E+005  0.1043930E+01  0.7957747E-01            NaN
         13   -1    0    0    0    0  0.00000000000E+00  0.00000000000E+00  0.74505805969E-08  0.10566000000E+00  0.10566000000E+00 0.  1.
     999900   -1    0    0    0    0 -0.00000000000E+00 -0.00000000000E+00 -0.74505805969E-08  0.93827000000E+00  0.93827000000E+00 0. -1.
     999902    2    1    2    0    0 -0.25098812524E-02 -0.22741565596E-01  0.59540257121E-02  0.10202883264E+01  0.10200143824E+01 0.  0.
     999903    2    3    3    0    0  0.21950762400E-01  0.12392008528E+00 -0.75645891748E-02  0.12771299853E+00  0.20380468053E-01 0.  0.
         14    1    1    2    0    0  0.25098812524E-02  0.22741565596E-01 -0.59540257121E-02  0.23641673626E-01  0.00000000000E+00 0. -1.
     999901    1    3    3    0    0 -0.24460643652E-01 -0.14666165088E+00  0.13518614887E-01  0.89257532784E+00  0.88000000000E+00 0. -1.
        -11    1    4    4    0    0  0.15676518872E-01  0.50807022730E-01  0.44235189853E-02  0.53356681343E-01  0.51100000000E-03 0. -1.
         11    1    4    4    0    0  0.62742435274E-02  0.73113062551E-01 -0.11988108160E-01  0.74356317188E-01  0.51100000000E-03 0.  1.
</event>
<event>
 8    1  0.1064839E+005  0.1043930E+01  0.7957747E-01            NaN
         13   -1    0    0    0    0  0.00000000000E+00  0.00000000000E+00  0.74505805969E-08  0.10566000000E+00  0.10566000000E+00 0. -1.
     999900   -1    0    0    0    0 -0.00000000000E+00 -0.00000000000E+00 -0.74505805969E-08  0.93827000000E+00  0.93827000000E+00 0.  1.
     999902    2    1    2    0    0 -0.97392251496E-03  0.13771861712E-01  0.18596020979E-01  0.10207691560E+01  0.10205063670E+01 0.  0.
     999903    2    3    3    0    0 -0.48273859419E-01 -0.76348638243E-01 -0.88610470288E-01  0.12843949698E+00  0.22031996600E-01 0.  0.
         14    1    1    2    0    0  0.97392251496E-03 -0.13771861712E-01 -0.18596020979E-01  0.23160844033E-01  0.00000000000E+00 0.  1.
     999901    1    3    3    0    0  0.47299936904E-01  0.90120499955E-01  0.10720649127E+00  0.89232965899E+00  0.88000000000E+00 0. -1.
        -11    1    4    4    0    0 -0.19701377933E-01 -0.25893571842E-01 -0.46590386184E-01  0.56829099596E-01  0.51100000000E-03 0.  1.
         11    1    4    4    0    0 -0.28572481487E-01 -0.50455066401E-01 -0.42020084104E-01  0.71610397381E-01  0.51100000000E-03 0. -1.
</event>
<event>
 8    1  0.1064839E+005  0.1043930E+01  0.7957747E-01            NaN
         13   -1    0    0    0    0  0.00000000000E+00  0.00000000000E+00  0.74505805969E-08  0.10566000000E+00  0.10566000000E+00 0.  1.
     999900   -1    0    0    0    0 -0.00000000000E+00 -0.00000000000E+00 -0.74505805969E-08  0.93827000000E+00  0.93827000000E+00 0. -1.
     999902    2    1    2    0    0  0.23309086257E-01  0.12886613004E-01 -0.58309655918E-02  0.10166650324E+01  0.10162993701E+01 0.  0.
     999903    2    3    3    0    0 -0.19544800819E-01 -0.10349636445E+00 -0.66009419211E-01  0.12593336725E+00  0.20210711707E-01 0.  0.
         14    1    1    2    0    0 -0.23309086257E-01 -0.12886613004E-01  0.58309655918E-02  0.27264967570E-01  0.00000000000E+00 0.  1.
     999901    1    3    3    0    0  0.42853887076E-01  0.11638297746E+00  0.60178453619E-01  0.89073166518E+00  0.88000000000E+00 0.  1.
        -11    1    4    4    0    0  0.27450693341E-02 -0.25418823679E-01 -0.10890374888E-01  0.27794125082E-01  0.51100000000E-03 0.  1.
         11    1    4    4    0    0 -0.22289870154E-01 -0.78077540774E-01 -0.55119044323E-01  0.98139242166E-01  0.51100000000E-03 0. -1.
</event>
<event>
 8    1  0.1064839E+005  0.1043930E+01  0.7957747E-01            NaN
         13   -1    0    0    0    0  0.00000000000E+00  0.00000000000E+00  0.74505805969E-08  0.10566000000E+00  0.10566000000E+00 0.  1.
     999900   -1    0    0    0    0 -0.00000000000E+00 -0.00000000000E+00 -0.74505805969E-08  0.93827000000E+00  0.93827000000E+00 0. -1.
     999902    2    1    2    0    0 -0.38712285136E-02  0.20165534665E-01 -0.11702117736E-01  0.10202958138E+01  0.10200220453E+01 0.  0.
     999903    2    3    3    0    0 -0.11425930864E+00  0.62238878993E-01 -0.13621649605E-01  0.13239977306E+00  0.20378491046E-01 0.  0.
         14    1    1    2    0    0  0.38712285136E-02 -0.20165534665E-01  0.11702117736E-01  0.23634186215E-01  0.00000000000E+00 0.  1.
     999901    1    3    3    0    0  0.11038808013E+00 -0.42073344328E-01  0.19195318691E-02  0.88789604073E+00  0.88000000000E+00 0. -1.
        -11    1    4    4    0    0 -0.58733553594E-01  0.23877659296E-01  0.69523096615E-03  0.63407550011E-01  0.51100000000E-03 0. -1.
         11    1    4    4    0    0 -0.55525755050E-01  0.38361219697E-01 -0.14316880571E-01  0.68992223046E-01  0.51100000000E-03 0.  1.
</event>
<event>
 8    1  0.1064839E+005  0.1043930E+01  0.7957747E-01            NaN
         13   -1    0    0    0    0  0.00000000000E+00  0.00000000000E+00  0.74505805969E-08  0.10566000000E+00  0.10566000000E+00 0. -1.
     999900   -1    0    0    0    0 -0.00000000000E+00 -0.00000000000E+00 -0.74505805969E-08  0.93827000000E+00  0.93827000000E+00 0.  1.
     999902    2    1    2    0    0  0.16766175941E-01  0.39538008294E-02  0.16060359666E-01  0.10203785170E+01  0.10201066835E+01 0.  0.
     999903    2    3    3    0    0  0.88940978538E-01  0.12086550210E-01  0.97234527779E-01  0.13366289786E+00  0.18831742153E-01 0.  0.
         14    1    1    2    0    0 -0.16766175941E-01 -0.39538008294E-02 -0.16060359666E-01  0.23551482953E-01  0.00000000000E+00 0.  1.
     999901    1    3    3    0    0 -0.72174802597E-01 -0.81327493804E-02 -0.81174168113E-01  0.88671561919E+00  0.88000000000E+00 0. -1.
        -11    1    4    4    0    0  0.46527570614E-01  0.15234492275E-01  0.47415343885E-01  0.68157028536E-01  0.51100000000E-03 0. -1.
         11    1    4    4    0    0  0.42413407924E-01 -0.31479420650E-02  0.49819183894E-01  0.65505869324E-01  0.51100000000E-03 0.  1.
</event>
<event>
 8    1  0.1064839E+005  0.1043930E+01  0.7957747E-01            NaN
         13   -1    0    0    0    0  0.00000000000E+00  0.00000000000E+00  0.74505805969E-08  0.10566000000E+00  0.10566000000E+00 0.  1.
     999900   -1    0    0    0    0 -0.00000000000E+00 -0.00000000000E+00 -0.74505805969E-08  0.93827000000E+00  0.93827000000E+00 0.  1.
     999902    2    1    2    0    0 -0.53158353169E-02 -0.23229171340E-01 -0.62018169204E-02  0.10193065348E+01  0.10190090759E+01 0.  0.
     999903    2    3    3    0    0 -0.18768787780E-01  0.98360866135E-01 -0.77201581400E-01  0.12801192260E+00  0.19996019004E-01 0.  0.
         14    1    1    2    0    0  0.53158353169E-02  0.23229171340E-01  0.62018169204E-02  0.24623465219E-01  0.00000000000E+00 0.  1.
     999901    1    3    3    0    0  0.13452952463E-01 -0.12159003748E+00  0.70999764480E-01  0.89129461218E+00  0.88000000000E+00 0. -1.
        -11    1    4    4    0    0 -0.10893704849E-01  0.29574134684E-01 -0.34185050298E-01  0.46499258409E-01  0.51100000000E-03 0.  1.
         11    1    4    4    0    0 -0.78750829309E-02  0.68786731451E-01 -0.43016531102E-01  0.81512664193E-01  0.51100000000E-03 0. -1.
</event>
<event>
 8    1  0.1446405E+005  0.1043930E+01  0.7957747E-01            NaN
         13   -1    0    0    0    0  0.00000000000E+00  0.00000000000E+00  0.74505805969E-08  0.10566000000E+00  0.10566000000E+00 0.  1.
     999900   -1    0    0    0    0 -0.00000000000E+00 -0.00000000000E+00 -0.74505805969E-08  0.93827000000E+00  0.93827000000E+00 0.  1.
     999902    2    1    2    0    0  0.23335358349E-02  0.68420781952E-02 -0.22135960017E-01  0.10206435200E+01  0.10203778392E+01 0.  0.
     999903    2    3    3    0    0  0.50676854446E-01 -0.11575078657E+00  0.20984230620E-01  0.12978694471E+00  0.20926655594E-01 0.  0.
         14    1    1    2    0    0 -0.23335358349E-02 -0.68420781952E-02  0.22135960017E-01  0.23286479970E-01  0.00000000000E+00 0.  1.
     999901    1    3    3    0    0 -0.48343318611E-01  0.12259286477E+00 -0.43120190637E-01  0.89085657532E+00  0.88000000000E+00 0. -1.
        -11    1    4    4    0    0  0.37380938559E-01 -0.60737038279E-01  0.84845977398E-02  0.71823198942E-01  0.51100000000E-03 0.  1.
         11    1    4    4    0    0  0.13295915887E-01 -0.55013748294E-01  0.12499632880E-01  0.57963745771E-01  0.51100000000E-03 0. -1.
</event>
<event>
 8    1  0.1064839E+005  0.1043930E+01  0.7957747E-01            NaN
         13   -1    0    0    0    0  0.00000000000E+00  0.00000000000E+00  0.74505805969E-08  0.10566000000E+00  0.10566000000E+00 0. -1.
     999900   -1    0    0    0    0 -0.00000000000E+00 -0.00000000000E+00 -0.74505805969E-08  0.93827000000E+00  0.93827000000E+00 0. -1.
     999902    2    1    2    0    0  0.10366123379E-01 -0.43072817295E-02 -0.17411245294E-01  0.10232138070E+01  0.10230040734E+01 0.  0.
     999903    2    3    3    0    0  0.85879509728E-01 -0.88236126535E-01 -0.52568801316E-01  0.13530481602E+00  0.19570645118E-01 0.  0.
         14    1    1    2    0    0 -0.10366123379E-01  0.43072817295E-02  0.17411245294E-01  0.20716193002E-01  0.00000000000E+00 0. -1.
     999901    1    3    3    0    0 -0.75513386348E-01  0.83928844806E-01  0.35157556022E-01  0.88790899097E+00  0.88000000000E+00 0. -1.
        -11    1    4    4    0    0  0.47240873208E-01 -0.52302106764E-01 -0.19873028069E-01  0.73228470140E-01  0.51100000000E-03 0.  1.
         11    1    4    4    0    0  0.38638636519E-01 -0.35934019771E-01 -0.32695773247E-01  0.62076345883E-01  0.51100000000E-03 0. -1.
</event>
<event>
 7    1  0.1064839E+005  0.1043930E+01  0.7957747E-01            NaN
         13   -1    0    0    0    0  0.00000000000E+00  0.00000000000E+00  0.74505805969E-08  0.10566000000E+00  0.10566000000E+00 0.  1.
     999900   -1    0    0    0    0 -0.00000000000E+00 -0.00000000000E+00 -0.74505805969E-08  0.93827000000E+00  0.93827000000E+00 0.  1.
     999902    2    1    2    0    0  0.52181292080E-02 -0.23693000532E-01  0.50399135636E-02  0.10191512213E+01  0.10188499516E+01 0.  0.
         14    1    1    2    0    0 -0.52181292080E-02  0.23693000532E-01 -0.50399135636E-02  0.24778778730E-01  0.00000000000E+00 0. -1.
     999901    1    3    3    0    0 -0.73543777531E-01 -0.11705281796E+00 -0.90526162990E-02  0.89083780750E+00  0.88000000000E+00 0.  1.
        -11    1    3    3    0    0  0.15707791106E-02  0.12558229947E-01 -0.71781828496E-02  0.14558980611E-01  0.51100000000E-03 0.  1.
         11    1    3    3    0    0  0.77191127628E-01  0.80801587478E-01  0.21270712712E-01  0.11375443316E+00  0.51100000000E-03 0. -1.
</event>
<event>
 8    1  0.1064839E+005  0.1043930E+01  0.7957747E-01            NaN
         13   -1    0    0    0    0  0.00000000000E+00  0.00000000000E+00  0.74505805969E-08  0.10566000000E+00  0.10566000000E+00 0. -1.
     999900   -1    0    0    0    0 -0.00000000000E+00 -0.00000000000E+00 -0.74505805969E-08  0.93827000000E+00  0.93827000000E+00 0.  1.
     999902    2    1    2    0    0 -0.19154633652E-01 -0.11485245790E-01 -0.66332915878E-02  0.10206316864E+01  0.10203657324E+01 0.  0.
     999903    2    3    3    0    0  0.10204292197E+00 -0.71326459656E-01  0.31094964573E-01  0.12951259237E+00  0.17504084905E-01 0.  0.
         14    1    1    2    0    0  0.19154633652E-01  0.11485245790E-01  0.66332915878E-02  0.23298313640E-01  0.00000000000E+00 0. -1.
     999901    1    3    3    0    0 -0.12119755562E+00  0.59841213866E-01 -0.37728256160E-01  0.89111909399E+00  0.88000000000E+00 0.  1.
        -11    1    4    4    0    0  0.29722059745E-01 -0.30821348704E-01  0.11393370772E-01  0.44310567475E-01  0.51100000000E-03 0.  1.
         11    1    4    4    0    0  0.72320862226E-01 -0.40505110952E-01  0.19701593800E-01  0.85202024892E-01  0.51100000000E-03 0. -1.
</event>
<event>
 8    1  0.1064839E+005  0.1043930E+01  0.7957747E-01            NaN
         13   -1    0    0    0    0  0.00000000000E+00  0.00000000000E+00  0.74505805969E-08  0.10566000000E+00  0.10566000000E+00 0.  1.
     999900   -1    0    0    0    0 -0.00000000000E+00 -0.00000000000E+00 -0.74505805969E-08  0.93827000000E+00  0.93827000000E+00 0.  1.
     999902    2    1    2    0    0 -0.67345200789E-02  0.11836661250E-02  0.25281813917E-01  0.10177398312E+01  0.10174027910E+01 0.  0.
     999903    2    3    3    0    0 -0.96754291052E-01 -0.50938761530E-01  0.68365614217E-01  0.13056649951E+00  0.20435344982E-01 0.  0.
         14    1    1    2    0    0  0.67345200789E-02 -0.11836661250E-02 -0.25281813917E-01  0.26190168787E-01  0.00000000000E+00 0. -1.
     999901    1    3    3    0    0  0.90019770973E-01  0.52122427655E-01 -0.43083800301E-01  0.88717333170E+00  0.88000000000E+00 0.  1.
        -11    1    4    4    0    0 -0.44064434350E-01 -0.12164023780E-01  0.25401587758E-01  0.52298562416E-01  0.51100000000E-03 0.  1.
         11    1    4    4    0    0 -0.52689856702E-01 -0.38774737750E-01  0.42964026460E-01  0.78267937097E-01  0.51100000000E-03 0. -1.
</event>
<event>
 8    1  0.1064839E+005  0.1043930E+01  0.7957747E-01            NaN
         13   -1    0    0    0    0  0.00000000000E+00  0.00000000000E+00  0.74505805969E-08  0.10566000000E+00  0.10566000000E+00 0.  1.
     999900   -1    0    0    0    0 -0.00000000000E+00 -0.00000000000E+00 -0.74505805969E-08  0.93827000000E+00  0.93827000000E+00 0. -1.
     999902    2    1    2    0    0  0.22885684589E-01  0.34491475468E-02  0.61829519512E-02  0.10199742059E+01  0.10196928462E+01 0.  0.
     999903    2    3    3    0    0 -0.67668933976E-01 -0.90748912007E-01  0.57024864834E-01  0.12887470891E+00  0.23289605645E-01 0.  0.
         14    1    1    2    0    0 -0.22885684589E-01 -0.34491475468E-02 -0.61829519512E-02  0.23955794137E-01  0.00000000000E+00 0.  1.
     999901    1    3    3    0    0  0.90554618565E-01  0.94198059553E-01 -0.50841912883E-01  0.89109949695E+00  0.88000000000E+00 0. -1.
        -11    1    4    4    0    0 -0.42276635013E-01 -0.67705850009E-01  0.48975495840E-01  0.93649646594E-01  0.51100000000E-03 0. -1.
         11    1    4    4    0    0 -0.25392298963E-01 -0.23043061998E-01  0.80493689940E-02  0.35225062315E-01  0.51100000000E-03 0.  1.
</event>
<event>
 8    1  0.1064839E+005  0.1043930E+01  0.7957747E-01            NaN
         13   -1    0    0    0    0  0.00000000000E+00  0.00000000000E+00  0.74505805969E-08  0.10566000000E+00  0.10566000000E+00 0. -1.
     999900   -1    0    0    0    0 -0.00000000000E+00 -0.00000000000E+00 -0.74505805969E-08  0.93827000000E+00  0.93827000000E+00 0.  1.
     999902    2    1    2    0    0  0.20135112721E-01  0.24135967937E-02  0.15909549641E-01  0.10181547797E+01  0.10178284695E+01 0.  0.
     999903    2    3    3    0    0 -0.37457473210E-01 -0.11655927030E+00  0.35054612321E-01  0.12807726479E+00  0.13632098846E-01 0.  0.
         14    1    1    2    0    0 -0.20135112721E-01 -0.24135967937E-02 -0.15909549641E-01  0.25775220340E-01  0.00000000000E+00 0.  1.
     999901    1    3    3    0    0  0.57592585931E-01  0.11897286709E+00 -0.19145062679E-01  0.89007751487E+00  0.88000000000E+00 0.  1.
        -11    1    4    4    0    0 -0.27261884009E-01 -0.84428072572E-01  0.18989081060E-01  0.90731229896E-01  0.51100000000E-03 0. -1.
         11    1    4    4    0    0 -0.10195589201E-01 -0.32131197725E-01  0.16065531261E-01  0.37346034892E-01  0.51100000000E-03 0.  1.
</event>
<event>
 8    1  0.1064839E+005  0.1043930E+01  0.7957747E-01            NaN
         13   -1    0    0    0    0  0.00000000000E+00  0.00000000000E+00  0.74505805969E-08  0.10566000000E+00  0.10566000000E+00 0. -1.
     999900   -1    0    0    0    0 -0.00000000000E+00 -0.00000000000E+00 -0.74505805969E-08  0.93827000000E+00  0.93827000000E+00 0.  1.
     999902    2    1    2    0    0 -0.10060763583E-01 -0.17740056115E-01  0.12615038836E-01  0.10199494295E+01  0.10196674806E+01 0.  0.
     999903    2    3    3    0    0 -0.16829182596E-02  0.53236846677E-01 -0.11448286025E+00  0.12795067115E+00  0.20689487642E-01 0.  0.
         14    1    1    2    0    0  0.10060763583E-01  0.17740056115E-01 -0.12615038836E-01  0.23980570461E-01  0.00000000000E+00 0.  1.
     999901    1    3    3    0    0 -0.83778453233E-02 -0.70976902792E-01  0.12709789908E+00  0.89199875839E+00  0.88000000000E+00 0. -1.
        -11    1    4    4    0    0  0.24083954171E-04  0.31678879912E-01 -0.43978846060E-01  0.54202878469E-01  0.51100000000E-03 0.  1.
         11    1    4    4    0    0 -0.17070022138E-02  0.21557966765E-01 -0.70504014185E-01  0.73747792677E-01  0.51100000000E-03 0. -1.
</event>
<event>
 8    1  0.1064839E+005  0.1043930E+01  0.7957747E-01            NaN
         13   -1    0    0    0    0  0.00000000000E+00  0.00000000000E+00  0.74505805969E-08  0.10566000000E+00  0.10566000000E+00 0. -1.
     999900   -1    0    0    0    0 -0.00000000000E+00 -0.00000000000E+00 -0.74505805969E-08  0.93827000000E+00  0.93827000000E+00 0.  1.
     999902    2    1    2    0    0 -0.78128593021E-02  0.17018124637E-01 -0.14416634017E-01  0.10202974658E+01  0.10200237360E+01 0.  0.
     999903    2    3    3    0    0 -0.10540682805E+00  0.73141094942E-01 -0.28304581279E-01  0.13301665026E+00  0.20786071212E-01 0.  0.
         14    1    1    2    0    0  0.78128593021E-02 -0.17018124637E-01  0.14416634017E-01  0.23632534206E-01  0.00000000000E+00 0. -1.
     999901    1    3    3    0    0  0.97593968748E-01 -0.56122970306E-01  0.13887947262E-01  0.88728081553E+00  0.88000000000E+00 0.  1.
        -11    1    4    4    0    0 -0.53962032274E-01  0.25936480462E-01 -0.87626820237E-02  0.60511549833E-01  0.51100000000E-03 0.  1.
         11    1    4    4    0    0 -0.51444795776E-01  0.47204614480E-01 -0.19541899255E-01  0.72505100429E-01  0.51100000000E-03 0. -1.
</event>
<event>
 8    1  0.1064839E+005  0.1043930E+01  0.7957747E-01            NaN
         13   -1    0    0    0    0  0.00000000000E+00  0.00000000000E+00  0.74505805969E-08  0.10566000000E+00  0.10566000000E+00 0.  1.
     999900   -1    0    0    0    0 -0.00000000000E+00 -0.00000000000E+00 -0.74505805969E-08  0.93827000000E+00  0.93827000000E+00 0. -1.
     999902    2    1    2    0    0 -0.14366506392E-01  0.18451681922E-01  0.90220327674E-03  0.10205275420E+01  0.10202591773E+01 0.  0.
     999903    2    3    3    0    0  0.12292127982E+00 -0.14220267255E-01  0.29977644886E-01  0.12880966403E+00  0.19529806001E-01 0.  0.
         14    1    1    2    0    0  0.14366506392E-01 -0.18451681922E-01 -0.90220327674E-03  0.23402458043E-01  0.00000000000E+00 0. -1.
     999901    1    3    3    0    0 -0.13728778621E+00  0.32671949177E-01 -0.29075441609E-01  0.89171787792E+00  0.88000000000E+00 0.  1.
        -11    1    4    4    0    0  0.10279964113E+00 -0.75161070406E-02  0.30799549974E-01  0.10757848987E+00  0.51100000000E-03 0. -1.
         11    1    4    4    0    0  0.20121638683E-01 -0.67041602143E-02 -0.82190508807E-03  0.21231174166E-01  0.51100000000E-03 0.  1.
</event>
<event>
 8    1  0.1064839E+005  0.1043930E+01  0.7957747E-01            NaN
         13   -1    0    0    0    0  0.00000000000E+00  0.00000000000E+00  0.74505805969E-08  0.10566000000E+00  0.10566000000E+00 0.  1.
     999900   -1    0    0    0    0 -0.00000000000E+00 -0.00000000000E+00 -0.74505805969E-08  0.93827000000E+00  0.93827000000E+00 0. -1.
     999902    2    1    2    0    0  0.21320513955E-02 -0.12728794615E-01  0.19442288684E-01  0.10205939668E+01  0.10203271410E+01 0.  0.
     999903    2    3    3    0    0  0.12820647535E+00 -0.14018195402E-01  0.16939257218E-01  0.13160426603E+00  0.19983350014E-01 0.  0.
         14    1    1    2    0    0 -0.21320513955E-02  0.12728794615E-01 -0.19442288684E-01  0.23336033185E-01  0.00000000000E+00 0. -1.
     999901    1    3    3    0    0 -0.12607442396E+00  0.12894007868E-02  0.25030314659E-02  0.88898970078E+00  0.88000000000E+00 0. -1.
        -11    1    4    4    0    0  0.93929006734E-01 -0.49919279757E-02  0.49913678154E-02  0.94195289291E-01  0.51100000000E-03 0.  1.
         11    1    4    4    0    0  0.34277468621E-01 -0.90262674261E-02  0.11947889403E-01  0.37408976742E-01  0.51100000000E-03 0. -1.
</event>
<event>
 8    1  0.1064839E+005  0.1043930E+01  0.7957747E-01            NaN
         13   -1    0    0    0    0  0.00000000000E+00  0.00000000000E+00  0.74505805969E-08  0.10566000000E+00  0.10566000000E+00 0.  1.
     999900   -1    0    0    0    0 -0.00000000000E+00 -0.00000000000E+00 -0.74505805969E-08  0.93827000000E+00  0.93827000000E+00 0.  1.
     999902    2    1    2    0    0 -0.15977430747E-01 -0.10109519733E-02 -0.17047308904E-01  0.10205438704E+01  0.10202758844E+01 0.  0.
     999903    2    3    3    0    0  0.10110736355E+00  0.14297361685E-01 -0.78445162312E-01  0.13053662889E+00  0.21425556600E-01 0.  0.
         14    1    1    2    0    0  0.15977430747E-01  0.10109519733E-02  0.17047308904E-01  0.23386129608E-01  0.00000000000E+00 0.  1.
     999901    1    3    3    0    0 -0.11708479430E+00 -0.15308313658E-01  0.61397853408E-01  0.89000724150E+00  0.88000000000E+00 0.  1.
        -11    1    4    4    0    0  0.50930614035E-01 -0.39490785541E-03 -0.48240080418E-01  0.70153046105E-01  0.51100000000E-03 0.  1.
         11    1    4    4    0    0  0.50176749519E-01  0.14692269540E-01 -0.30205081895E-01  0.60383582784E-01  0.51100000000E-03 0. -1.
</event>
<event>
 8    1  0.1064839E+005  0.1043930E+01  0.7957747E-01            NaN
         13   -1    0    0    0    0  0.00000000000E+00  0.00000000000E+00  0.74505805969E-08  0.10566000000E+00  0.10566000000E+00 0.  1.
     999900   -1    0    0    0    0 -0.00000000000E+00 -0.00000000000E+00 -0.74505805969E-08  0.93827000000E+00  0.93827000000E+00 0. -1.
     999902    2    1    2    0    0 -0.16902537442E-01 -0.12844668835E-01  0.10750700950E-01  0.10201338058E+01  0.10198562265E+01 0.  0.
     999903    2    3    3    0    0 -0.26228077771E-01 -0.12515326746E+00 -0.25969207716E-01  0.13218755811E+00  0.21163609058E-01 0.  0.
         14    1    1    2    0    0  0.16902537442E-01  0.12844668835E-01 -0.10750700950E-01  0.23796194241E-01  0.00000000000E+00 0. -1.
     999901    1    3    3    0    0  0.93255403290E-02  0.11230859863E+00  0.36719908666E-01  0.88794624765E+00  0.88000000000E+00 0.  1.
        -11    1    4    4    0    0 -0.14215832451E-01 -0.66754577807E-01 -0.24590759764E-01  0.72548122906E-01  0.51100000000E-03 0.  1.
         11    1    4    4    0    0 -0.12012245320E-01 -0.58398689656E-01 -0.13784479520E-02  0.59639435199E-01  0.51100000000E-03 0. -1.
</event>
<event>
 8    1  0.1064839E+005  0.1043930E+01  0.7957747E-01            NaN
         13   -1    0    0    0    0  0.00000000000E+00  0.00000000000E+00  0.74505805969E-08  0.10566000000E+00  0.10566000000E+00 0. -1.
     999900   -1    0    0    0    0 -0.00000000000E+00 -0.00000000000E+00 -0.74505805969E-08  0.93827000000E+00  0.93827000000E+00 0. -1.
     999902    2    1    2    0    0 -0.78559467510E-03  0.18100915592E-02 -0.23908132370E-01  0.10199405777E+01  0.10196584181E+01 0.  0.
     999903    2    3    3    0    0  0.20400907370E-01 -0.93683656395E-01 -0.88300681353E-01  0.13218254524E+00  0.21963388690E-01 0.  0.
         14    1    1    2    0    0  0.78559467510E-03 -0.18100915592E-02  0.23908132370E-01  0.23989422333E-01  0.00000000000E+00 0. -1.
     999901    1    3    3    0    0 -0.21186502045E-01  0.95493747954E-01  0.64392548983E-01  0.88775803242E+00  0.88000000000E+00 0. -1.
        -11    1    4    4    0    0  0.13086469725E-01 -0.17672726877E-01 -0.19355209993E-01  0.29299594537E-01  0.51100000000E-03 0.  1.
         11    1    4    4    0    0  0.73144376452E-02 -0.76010929518E-01 -0.68945471360E-01  0.10288295071E+00  0.51100000000E-03 0. -1.
</event>
<event>
 8    1  0.1064839E+005  0.1043930E+01  0.7957747E-01            NaN
         13   -1    0    0    0    0  0.00000000000E+00  0.00000000000E+00  0.74505805969E-08  0.10566000000E+00  0.10566000000E+00 0.  1.
     999900   -1    0    0    0    0 -0.00000000000E+00 -0.00000000000E+00 -0.74505805969E-08  0.93827000000E+00  0.93827000000E+00 0. -1.
     999902    2    1    2    0    0 -0.87567125315E-02  0.81632793800E-02  0.20653961388E-01  0.10200573113E+01  0.10197779234E+01 0.  0.
     999903    2    3    3    0    0 -0.56015393084E-01 -0.96368653280E-01 -0.61296943587E-01  0.12883553270E+00  0.20411702408E-01 0.  0.
         14    1    1    2    0    0  0.87567125315E-02 -0.81632793800E-02 -0.20653961388E-01  0.23872688697E-01  0.00000000000E+00 0. -1.
     999901    1    3    3    0    0  0.47258680553E-01  0.10453193266E+00  0.81950904975E-01  0.89122177860E+00  0.88000000000E+00 0. -1.
        -11    1    4    4    0    0 -0.40448799117E-01 -0.56259965936E-01 -0.45994584682E-01  0.83168816621E-01  0.51100000000E-03 0. -1.
         11    1    4    4    0    0 -0.15566593968E-01 -0.40108687344E-01 -0.15302358905E-01  0.45666716077E-01  0.51100000000E-03 0.  1.
</event>
<event>
 8    1  0.1064839E+005  0.1043930E+01  0.7957747E-01            NaN
         13   -1    0    0    0    0  0.00000000000E+00  0.00000000000E+00  0.74505805969E-08  0.10566000000E+00  0.10566000000E+00 0. -1.
     999900   -1    0    0    0    0 -0.00000000000E+00 -0.00000000000E+00 -0.74505805969E-08  0.93827000000E+00  0.93827000000E+00 0.  1.
     999902    2    1    2    0    0  0.60490780910E-02  0.20291337223E-01 -0.13549468901E-01  0.10187920244E+01  0.10184818462E+01 0.  0.
     999903    2    3    3    0    0 -0.10201226224E+00 -0.50137449843E-01 -0.56142855100E-01  0.12836984142E+00  0.20162601061E-01 0.  0.
         14    1    1    2    0    0 -0.60490780910E-02 -0.20291337223E-01  0.13549468901E-01  0.25137975645E-01  0.00000000000E+00 0. -1.
     999901    1    3    3    0    0  0.10806134033E+00  0.70428787065E-01  0.42593386198E-01  0.89042218294E+00  0.88000000000E+00 0. -1.
        -11    1    4    4    0    0 -0.84278395283E-01 -0.45294087836E-01 -0.39315632081E-01  0.10344265248E+00  0.51100000000E-03 0.  1.
         11    1    4    4    0    0 -0.17733866961E-01 -0.48433620069E-02 -0.16827223019E-01  0.24927188940E-01  0.51100000000E-03 0. -1.
</event>
<event>
 8    1  0.1064839E+005  0.1043930E+01  0.7957747E-01            NaN
         13   -1    0    0    0    0  0.00000000000E+00  0.00000000000E+00  0.74505805969E-08  0.10566000000E+00  0.10566000000E+00 0. -1.
     999900   -1    0    0    0    0 -0.00000000000E+00 -0.00000000000E+00 -0.74505805969E-08  0.93827000000E+00  0.93827000000E+00 0. -1.
     999902    2    1    2    0    0 -0.26806344658E-02  0.41100426963E-02 -0.22772153719E-01  0.10206351672E+01  0.10203692935E+01 0.  0.
     999903    2    3    3    0    0 -0.10784258904E+00 -0.71451038935E-01 -0.34871715912E-02  0.13094959108E+00  0.20008999521E-01 0.  0.
         14    1    1    2    0    0  0.26806344658E-02 -0.41100426963E-02  0.22772153719E-01  0.23294832842E-01  0.00000000000E+00 0. -1.
     999901    1    3    3    0    0  0.10516195458E+00  0.75561081632E-01 -0.19284982128E-01  0.88968557608E+00  0.88000000000E+00 0. -1.
        -11    1    4    4    0    0  0.43770742125E-03 -0.88792520984E-03  0.11779550230E-02  0.16213260008E-02  0.51100000000E-03 0.  1.
         11    1    4    4    0    0 -0.10828029646E+00 -0.70563113725E-01 -0.46651266141E-02  0.12932826508E+00  0.51100000000E-03 0. -1.
</event>
<event>
 8    1  0.1329152E+005  0.1043930E+01  0.7957747E-01            NaN
         13   -1    0    0    0    0  0.00000000000E+00  0.00000000000E+00  0.74505805969E-08  0.10566000000E+00  0.10566000000E+00 0.  1.
     999900   -1    0    0    0    0 -0.00000000000E+00 -0.00000000000E+00 -0.74505805969E-08  0.93827000000E+00  0.93827000000E+00 0.  1.
     999902    2    1    2    0    0  0.20073514608E-01 -0.25886979136E-02  0.11204161886E-01  0.10207960295E+01  0.10205338570E+01 0.  0.
     999903    2    3    3    0    0  0.68325738411E-01  0.84502514993E-01 -0.71240182487E-01  0.13135225595E+00  0.19213796398E-01 0.  0.
         14    1    1    2    0    0 -0.20073514608E-01  0.25886979136E-02 -0.11204161886E-01  0.23133970459E-01  0.00000000000E+00 0. -1.
     999901    1    3    3    0    0 -0.48252223803E-01 -0.87091212906E-01  0.82444344373E-01  0.88944377359E+00  0.88000000000E+00 0.  1.
        -11    1    4    4    0    0  0.44128865744E-01  0.50032156483E-01 -0.32852416163E-01  0.74364748658E-01  0.51100000000E-03 0. -1.
         11    1    4    4    0    0  0.24196872667E-01  0.34470358509E-01 -0.38387766324E-01  0.56987507289E-01  0.51100000000E-03 0.  1.
</event>
<event>
 7    1  0.1064839E+005  0.1043930E+01  0.7957747E-01            NaN
         13   -1    0    0    0    0  0.00000000000E+00  0.00000000000E+00  0.74505805969E-08  0.10566000000E+00  0.10566000000E+00 0. -1.
     999900   -1    0    0    0    0 -0.00000000000E+00 -0.00000000000E+00 -0.74505805969E-08  0.93827000000E+00  0.93827000000E+00 0.  1.
     999903    2    1    2    0    0 -0.30803865105E-01 -0.36609959535E-01 -0.32848731440E-01  0.61471526079E-01  0.20261838976E-01 0.  0.
         14    1    1    2    0    0  0.41620620306E-01 -0.37509204862E-01  0.80400416203E-01  0.97997160212E-01  0.00000000000E+00 0. -1.
     999901    1    1    2    0    0 -0.10816755200E-01  0.74119164397E-01 -0.47551684763E-01  0.88446131371E+00  0.88000000000E+00 0. -1.
        -11    1    3    3    0    0 -0.10809227604E-01 -0.10857958721E-01 -0.22568401003E-01  0.27282384680E-01  0.51100000000E-03 0.  1.
         11    1    3    3    0    0 -0.19994637501E-01 -0.25752000814E-01 -0.10280330437E-01  0.34189141399E-01  0.51100000000E-03 0. -1.
</event>
<event>
 8    1  0.1064839E+005  0.1043930E+01  0.7957747E-01            NaN
         13   -1    0    0    0    0  0.00000000000E+00  0.00000000000E+00  0.74505805969E-08  0.10566000000E+00  0.10566000000E+00 0.  1.
     999900   -1    0    0    0    0 -0.00000000000E+00 -0.00000000000E+00 -0.74505805969E-08  0.93827000000E+00  0.93827000000E+00 0.  1.
     999902    2    1    2    0    0  0.16807943790E-01 -0.38305871458E-02  0.15583458350E-01  0.10206915718E+01  0.10204269989E+01 0.  0.
     999903    2    3    3    0    0 -0.79673738433E-01  0.85292051135E-01  0.53853221590E-01  0.13012089269E+00  0.20214812811E-01 0.  0.
         14    1    1    2    0    0 -0.16807943790E-01  0.38305871458E-02 -0.15583458350E-01  0.23238428227E-01  0.00000000000E+00 0. -1.
     999901    1    3    3    0    0  0.96481682222E-01 -0.89122638280E-01 -0.38269763239E-01  0.89057067908E+00  0.88000000000E+00 0.  1.
        -11    1    4    4    0    0 -0.32380207249E-01  0.22694858714E-01  0.12747298933E-01  0.41548636375E-01  0.51100000000E-03 0. -1.
         11    1    4    4    0    0 -0.47293531184E-01  0.62597192421E-01  0.41105922657E-01  0.88572256318E-01  0.51100000000E-03 0.  1.
</event>
<event>
 8    1  0.1064839E+005  0.1043930E+01  0.7957747E-01            NaN
         13   -1    0    0    0    0  0.00000000000E+00  0.00000000000E+00  0.74505805969E-08  0.10566000000E+00  0.10566000000E+00 0. -1.
     999900   -1    0    0    0    0 -0.00000000000E+00 -0.00000000000E+00 -0.74505805969E-08  0.93827000000E+00  0.93827000000E+00 0. -1.
     999902    2    1    2    0    0  0.11934806264E-02 -0.11167265821E-01 -0.20631128331E-01  0.10204400941E+01  0.10201696967E+01 0.  0.
     999903    2    3    3    0    0 -0.12391758656E+00 -0.36726042984E-01  0.31433128433E-02  0.13090580345E+00  0.20544548404E-01 0.  0.
         14    1    1    2    0    0 -0.11934806264E-02  0.11167265821E-01  0.20631128331E-01  0.23489905878E-01  0.00000000000E+00 0. -1.
     999901    1    3    3    0    0  0.12511106719E+00  0.25558777163E-01 -0.23774441174E-01  0.88953429067E+00  0.88000000000E+00 0.  1.
        -11    1    4    4    0    0 -0.40380501521E-01 -0.47873238063E-02  0.75497684304E-02  0.41361376871E-01  0.51100000000E-03 0.  1.
         11    1    4    4    0    0 -0.83537085042E-01 -0.31938719178E-01 -0.44064555870E-02  0.89544426582E-01  0.51100000000E-03 0. -1.
</event>
<event>
 8    1  0.1064839E+005  0.1043930E+01  0.7957747E-01            NaN
         13   -1    0    0    0    0  0.00000000000E+00  0.00000000000E+00  0.74505805969E-08  0.10566000000E+00  0.10566000000E+00 0. -1.
     999900   -1    0    0    0    0 -0.00000000000E+00 -0.00000000000E+00 -0.74505805969E-08  0.93827000000E+00  0.93827000000E+00 0.  1.
     999902    2    1    2    0    0 -0.68116733548E-02  0.99858536888E-02 -0.20649216599E-01  0.10200028958E+01  0.10197222177E+01 0.  0.
     999903    2    3    3    0    0  0.12450049287E+00 -0.82159431159E-02  0.24971725982E-01  0.12890499952E+00  0.20616434121E-01 0.  0.
         14    1    1    2    0    0  0.68116733548E-02 -0.99858536888E-02  0.20649216599E-01  0.23927104170E-01  0.00000000000E+00 0. -1.
     999901    1    3    3    0    0 -0.13131216623E+00  0.18201796805E-01 -0.45620942581E-01  0.89109789631E+00  0.88000000000E+00 0.  1.
        -11    1    4    4    0    0  0.83506704948E-01  0.19508329941E-02  0.22910367348E-01  0.86615942954E-01  0.51100000000E-03 0.  1.
         11    1    4    4    0    0  0.40993787925E-01 -0.10166776110E-01  0.20613586338E-02  0.42289056567E-01  0.51100000000E-03 0. -1.
</event>
<event>
 8    1  0.1064839E+005  0.1043930E+01  0.7957747E-01            NaN
         13   -1    0    0    0    0  0.00000000000E+00  0.00000000000E+00  0.74505805969E-08  0.10566000000E+00  0.10566000000E+00 0. -1.
     999900   -1    0    0    0    0 -0.00000000000E+00 -0.00000000000E+00 -0.74505805969E-08  0.93827000000E+00  0.93827000000E+00 0.  1.
     999902    2    1    2    0    0  0.17606670672E-02 -0.16950846778E-03 -0.22502303461E-01  0.10213582845E+01  0.10211088399E+01 0.  0.
     999903    2    3    3    0    0 -0.82402498258E-01  0.21029470677E-02 -0.10343378127E+00  0.13364295477E+00  0.19165024060E-01 0.  0.
         14    1    1    2    0    0 -0.17606670672E-02  0.16950846778E-03  0.22502303461E-01  0.22571715546E-01  0.00000000000E+00 0. -1.
     999901    1    3    3    0    0  0.84163165326E-01 -0.22724555355E-02  0.80931477808E-01  0.88771532968E+00  0.88000000000E+00 0. -1.
        -11    1    4    4    0    0 -0.58211033205E-01 -0.56150136831E-02 -0.79908809817E-01  0.99023894959E-01  0.51100000000E-03 0. -1.
         11    1    4    4    0    0 -0.24191465054E-01  0.77179607509E-02 -0.23524971451E-01  0.34619059814E-01  0.51100000000E-03 0.  1.
</event>
<event>
 8    1  0.1064839E+005  0.1043930E+01  0.7957747E-01            NaN
         13   -1    0    0    0    0  0.00000000000E+00  0.00000000000E+00  0.74505805969E-08  0.10566000000E+00  0.10566000000E+00 0.  1.
     999900   -1    0    0    0    0 -0.00000000000E+00 -0.00000000000E+00 -0.74505805969E-08  0.93827000000E+00  0.93827000000E+00 0. -1.
     999902    2    1    2    0    0 -0.11860544161E-01 -0.18646503510E-01  0.38106556203E-03  0.10218277419E+01  0.10215886767E+01 0.  0.
     999903    2    3    3    0    0  0.31516534794E-01 -0.95472176627E-01 -0.85100126296E-01  0.13329479983E+00  0.20426543791E-01 0.  0.
         14    1    1    2    0    0  0.11860544161E-01  0.18646503510E-01 -0.38106556203E-03  0.22102258073E-01  0.00000000000E+00 0. -1.
     999901    1    3    3    0    0 -0.43377078955E-01  0.76825673117E-01  0.85481191858E-01  0.88853294210E+00  0.88000000000E+00 0.  1.
        -11    1    4    4    0    0  0.13170625522E-01 -0.64359440754E-01 -0.62556732720E-01  0.90714987297E-01  0.51100000000E-03 0. -1.
         11    1    4    4    0    0  0.18345909272E-01 -0.31112735873E-01 -0.22543393576E-01  0.42579812534E-01  0.51100000000E-03 0.  1.
</event>
<event>
 8    1  0.1064839E+005  0.1043930E+01  0.7957747E-01            NaN
         13   -1    0    0    0    0  0.00000000000E+00  0.00000000000E+00  0.74505805969E-08  0.10566000000E+00  0.10566000000E+00 0.  1.
     999900   -1    0    0    0    0 -0.00000000000E+00 -0.00000000000E+00 -0.74505805969E-08  0.93827000000E+00  0.93827000000E+00 0. -1.
     999902    2    1    2    0    0  0.74813366993E-02  0.26590878499E-01  0.14162411159E-02  0.10162704455E+01  0.10158939745E+01 0.  0.
     999903    2    3    3    0    0 -0.10705887533E+00 -0.12366367176E-01 -0.62485945391E-01  0.12569724993E+00  0.16756355354E-01 0.  0.
         14    1    1    2    0    0 -0.74813366993E-02 -0.26590878499E-01 -0.14162411159E-02  0.27659554535E-01  0.00000000000E+00 0. -1.
     999901    1    3    3    0    0  0.11454021203E+00  0.38957245675E-01  0.63902186507E-01  0.89057319553E+00  0.88000000000E+00 0.  1.
        -11    1    4    4    0    0 -0.42684941151E-01  0.14809547624E-02 -0.18751533344E-01  0.46648457122E-01  0.51100000000E-03 0. -1.
         11    1    4    4    0    0 -0.64373934180E-01 -0.13847321938E-01 -0.43734412047E-01  0.79048792810E-01  0.51100000000E-03 0.  1.
</event>
<event>
 8    1  0.1064839E+005  0.1043930E+01  0.7957747E-01            NaN
         13   -1    0    0    0    0  0.00000000000E+00  0.00000000000E+00  0.74505805969E-08  0.10566000000E+00  0.10566000000E+00 0.  1.
     999900   -1    0    0    0    0 -0.00000000000E+00 -0.00000000000E+00 -0.74505805969E-08  0.93827000000E+00  0.93827000000E+00 0. -1.
     999902    2    1    2    0    0  0.16511874369E-01 -0.15794370642E-01 -0.86753648898E-02  0.10194889261E+01  0.10191959106E+01 0.  0.
     999903    2    3    3    0    0  0.79711713045E-01 -0.77291749192E-01  0.68069148353E-01  0.13175818564E+00  0.19970949818E-01 0.  0.
         14    1    1    2    0    0 -0.16511874369E-01  0.15794370642E-01  0.86753648898E-02  0.24441073935E-01  0.00000000000E+00 0. -1.
     999901    1    3    3    0    0 -0.63199838675E-01  0.61497378550E-01 -0.76744513243E-01  0.88773074042E+00  0.88000000000E+00 0. -1.
        -11    1    4    4    0    0  0.35170410763E-02 -0.11734412285E-01  0.84454230611E-02  0.14887991849E-01  0.51100000000E-03 0. -1.
         11    1    4    4    0    0  0.76194671968E-01 -0.65557336907E-01  0.59623725292E-01  0.11687019379E+00  0.51100000000E-03 0.  1.
</event>
<event>
 8    1  0.1064839E+005  0.1043930E+01  0.7957747E-01            NaN
         13   -1    0    0    0    0  0.00000000000E+00  0.00000000000E+00  0.74505805969E-08  0.10566000000E+00  0.10566000000E+00 0. -1.
     999900   -1    0    0    0    0 -0.00000000000E+00 -0.00000000000E+00 -0.74505805969E-08  0.93827000000E+00  0.93827000000E+00 0.  1.
     999902    2    1    2    0    0  0.92147501865E-02 -0.20644241346E-01  0.64693688768E-02  0.10204151312E+01  0.10201441520E+01 0.  0.
     999903    2    3    3    0    0  0.68685670793E-02  0.92241792674E-01 -0.87632894020E-01  0.12822457019E+00  0.14362825476E-01 0.  0.
         14    1    1    2    0    0 -0.92147501865E-02  0.20644241346E-01 -0.64693688768E-02  0.23514868816E-01  0.00000000000E+00 0.  1.
     999901    1    3    3    0    0  0.23461831072E-02 -0.11288603402E+00  0.94102262897E-01  0.89219056100E+00  0.88000000000E+00 0. -1.
        -11    1    4    4    0    0 -0.18567513927E-03  0.29389145124E-01 -0.36679781030E-01  0.47004508122E-01  0.51100000000E-03 0.  1.
         11    1    4    4    0    0  0.70542422186E-02  0.62852647550E-01 -0.50953112990E-01  0.81220062064E-01  0.51100000000E-03 0. -1.
</event>
<event>
 8    1  0.1152681E+005  0.1043930E+01  0.7957747E-01            NaN
         13   -1    0    0    0    0  0.00000000000E+00  0.00000000000E+00  0.74505805969E-08  0.10566000000E+00  0.10566000000E+00 0. -1.
     999900   -1    0    0    0    0 -0.00000000000E+00 -0.00000000000E+00 -0.74505805969E-08  0.93827000000E+00  0.93827000000E+00 0. -1.
     999902    2    1    2    0    0 -0.67769880079E-02 -0.73488625380E-02 -0.22283640624E-01  0.10195067736E+01  0.10192141912E+01 0.  0.
     999903    2    3    3    0    0  0.97652500411E-02  0.12698296528E+00 -0.29491255555E-02  0.12894935881E+00  0.19980145565E-01 0.  0.
         14    1    1    2    0    0  0.67769880079E-02  0.73488625380E-02  0.22283640624E-01  0.24423226375E-01  0.00000000000E+00 0. -1.
     999901    1    3    3    0    0 -0.16542238049E-01 -0.13433182782E+00 -0.19334515069E-01  0.89055741481E+00  0.88000000000E+00 0. -1.
        -11    1    4    4    0    0 -0.54269287744E-02  0.48567103388E-01 -0.43143020168E-02  0.49062097492E-01  0.51100000000E-03 0.  1.
         11    1    4    4    0    0  0.15192178815E-01  0.78415861893E-01  0.13651764614E-02  0.79887261321E-01  0.51100000000E-03 0. -1.
</event>
<event>
 8    1  0.1064839E+005  0.1043930E+01  0.7957747E-01            NaN
         13   -1    0    0    0    0  0.00000000000E+00  0.00000000000E+00  0.74505805969E-08  0.10566000000E+00  0.10566000000E+00 0.  1.
     999900   -1    0    0    0    0 -0.00000000000E+00 -0.00000000000E+00 -0.74505805969E-08  0.93827000000E+00  0.93827000000E+00 0.  1.
     999902    2    1    2    0    0  0.19600688108E-01  0.10093018187E-01 -0.81298896220E-02  0.10204321044E+01  0.10201615209E+01 0.  0.
     999903    2    3    3    0    0 -0.16585595738E-01  0.12093484452E+00  0.43573533774E-01  0.13123662447E+00  0.20593206500E-01 0.  0.
         14    1    1    2    0    0 -0.19600688108E-01 -0.10093018187E-01  0.81298896220E-02  0.23497895558E-01  0.00000000000E+00 0. -1.
     999901    1    3    3    0    0  0.36186283846E-01 -0.11084182633E+00 -0.51703423396E-01  0.88919547997E+00  0.88000000000E+00 0.  1.
        -11    1    4    4    0    0 -0.19267625523E-01  0.68288377713E-01  0.27828983491E-01  0.76218484419E-01  0.51100000000E-03 0.  1.
         11    1    4    4    0    0  0.26820297857E-02  0.52646466803E-01  0.15744550283E-01  0.55018140056E-01  0.51100000000E-03 0. -1.
</event>
<event>
 8    1  0.1064839E+005  0.1043930E+01  0.7957747E-01            NaN
         13   -1    0    0    0    0  0.00000000000E+00  0.00000000000E+00  0.74505805969E-08  0.10566000000E+00  0.10566000000E+00 0.  1.
     999900   -1    0    0    0    0 -0.00000000000E+00 -0.00000000000E+00 -0.74505805969E-08  0.93827000000E+00  0.93827000000E+00 0. -1.
     999902    2    1    2    0    0  0.14475495327E-01  0.39623313580E-02  0.16246580054E-01  0.10218123284E+01  0.10215729259E+01 0.  0.
     999903    2    3    3    0    0 -0.42265909298E-01 -0.11158930984E+00 -0.47909429291E-01  0.13013539006E+00  0.20033101938E-01 0.  0.
         14    1    1    2    0    0 -0.14475495327E-01 -0.39623313580E-02 -0.16246580054E-01  0.22117671627E-01  0.00000000000E+00 0.  1.
     999901    1    3    3    0    0  0.56741404625E-01  0.11555164119E+00  0.64156009345E-01  0.89167693831E+00  0.88000000000E+00 0.  1.
        -11    1    4    4    0    0 -0.94397174587E-02 -0.99066479673E-02 -0.91609024545E-02  0.16475229723E-01  0.51100000000E-03 0. -1.
         11    1    4    4    0    0 -0.32826191839E-01 -0.10168266187E+00 -0.38748526836E-01  0.11366016034E+00  0.51100000000E-03 0.  1.
</event>
<event>
 8    1  0.1064839E+005  0.1043930E+01  0.7957747E-01            NaN
         13   -1    0    0    0    0  0.00000000000E+00  0.00000000000E+00  0.74505805969E-08  0.10566000000E+00  0.10566000000E+00 0. -1.
     999900   -1    0    0    0    0 -0.00000000000E+00 -0.00000000000E+00 -0.74505805969E-08  0.93827000000E+00  0.93827000000E+00 0.  1.
     999902    2    1    2    0    0 -0.43259270745E-02  0.66754134089E-02  0.23046827052E-01  0.10195490438E+01  0.10192574854E+01 0.  0.
     999903    2    3    3    0    0 -0.22838548799E-01 -0.12457985329E+00 -0.15062948958E-01  0.12880608578E+00  0.17954836273E-01 0.  0.
         14    1    1    2    0    0  0.43259270745E-02 -0.66754134089E-02 -0.23046827052E-01  0.24380956224E-01  0.00000000000E+00 0.  1.
     999901    1    3    3    0    0  0.18512621725E-01  0.13125526670E+00  0.38109776010E-01  0.89074295800E+00  0.88000000000E+00 0. -1.
        -11    1    4    4    0    0 -0.19783848562E-01 -0.76606049052E-01 -0.16002824609E-01  0.80723224240E-01  0.51100000000E-03 0.  1.
         11    1    4    4    0    0 -0.30547002378E-02 -0.47973804234E-01  0.93987565108E-03  0.48082861536E-01  0.51100000000E-03 0. -1.
</event>
<event>
 8    1  0.1064839E+005  0.1043930E+01  0.7957747E-01            NaN
         13   -1    0    0    0    0  0.00000000000E+00  0.00000000000E+00  0.74505805969E-08  0.10566000000E+00  0.10566000000E+00 0.  1.
     999900   -1    0    0    0    0 -0.00000000000E+00 -0.00000000000E+00 -0.74505805969E-08  0.93827000000E+00  0.93827000000E+00 0. -1.
     999902    2    1    2    0    0  0.10570406826E-01 -0.26368395819E-01 -0.44026866096E-03  0.10155183891E+01  0.10151208691E+01 0.  0.
     999903    2    3    3    0    0  0.70606759020E-01  0.93728245307E-01  0.36758011540E-01  0.12455751517E+00  0.19827374626E-01 0.  0.
         14    1    1    2    0    0 -0.10570406826E-01  0.26368395819E-01  0.44026866096E-03  0.28411610919E-01  0.00000000000E+00 0.  1.
     999901    1    3    3    0    0 -0.60036352193E-01 -0.12009664113E+00 -0.37198280201E-01  0.89096087391E+00  0.88000000000E+00 0.  1.
        -11    1    4    4    0    0  0.64525785827E-01  0.73158634292E-01  0.30539101980E-01  0.10221869046E+00  0.51100000000E-03 0. -1.
         11    1    4    4    0    0  0.60809731925E-02  0.20569611015E-01  0.62189095608E-02  0.22338824710E-01  0.51100000000E-03 0.  1.
</event>
<event>
 8    1  0.1064839E+005  0.1043930E+01  0.7957747E-01            NaN
         13   -1    0    0    0    0  0.00000000000E+00  0.00000000000E+00  0.74505805969E-08  0.10566000000E+00  0.10566000000E+00 0. -1.
     999900   -1    0    0    0    0 -0.00000000000E+00 -0.00000000000E+00 -0.74505805969E-08  0.93827000000E+00  0.93827000000E+00 0. -1.
     999902    2    1    2    0    0 -0.48694323709E-02 -0.23620045687E-01 -0.27875515322E-02  0.10196526778E+01  0.10193636225E+01 0.  0.
     999903    2    3    3    0    0  0.76382279281E-01  0.47145392545E-01 -0.90152514899E-01  0.12878668073E+00  0.20039774591E-01 0.  0.
         14    1    1    2    0    0  0.48694323709E-02  0.23620045687E-01  0.27875515322E-02  0.24277322205E-01  0.00000000000E+00 0. -1.
     999901    1    3    3    0    0 -0.81251711652E-01 -0.70765438232E-01  0.87364963367E-01  0.89086599706E+00  0.88000000000E+00 0.  1.
        -11    1    4    4    0    0  0.46440344500E-01  0.19844886017E-01 -0.59057908855E-01  0.77708576217E-01  0.51100000000E-03 0.  1.
         11    1    4    4    0    0  0.29941934781E-01  0.27300506528E-01 -0.31094606044E-01  0.51078104518E-01  0.51100000000E-03 0. -1.
</event>
<event>
 8    1  0.1064839E+005  0.1043930E+01  0.7957747E-01            NaN
         13   -1    0    0    0    0  0.00000000000E+00  0.00000000000E+00  0.74505805969E-08  0.10566000000E+00  0.10566000000E+00 0.  1.
     999900   -1    0    0    0    0 -0.00000000000E+00 -0.00000000000E+00 -0.74505805969E-08  0.93827000000E+00  0.93827000000E+00 0. -1.
     999902    2    1    2    0    0 -0.14515215131E-01  0.66141971587E-02 -0.17254580167E-01  0.10204319232E+01  0.10201613355E+01 0.  0.
     999903    2    3    3    0    0 -0.58736238328E-01 -0.46552242005E-01 -0.10837622494E+00  0.13302822521E+00  0.18276915502E-01 0.  0.
         14    1    1    2    0    0  0.14515215131E-01 -0.66141971587E-02  0.17254580167E-01  0.23498076753E-01  0.00000000000E+00 0.  1.
     999901    1    3    3    0    0  0.44221023196E-01  0.53166439164E-01  0.91121644777E-01  0.88740369804E+00  0.88000000000E+00 0.  1.
        -11    1    4    4    0    0 -0.47032174965E-01 -0.26753594159E-01 -0.77639430839E-01  0.94635736508E-01  0.51100000000E-03 0. -1.
         11    1    4    4    0    0 -0.11704063363E-01 -0.19798647846E-01 -0.30736794105E-01  0.38392488700E-01  0.51100000000E-03 0.  1.
</event>
<event>
 8    1  0.1064839E+005  0.1043930E+01  0.7957747E-01            NaN
         13   -1    0    0    0    0  0.00000000000E+00  0.00000000000E+00  0.74505805969E-08  0.10566000000E+00  0.10566000000E+00 0. -1.
     999900   -1    0    0    0    0 -0.00000000000E+00 -0.00000000000E+00 -0.74505805969E-08  0.93827000000E+00  0.93827000000E+00 0.  1.
     999902    2    1    2    0    0  0.35120228469E-02  0.25659800451E-02  0.19420408095E-01  0.10240284722E+01  0.10238350654E+01 0.  0.
     999903    2    3    3    0    0 -0.81313677578E-02  0.92699492173E-01 -0.91979900847E-01  0.13236169174E+00  0.20000007226E-01 0.  0.
         14    1    1    2    0    0 -0.35120228469E-02 -0.25659800451E-02 -0.19420408095E-01  0.19901527797E-01  0.00000000000E+00 0.  1.
     999901    1    3    3    0    0  0.11643390605E-01 -0.90133512128E-01  0.11140030894E+00  0.89166678047E+00  0.88000000000E+00 0.  1.
        -11    1    4    4    0    0 -0.69931987308E-02  0.22532561609E-01 -0.33691919607E-01  0.41134264658E-01  0.51100000000E-03 0. -1.
         11    1    4    4    0    0 -0.11381690270E-02  0.70166930564E-01 -0.58287981240E-01  0.91227427079E-01  0.51100000000E-03 0.  1.
</event>
<event>
 8    1  0.1064839E+005  0.1043930E+01  0.7957747E-01            NaN
         13   -1    0    0    0    0  0.00000000000E+00  0.00000000000E+00  0.74505805969E-08  0.10566000000E+00  0.10566000000E+00 0.  1.
     999900   -1    0    0    0    0 -0.00000000000E+00 -0.00000000000E+00 -0.74505805969E-08  0.93827000000E+00  0.93827000000E+00 0.  1.
     999902    2    1    2    0    0 -0.67941752443E-02 -0.11523410500E-01  0.17261435875E-01  0.10220918001E+01  0.10218584740E+01 0.  0.
     999903    2    3    3    0    0  0.41059223533E-01 -0.66437677102E-01 -0.10308700855E+00  0.13091882444E+00  0.20321970522E-01 0.  0.
         14    1    1    2    0    0  0.67941752443E-02  0.11523410500E-01 -0.17261435875E-01  0.21838199909E-01  0.00000000000E+00 0. -1.
     999901    1    3    3    0    0 -0.47853398777E-01  0.54914266602E-01  0.12034844442E+00  0.89117297565E+00  0.88000000000E+00 0. -1.
        -11    1    4    4    0    0  0.36922199204E-01 -0.52143810222E-01 -0.70826088003E-01  0.95387743454E-01  0.51100000000E-03 0. -1.
         11    1    4    4    0    0  0.41370243287E-02 -0.14293866880E-01 -0.32260920546E-01  0.35531080988E-01  0.51100000000E-03 0.  1.
</event>
<event>
 8    1  0.1064839E+005  0.1043930E+01  0.7957747E-01            NaN
         13   -1    0    0    0    0  0.00000000000E+00  0.00000000000E+00  0.74505805969E-08  0.10566000000E+00  0.10566000000E+00 0. -1.
     999900   -1    0    0    0    0 -0.00000000000E+00 -0.00000000000E+00 -0.74505805969E-08  0.93827000000E+00  0.93827000000E+00 0.  1.
     999902    2    1    2    0    0 -0.48113147637E-02 -0.22399153600E-01  0.29574545899E-02  0.10208298405E+01  0.10205684425E+01 0.  0.
     999903    2    3    3    0    0  0.24154309683E-01  0.11690772608E+00  0.42802901220E-01  0.12851090998E+00  0.20787461088E-01 0.  0.
         14    1    1    2    0    0  0.48113147637E-02  0.22399153600E-01 -0.29574545899E-02  0.23100159510E-01  0.00000000000E+00 0.  1.
     999901    1    3    3    0    0 -0.28965624447E-01 -0.13930687968E+00 -0.39845446630E-01  0.89231893051E+00  0.88000000000E+00 0.  1.
        -11    1    4    4    0    0  0.18096183298E-01  0.54640238211E-01  0.12098049182E-01  0.58818801388E-01  0.51100000000E-03 0. -1.
         11    1    4    4    0    0  0.60581263850E-02  0.62267487868E-01  0.30704852038E-01  0.69692108594E-01  0.51100000000E-03 0.  1.
</event>
<event>
 8    1  0.1064839E+005  0.1043930E+01  0.7957747E-01            NaN
         13   -1    0    0    0    0  0.00000000000E+00  0.00000000000E+00  0.74505805969E-08  0.10566000000E+00  0.10566000000E+00 0.  1.
     999900   -1    0    0    0    0 -0.00000000000E+00 -0.00000000000E+00 -0.74505805969E-08  0.93827000000E+00  0.93827000000E+00 0.  1.
     999902    2    1    2    0    0  0.14733050416E-01 -0.27633531747E-01 -0.16548890848E-01  0.10085105048E+01  0.10078883359E+01 0.  0.
     999903    2    3    3    0    0 -0.10698992347E+00 -0.20256236022E-01 -0.45352871832E-01  0.11963448635E+00  0.19959171309E-01 0.  0.
         14    1    1    2    0    0 -0.14733050416E-01  0.27633531747E-01  0.16548890848E-01  0.35419495193E-01  0.00000000000E+00 0.  1.
     999901    1    3    3    0    0  0.12172297389E+00 -0.73772957251E-02  0.28803980984E-01  0.88887601846E+00  0.88000000000E+00 0. -1.
        -11    1    4    4    0    0 -0.70749763972E-01 -0.18337618553E-01 -0.38812204538E-01  0.82755336374E-01  0.51100000000E-03 0. -1.
         11    1    4    4    0    0 -0.36240159498E-01 -0.19186174693E-02 -0.65406672939E-02  0.36879149978E-01  0.51100000000E-03 0.  1.
</event>
<event>
 8    1  0.1064839E+005  0.1043930E+01  0.7957747E-01            NaN
         13   -1    0    0    0    0  0.00000000000E+00  0.00000000000E+00  0.74505805969E-08  0.10566000000E+00  0.10566000000E+00 0. -1.
     999900   -1    0    0    0    0 -0.00000000000E+00 -0.00000000000E+00 -0.74505805969E-08  0.93827000000E+00  0.93827000000E+00 0. -1.
     999902    2    1    2    0    0  0.80617155221E-02  0.15138591541E-01 -0.20728620245E-01  0.10170256526E+01  0.10166697272E+01 0.  0.
     999903    2    3    3    0    0  0.20836056828E-01 -0.12234098611E+00 -0.12767670015E-01  0.12622421863E+00  0.19185458633E-01 0.  0.
         14    1    1    2    0    0 -0.80617155221E-02 -0.15138591541E-01  0.20728620245E-01  0.26904347386E-01  0.00000000000E+00 0. -1.
     999901    1    3    3    0    0 -0.12774341306E-01  0.13747957765E+00 -0.79609502299E-02  0.89080143399E+00  0.88000000000E+00 0.  1.
        -11    1    4    4    0    0  0.17823487194E-01 -0.75855425834E-01 -0.95294092948E-05  0.77922933312E-01  0.51100000000E-03 0. -1.
         11    1    4    4    0    0  0.30125696342E-02 -0.46485560278E-01 -0.12758140606E-01  0.48301285313E-01  0.51100000000E-03 0.  1.
</event>
<event>
 8    1  0.1064839E+005  0.1043930E+01  0.7957747E-01            NaN
         13   -1    0    0    0    0  0.00000000000E+00  0.00000000000E+00  0.74505805969E-08  0.10566000000E+00  0.10566000000E+00 0.  1.
     999900   -1    0    0    0    0 -0.00000000000E+00 -0.00000000000E+00 -0.74505805969E-08  0.93827000000E+00  0.93827000000E+00 0.  1.
     999902    2    1    2    0    0  0.55577414960E-02 -0.82139429991E-02  0.21451570352E-01  0.10202968195E+01  0.10200230746E+01 0.  0.
     999903    2    3    3    0    0  0.51518091355E-01  0.86415605995E-01 -0.77058750107E-01  0.12857298975E+00  0.21706958074E-01 0.  0.
         14    1    1    2    0    0 -0.55577414960E-02  0.82139429991E-02 -0.21451570352E-01  0.23633180503E-01  0.00000000000E+00 0. -1.
     999901    1    3    3    0    0 -0.45960349859E-01 -0.94629548994E-01  0.98510320459E-01  0.89172382975E+00  0.88000000000E+00 0.  1.
        -11    1    4    4    0    0  0.33540480599E-01  0.46828807830E-01 -0.55702290387E-01  0.80130564437E-01  0.51100000000E-03 0.  1.
         11    1    4    4    0    0  0.17977610756E-01  0.39586798165E-01 -0.21356459720E-01  0.48442425313E-01  0.51100000000E-03 0. -1.
</event>
<event>
 8    1  0.1064839E+005  0.1043930E+01  0.7957747E-01            NaN
         13   -1    0    0    0    0  0.00000000000E+00  0.00000000000E+00  0.74505805969E-08  0.10566000000E+00  0.10566000000E+00 0. -1.
     999900   -1    0    0    0    0 -0.00000000000E+00 -0.00000000000E+00 -0.74505805969E-08  0.93827000000E+00  0.93827000000E+00 0. -1.
     999902    2    1    2    0    0 -0.20605298159E-01 -0.30121016822E-02 -0.12642284834E-01  0.10195685872E+01  0.10192775017E+01 0.  0.
     999903    2    3    3    0    0 -0.94395887448E-01  0.88465680757E-01  0.84072939252E-02  0.13150534590E+00  0.22050241951E-01 0.  0.
         14    1    1    2    0    0  0.20605298159E-01  0.30121016822E-02  0.12642284834E-01  0.24361412820E-01  0.00000000000E+00 0. -1.
     999901    1    3    3    0    0  0.73790589288E-01 -0.91477782439E-01 -0.21049578759E-01  0.88806324128E+00  0.88000000000E+00 0. -1.
        -11    1    4    4    0    0 -0.38636416137E-01  0.51287655345E-01  0.45495640592E-02  0.64375118616E-01  0.51100000000E-03 0. -1.
         11    1    4    4    0    0 -0.55759471311E-01  0.37178025413E-01  0.38577298660E-02  0.67130227284E-01  0.51100000000E-03 0.  1.
</event>
<event>
 8    1  0.1064839E+005  0.1043930E+01  0.7957747E-01            NaN
         13   -1    0    0    0    0  0.00000000000E+00  0.00000000000E+00  0.74505805969E-08  0.10566000000E+00  0.10566000000E+00 0.  1.
     999900   -1    0    0    0    0 -0.00000000000E+00 -0.00000000000E+00 -0.74505805969E-08  0.93827000000E+00  0.93827000000E+00 0.  1.
     999902    2    1    2    0    0 -0.13689112292E-01  0.81754583499E-02 -0.15937234992E-01  0.10213861455E+01  0.10211373233E+01 0.  0.
     999903    2    3    3    0    0 -0.43403136577E-01 -0.89397657416E-01  0.81630883587E-01  0.13013815877E+00  0.19913959861E-01 0.  0.
         14    1    1    2    0    0  0.13689112292E-01 -0.81754583499E-02  0.15937234992E-01  0.22543854456E-01  0.00000000000E+00 0.  1.
     999901    1    3    3    0    0  0.29714024286E-01  0.97573115766E-01 -0.97568118579E-01  0.89124798677E+00  0.88000000000E+00 0.  1.
        -11    1    4    4    0    0 -0.26854370119E-01 -0.68479428861E-01  0.50947566899E-01  0.89479076132E-01  0.51100000000E-03 0. -1.
         11    1    4    4    0    0 -0.16548766459E-01 -0.20918228556E-01  0.30683316688E-01  0.40659082641E-01  0.51100000000E-03 0.  1.
</event>
<event>
 8    1  0.1064839E+005  0.1043930E+01  0.7957747E-01            NaN
         13   -1    0    0    0    0  0.00000000000E+00  0.00000000000E+00  0.74505805969E-08  0.10566000000E+00  0.10566000000E+00 0.  1.
     999900   -1    0    0    0    0 -0.00000000000E+00 -0.00000000000E+00 -0.74505805969E-08  0.93827000000E+00  0.93827000000E+00 0.  1.
     999902    2    1    2    0    0 -0.24261237871E-02  0.10266653591E-01  0.22644787747E-01  0.10189484735E+01  0.10186421919E+01 0.  0.
     999903    2    3    3    0    0  0.73705912251E-01 -0.10011702223E+00  0.26474588841E-01  0.12878258440E+00  0.20689865840E-01 0.  0.
         14    1    1    2    0    0  0.24261237871E-02 -0.10266653591E-01 -0.22644787747E-01  0.24981526469E-01  0.00000000000E+00 0. -1.
     999901    1    3    3    0    0 -0.76132036039E-01  0.11038367582E+00 -0.38298010941E-02  0.89016588913E+00  0.88000000000E+00 0.  1.
        -11    1    4    4    0    0  0.16210693245E-01 -0.24643996851E-01  0.15339859761E-01  0.33251850697E-01  0.51100000000E-03 0. -1.
         11    1    4    4    0    0  0.57495219006E-01 -0.75473025381E-01  0.11134729080E-01  0.95530733701E-01  0.51100000000E-03 0.  1.
</event>
<event>
 8    1  0.1064839E+005  0.1043930E+01  0.7957747E-01            NaN
         13   -1    0    0    0    0  0.00000000000E+00  0.00000000000E+00  0.74505805969E-08  0.10566000000E+00  0.10566000000E+00 0. -1.
     999900   -1    0    0    0    0 -0.00000000000E+00 -0.00000000000E+00 -0.74505805969E-08  0.93827000000E+00  0.93827000000E+00 0. -1.
     999902    2    1    2    0    0 -0.14580984502E-01 -0.12819215001E-01 -0.14351376016E-01  0.10197866909E+01  0.10195008561E+01 0.  0.
     999903    2    3    3    0    0 -0.12080048680E+00 -0.18608753901E-02  0.46489057812E-01  0.13124618742E+00  0.21635820924E-01 0.  0.
         14    1    1    2    0    0  0.14580984502E-01  0.12819215001E-01  0.14351376016E-01  0.24143309132E-01  0.00000000000E+00 0.  1.
     999901    1    3    3    0    0  0.10621950230E+00 -0.10958339610E-01 -0.60840433828E-01  0.88854050345E+00  0.88000000000E+00 0. -1.
        -11    1    4    4    0    0 -0.11544850680E+00  0.24866688049E-02  0.41448722132E-01  0.12268984853E+00  0.51100000000E-03 0.  1.
         11    1    4    4    0    0 -0.53519800006E-02 -0.43475441950E-02  0.50403356806E-02  0.85563388916E-02  0.51100000000E-03 0. -1.
</event>
<event>
 8    1  0.1064839E+005  0.1043930E+01  0.7957747E-01            NaN
         13   -1    0    0    0    0  0.00000000000E+00  0.00000000000E+00  0.74505805969E-08  0.10566000000E+00  0.10566000000E+00 0.  1.
     999900   -1    0    0    0    0 -0.00000000000E+00 -0.00000000000E+00 -0.74505805969E-08  0.93827000000E+00  0.93827000000E+00 0. -1.
     999902    2    1    2    0    0 -0.90493843750E-02 -0.13979038799E-01 -0.16458363744E-01  0.10205166999E+01  0.10202480837E+01 0.  0.
     999903    2    3    3    0    0 -0.98149093362E-01 -0.86943139759E-01 -0.88430124814E-02  0.13298049686E+00  0.20328787397E-01 0.  0.
         14    1    1    2    0    0  0.90493843750E-02  0.13979038799E-01  0.16458363744E-01  0.23413300076E-01  0.00000000000E+00 0.  1.
     999901    1    3    3    0    0  0.89099708987E-01  0.72964100960E-01 -0.76153512626E-02  0.88753620306E+00  0.88000000000E+00 0. -1.
        -11    1    4    4    0    0 -0.24657289124E-01 -0.18421706319E-01 -0.10383984962E-01  0.32487373475E-01  0.51100000000E-03 0. -1.
         11    1    4    4    0    0 -0.73491804238E-01 -0.68521433440E-01  0.15409724805E-02  0.10049312339E+00  0.51100000000E-03 0.  1.
</event>
<event>
 8    1  0.1064839E+005  0.1043930E+01  0.7957747E-01            NaN
         13   -1    0    0    0    0  0.00000000000E+00  0.00000000000E+00  0.74505805969E-08  0.10566000000E+00  0.10566000000E+00 0.  1.
     999900   -1    0    0    0    0 -0.00000000000E+00 -0.00000000000E+00 -0.74505805969E-08  0.93827000000E+00  0.93827000000E+00 0. -1.
     999902    2    1    2    0    0 -0.22768607056E-01  0.31662941237E-02 -0.95288227553E-02  0.10190456003E+01  0.10187417249E+01 0.  0.
     999903    2    3    3    0    0 -0.79284279420E-01 -0.37703860333E-01 -0.96470615763E-01  0.13201501112E+00  0.20342207578E-01 0.  0.
         14    1    1    2    0    0  0.22768607056E-01 -0.31662941237E-02  0.95288227553E-02  0.24884399708E-01  0.00000000000E+00 0.  1.
     999901    1    3    3    0    0  0.56515672364E-01  0.40870154456E-01  0.86941793008E-01  0.88703058917E+00  0.88000000000E+00 0.  1.
        -11    1    4    4    0    0 -0.24592759037E-01 -0.22398172582E-02 -0.30865266541E-01  0.39531587093E-01  0.51100000000E-03 0.  1.
         11    1    4    4    0    0 -0.54691520383E-01 -0.35464043074E-01 -0.65605349222E-01  0.92483424031E-01  0.51100000000E-03 0. -1.
</event>
<event>
 8    1  0.1064839E+005  0.1043930E+01  0.7957747E-01            NaN
         13   -1    0    0    0    0  0.00000000000E+00  0.00000000000E+00  0.74505805969E-08  0.10566000000E+00  0.10566000000E+00 0. -1.
     999900   -1    0    0    0    0 -0.00000000000E+00 -0.00000000000E+00 -0.74505805969E-08  0.93827000000E+00  0.93827000000E+00 0.  1.
     999902    2    1    2    0    0  0.19609300032E-01  0.11065461560E-01 -0.86216573241E-02  0.10198197934E+01  0.10195347512E+01 0.  0.
     999903    2    3    3    0    0 -0.12127661713E+00 -0.25020840146E-01 -0.24233967147E-01  0.12774647408E+00  0.19945329586E-01 0.  0.
         14    1    1    2    0    0 -0.19609300032E-01 -0.11065461560E-01  0.86216573241E-02  0.24110206600E-01  0.00000000000E+00 0. -1.
     999901    1    3    3    0    0  0.14088591716E+00  0.36086301706E-01  0.15612309823E-01  0.89207331932E+00  0.88000000000E+00 0.  1.
        -11    1    4    4    0    0 -0.31793417888E-01 -0.15165805031E-01 -0.98389653560E-02  0.36577170797E-01  0.51100000000E-03 0. -1.
         11    1    4    4    0    0 -0.89483199241E-01 -0.98550351153E-02 -0.14395001791E-01  0.91169303282E-01  0.51100000000E-03 0.  1.
</event>
<event>
 8    1  0.1064839E+005  0.1043930E+01  0.7957747E-01            NaN
         13   -1    0    0    0    0  0.00000000000E+00  0.00000000000E+00  0.74505805969E-08  0.10566000000E+00  0.10566000000E+00 0. -1.
     999900   -1    0    0    0    0 -0.00000000000E+00 -0.00000000000E+00 -0.74505805969E-08  0.93827000000E+00  0.93827000000E+00 0.  1.
     999902    2    1    2    0    0  0.15737192625E-01  0.16542262706E-01  0.47173594636E-02  0.10206156446E+01  0.10203493200E+01 0.  0.
     999903    2    3    3    0    0  0.90163103964E-01  0.56896356250E-01  0.77895154727E-01  0.13352903166E+00  0.19893880861E-01 0.  0.
         14    1    1    2    0    0 -0.15737192625E-01 -0.16542262706E-01 -0.47173594636E-02  0.23314355394E-01  0.00000000000E+00 0.  1.
     999901    1    3    3    0    0 -0.74425911340E-01 -0.40354093544E-01 -0.73177795263E-01  0.88708661294E+00  0.88000000000E+00 0.  1.
        -11    1    4    4    0    0  0.56647869350E-01  0.26806881522E-01  0.37561382375E-01  0.73066466767E-01  0.51100000000E-03 0.  1.
         11    1    4    4    0    0  0.33515234615E-01  0.30089474728E-01  0.40333772351E-01  0.60462564895E-01  0.51100000000E-03 0. -1.
</event>
<event>
 8    1  0.1064839E+005  0.1043930E+01  0.7957747E-01            NaN
         13   -1    0    0    0    0  0.00000000000E+00  0.00000000000E+00  0.74505805969E-08  0.10566000000E+00  0.10566000000E+00 0. -1.
     999900   -1    0    0    0    0 -0.00000000000E+00 -0.00000000000E+00 -0.74505805969E-08  0.93827000000E+00  0.93827000000E+00 0. -1.
     999902    2    1    2    0    0 -0.12881080036E-01  0.86816291550E-02 -0.18071514236E-01  0.10200999237E+01  0.10198215441E+01 0.  0.
     999903    2    3    3    0    0  0.11920590287E+00 -0.12467389850E-01 -0.45724009914E-01  0.12956137175E+00  0.18165375838E-01 0.  0.
         14    1    1    2    0    0  0.12881080036E-01 -0.86816291550E-02  0.18071514236E-01  0.23830076258E-01  0.00000000000E+00 0. -1.
     999901    1    3    3    0    0 -0.13208698291E+00  0.21149019005E-01  0.27652495678E-01  0.89053855199E+00  0.88000000000E+00 0. -1.
        -11    1    4    4    0    0  0.57766241538E-01  0.19660016818E-02 -0.26477616652E-01  0.63577740826E-01  0.51100000000E-03 0.  1.
         11    1    4    4    0    0  0.61439661334E-01 -0.14433391532E-01 -0.19246393261E-01  0.65983630928E-01  0.51100000000E-03 0. -1.
</event>
<event>
 8    1  0.1064839E+005  0.1043930E+01  0.7957747E-01            NaN
         13   -1    0    0    0    0  0.00000000000E+00  0.00000000000E+00  0.74505805969E-08  0.10566000000E+00  0.10566000000E+00 0. -1.
     999900   -1    0    0    0    0 -0.00000000000E+00 -0.00000000000E+00 -0.74505805969E-08  0.93827000000E+00  0.93827000000E+00 0.  1.
     999902    2    1    2    0    0 -0.95007508630E-02  0.12803790889E-01  0.17096628546E-01  0.10205527453E+01  0.10202849651E+01 0.  0.
     999903    2    3    3    0    0 -0.53012034829E-01 -0.11549379148E+00  0.19834166107E-01  0.13018147694E+00  0.20117929426E-01 0.  0.
         14    1    1    2    0    0  0.95007508630E-02 -0.12803790889E-01 -0.17096628546E-01  0.23377254667E-01  0.00000000000E+00 0.  1.
     999901    1    3    3    0    0  0.43511283966E-01  0.12829758237E+00 -0.27375375613E-02  0.89037126840E+00  0.88000000000E+00 0. -1.
        -11    1    4    4    0    0 -0.44026643444E-01 -0.73212604018E-01  0.12946831789E-01  0.86407825423E-01  0.51100000000E-03 0. -1.
         11    1    4    4    0    0 -0.89853913855E-02 -0.42281187465E-01  0.68873343190E-02  0.43773651513E-01  0.51100000000E-03 0.  1.
</event>
<event>
 8    1  0.1064839E+005  0.1043930E+01  0.7957747E-01            NaN
         13   -1    0    0    0    0  0.00000000000E+00  0.00000000000E+00  0.74505805969E-08  0.10566000000E+00  0.10566000000E+00 0.  1.
     999900   -1    0    0    0    0 -0.00000000000E+00 -0.00000000000E+00 -0.74505805969E-08  0.93827000000E+00  0.93827000000E+00 0.  1.
     999902    2    1    2    0    0  0.79236513024E-02 -0.11419100935E-01 -0.19412875682E-01  0.10200544925E+01  0.10197750378E+01 0.  0.
     999903    2    3    3    0    0 -0.89234918155E-01  0.26266556365E-01 -0.89993180127E-01  0.13109916417E+00  0.20866618705E-01 0.  0.
         14    1    1    2    0    0 -0.79236513024E-02  0.11419100935E-01  0.19412875682E-01  0.23875507500E-01  0.00000000000E+00 0.  1.
     999901    1    3    3    0    0  0.97158569457E-01 -0.37685657300E-01  0.70580304445E-01  0.88895532833E+00  0.88000000000E+00 0. -1.
        -11    1    4    4    0    0 -0.40386373208E-01  0.11900944893E-01 -0.55206348471E-01  0.69431215334E-01  0.51100000000E-03 0.  1.
         11    1    4    4    0    0 -0.48848544947E-01  0.14365611472E-01 -0.34786831656E-01  0.61667948839E-01  0.51100000000E-03 0. -1.
</event>
<event>
 8    1  0.1310533E+005  0.1043930E+01  0.7957747E-01            NaN
         13   -1    0    0    0    0  0.00000000000E+00  0.00000000000E+00  0.74505805969E-08  0.10566000000E+00  0.10566000000E+00 0.  1.
     999900   -1    0    0    0    0 -0.00000000000E+00 -0.00000000000E+00 -0.74505805969E-08  0.93827000000E+00  0.93827000000E+00 0.  1.
     999902    2    1    2    0    0 -0.21409232623E-01  0.75306659275E-02  0.12791984906E-01  0.10178781085E+01  0.10175446638E+01 0.  0.
     999903    2    3    3    0    0 -0.12330316343E+00  0.34690342346E-01 -0.19000071847E-01  0.13101241632E+00  0.19903782004E-01 0.  0.
         14    1    1    2    0    0  0.21409232623E-01 -0.75306659275E-02 -0.12791984906E-01  0.26051891460E-01  0.00000000000E+00 0. -1.
     999901    1    3    3    0    0  0.10189393080E+00 -0.27159676418E-01  0.31792056752E-01  0.88686569222E+00  0.88000000000E+00 0. -1.
        -11    1    4    4    0    0 -0.67227740787E-01  0.29113389836E-01 -0.11557526218E-01  0.74168700490E-01  0.51100000000E-03 0. -1.
         11    1    4    4    0    0 -0.56075422638E-01  0.55769525093E-02 -0.74425456285E-02  0.56843715833E-01  0.51100000000E-03 0.  1.
</event>
<event>
 8    1  0.1064839E+005  0.1043930E+01  0.7957747E-01            NaN
         13   -1    0    0    0    0  0.00000000000E+00  0.00000000000E+00  0.74505805969E-08  0.10566000000E+00  0.10566000000E+00 0. -1.
     999900   -1    0    0    0    0 -0.00000000000E+00 -0.00000000000E+00 -0.74505805969E-08  0.93827000000E+00  0.93827000000E+00 0. -1.
     999902    2    1    2    0    0  0.17222204208E-01  0.21712384021E-03  0.15900547601E-01  0.10204890343E+01  0.10202197754E+01 0.  0.
     999903    2    3    3    0    0  0.31304290219E-01 -0.10640749454E+00 -0.65330054598E-01  0.13022754171E+00  0.19715047684E-01 0.  0.
         14    1    1    2    0    0 -0.17222204208E-01 -0.21712384021E-03 -0.15900547601E-01  0.23440965735E-01  0.00000000000E+00 0.  1.
     999901    1    3    3    0    0 -0.14082086011E-01  0.10662461838E+00  0.81230602199E-01  0.89026149255E+00  0.88000000000E+00 0.  1.
        -11    1    4    4    0    0  0.18086793308E-01 -0.80684027752E-01 -0.55874757651E-01  0.99796262906E-01  0.51100000000E-03 0. -1.
         11    1    4    4    0    0  0.13217496911E-01 -0.25723466791E-01 -0.94552969472E-02  0.30431278805E-01  0.51100000000E-03 0.  1.
</event>
<event>
 8    1  0.1064839E+005  0.1043930E+01  0.7957747E-01            NaN
         13   -1    0    0    0    0  0.00000000000E+00  0.00000000000E+00  0.74505805969E-08  0.10566000000E+00  0.10566000000E+00 0.  1.
     999900   -1    0    0    0    0 -0.00000000000E+00 -0.00000000000E+00 -0.74505805969E-08  0.93827000000E+00  0.93827000000E+00 0. -1.
     999902    2    1    2    0    0 -0.18469380702E-01  0.14081245423E-01 -0.18840564231E-03  0.10207042601E+01  0.10204399794E+01 0.  0.
     999903    2    3    3    0    0 -0.67075486270E-01  0.99320336777E-01 -0.55214124794E-01  0.13354244514E+00  0.20526444447E-01 0.  0.
         14    1    1    2    0    0  0.18469380702E-01 -0.14081245423E-01  0.18840564231E-03  0.23225739877E-01  0.00000000000E+00 0.  1.
     999901    1    3    3    0    0  0.48606105568E-01 -0.85239091355E-01  0.55025719151E-01  0.88716181498E+00  0.88000000000E+00 0.  1.
        -11    1    4    4    0    0 -0.65068951011E-02  0.20262250804E-01 -0.15451255863E-01  0.26304009585E-01  0.51100000000E-03 0. -1.
         11    1    4    4    0    0 -0.60568591169E-01  0.79058085974E-01 -0.39762868930E-01  0.10723843556E+00  0.51100000000E-03 0.  1.
</event>
<event>
 8    1  0.1064839E+005  0.1043930E+01  0.7957747E-01            NaN
         13   -1    0    0    0    0  0.00000000000E+00  0.00000000000E+00  0.74505805969E-08  0.10566000000E+00  0.10566000000E+00 0. -1.
     999900   -1    0    0    0    0 -0.00000000000E+00 -0.00000000000E+00 -0.74505805969E-08  0.93827000000E+00  0.93827000000E+00 0. -1.
     999902    2    1    2    0    0  0.69193054260E-02  0.92516824680E-02 -0.21324929803E-01  0.10196766900E+01  0.10193882131E+01 0.  0.
     999903    2    3    3    0    0  0.12313822105E+00  0.40781295749E-01  0.11464778869E-02  0.13119150888E+00  0.19589844943E-01 0.  0.
         14    1    1    2    0    0 -0.69193054260E-02 -0.92516824680E-02  0.21324929803E-01  0.24253310025E-01  0.00000000000E+00 0. -1.
     999901    1    3    3    0    0 -0.11621891562E+00 -0.31529613281E-01 -0.22471407689E-01  0.88848518110E+00  0.88000000000E+00 0.  1.
        -11    1    4    4    0    0  0.64980415875E-02  0.72577251306E-02  0.11981314766E-02  0.98283141270E-02  0.51100000000E-03 0. -1.
         11    1    4    4    0    0  0.11664017946E+00  0.33523570618E-01 -0.51653589718E-04  0.12136319475E+00  0.51100000000E-03 0.  1.
</event>
<event>
 8    1  0.1064839E+005  0.1043930E+01  0.7957747E-01            NaN
         13   -1    0    0    0    0  0.00000000000E+00  0.00000000000E+00  0.74505805969E-08  0.10566000000E+00  0.10566000000E+00 0. -1.
     999900   -1    0    0    0    0 -0.00000000000E+00 -0.00000000000E+00 -0.74505805969E-08  0.93827000000E+00  0.93827000000E+00 0. -1.
     999902    2    1    2    0    0 -0.29595988042E-02 -0.20438425311E-01  0.12807059440E-01  0.10196296044E+01  0.10193399928E+01 0.  0.
     999903    2    3    3    0    0  0.39218533146E-01 -0.11937116388E+00 -0.34130072756E-01  0.13184034115E+00  0.20723068835E-01 0.  0.
         14    1    1    2    0    0  0.29595988042E-02  0.20438425311E-01 -0.12807059440E-01  0.24300395589E-01  0.00000000000E+00 0.  1.
     999901    1    3    3    0    0 -0.42178131951E-01  0.98932738566E-01  0.46937132196E-01  0.88778926326E+00  0.88000000000E+00 0. -1.
        -11    1    4    4    0    0  0.26368468947E-01 -0.68716109091E-01 -0.10010470621E-01  0.74281023460E-01  0.51100000000E-03 0.  1.
         11    1    4    4    0    0  0.12850064199E-01 -0.50655054786E-01 -0.24119602135E-01  0.57559317694E-01  0.51100000000E-03 0. -1.
</event>
<event>
 8    1  0.1064839E+005  0.1043930E+01  0.7957747E-01            NaN
         13   -1    0    0    0    0  0.00000000000E+00  0.00000000000E+00  0.74505805969E-08  0.10566000000E+00  0.10566000000E+00 0. -1.
     999900   -1    0    0    0    0 -0.00000000000E+00 -0.00000000000E+00 -0.74505805969E-08  0.93827000000E+00  0.93827000000E+00 0.  1.
     999902    2    1    2    0    0  0.18146577682E-01 -0.15937039345E-01  0.11431819776E-01  0.10172097079E+01  0.10168587001E+01 0.  0.
     999903    2    3    3    0    0 -0.15609708885E-01  0.10491143761E+00  0.66681423656E-01  0.12659398834E+00  0.18153591066E-01 0.  0.
         14    1    1    2    0    0 -0.18146577682E-01  0.15937039345E-01 -0.11431819776E-01  0.26720292065E-01  0.00000000000E+00 0. -1.
     999901    1    3    3    0    0  0.33756286567E-01 -0.12084847696E+00 -0.55249603880E-01  0.89061571960E+00  0.88000000000E+00 0.  1.
        -11    1    4    4    0    0 -0.73012294702E-02  0.81836257661E-01  0.44089096023E-01  0.93244788213E-01  0.51100000000E-03 0.  1.
         11    1    4    4    0    0 -0.83084794143E-02  0.23075179953E-01  0.22592327633E-01  0.33349200124E-01  0.51100000000E-03 0. -1.
</event>
<event>
 8    1  0.1064839E+005  0.1043930E+01  0.7957747E-01            NaN
         13   -1    0    0    0    0  0.00000000000E+00  0.00000000000E+00  0.74505805969E-08  0.10566000000E+00  0.10566000000E+00 0.  1.
     999900   -1    0    0    0    0 -0.00000000000E+00 -0.00000000000E+00 -0.74505805969E-08  0.93827000000E+00  0.93827000000E+00 0.  1.
     999902    2    1    2    0    0 -0.77440552857E-02 -0.53002560230E-03  0.22366893884E-01  0.10202545008E+01  0.10199797631E+01 0.  0.
     999903    2    3    3    0    0  0.42510128266E-01 -0.11085726911E+00  0.52774371807E-01  0.13142257163E+00  0.19756338124E-01 0.  0.
         14    1    1    2    0    0  0.77440552857E-02  0.53002560230E-03 -0.22366893884E-01  0.23675499181E-01  0.00000000000E+00 0. -1.
     999901    1    3    3    0    0 -0.50254183551E-01  0.11032724351E+00 -0.30407477922E-01  0.88883192918E+00  0.88000000000E+00 0.  1.
        -11    1    4    4    0    0  0.38519241099E-01 -0.81783347279E-01  0.45389027180E-01  0.10115667421E+00  0.51100000000E-03 0. -1.
         11    1    4    4    0    0  0.39908871672E-02 -0.29073921830E-01  0.73853446271E-02  0.30265897429E-01  0.51100000000E-03 0.  1.
</event>
<event>
 8    1  0.1064839E+005  0.1043930E+01  0.7957747E-01            NaN
         13   -1    0    0    0    0  0.00000000000E+00  0.00000000000E+00  0.74505805969E-08  0.10566000000E+00  0.10566000000E+00 0.  1.
     999900   -1    0    0    0    0 -0.00000000000E+00 -0.00000000000E+00 -0.74505805969E-08  0.93827000000E+00  0.93827000000E+00 0. -1.
     999902    2    1    2    0    0  0.25730449310E-02  0.23351783030E-01 -0.73820491632E-02  0.10193043836E+01  0.10190068722E+01 0.  0.
     999903    2    3    3    0    0  0.81856802197E-01 -0.82318073236E-01 -0.51245343626E-01  0.12836329621E+00  0.19345524604E-01 0.  0.
         14    1    1    2    0    0 -0.25730449310E-02 -0.23351783030E-01  0.73820491632E-02  0.24625616353E-01  0.00000000000E+00 0.  1.
     999901    1    3    3    0    0 -0.79283757266E-01  0.10566985627E+00  0.43863294463E-01  0.89094108744E+00  0.88000000000E+00 0.  1.
        -11    1    4    4    0    0  0.74569845851E-01 -0.70938584001E-01 -0.50935495356E-01  0.11483740862E+00  0.51100000000E-03 0. -1.
         11    1    4    4    0    0  0.72869563460E-02 -0.11379489236E-01 -0.30984827046E-03  0.13525887587E-01  0.51100000000E-03 0.  1.
</event>
<event>
 8    1  0.1064839E+005  0.1043930E+01  0.7957747E-01            NaN
         13   -1    0    0    0    0  0.00000000000E+00  0.00000000000E+00  0.74505805969E-08  0.10566000000E+00  0.10566000000E+00 0.  1.
     999900   -1    0    0    0    0 -0.00000000000E+00 -0.00000000000E+00 -0.74505805969E-08  0.93827000000E+00  0.93827000000E+00 0.  1.
     999902    2    1    2    0    0 -0.33422128892E-02  0.97673580275E-02 -0.22028333602E-01  0.10196026666E+01  0.10193124048E+01 0.  0.
     999903    2    3    3    0    0  0.45356863199E-01  0.78185368901E-01  0.89333357627E-01  0.12861778989E+00  0.19796215342E-01 0.  0.
         14    1    1    2    0    0  0.33422128892E-02 -0.97673580275E-02  0.22028333602E-01  0.24327333416E-01  0.00000000000E+00 0.  1.
     999901    1    3    3    0    0 -0.48699076088E-01 -0.68418010874E-01 -0.11136169123E+00  0.89098487669E+00  0.88000000000E+00 0.  1.
        -11    1    4    4    0    0  0.26393248839E-01  0.26961807942E-01  0.40411958252E-01  0.55289512229E-01  0.51100000000E-03 0.  1.
         11    1    4    4    0    0  0.18963614360E-01  0.51223560959E-01  0.48921399375E-01  0.73328277661E-01  0.51100000000E-03 0. -1.
</event>
<event>
 8    1  0.1064839E+005  0.1043930E+01  0.7957747E-01            NaN
         13   -1    0    0    0    0  0.00000000000E+00  0.00000000000E+00  0.74505805969E-08  0.10566000000E+00  0.10566000000E+00 0.  1.
     999900   -1    0    0    0    0 -0.00000000000E+00 -0.00000000000E+00 -0.74505805969E-08  0.93827000000E+00  0.93827000000E+00 0.  1.
     999902    2    1    2    0    0  0.18185744609E-01  0.38619266872E-03 -0.11523686746E-01  0.10223970994E+01  0.10221703200E+01 0.  0.
     999903    2    3    3    0    0 -0.69513128488E-01  0.60498531933E-01  0.89849073869E-01  0.13021941404E+00  0.19801321148E-01 0.  0.
         14    1    1    2    0    0 -0.18185744609E-01 -0.38619266872E-03  0.11523686746E-01  0.21532900594E-01  0.00000000000E+00 0.  1.
     999901    1    3    3    0    0  0.87698873097E-01 -0.60112339264E-01 -0.10137276061E+00  0.89217768537E+00  0.88000000000E+00 0.  1.
        -11    1    4    4    0    0 -0.57623433049E-01  0.58547581209E-01  0.79691953408E-01  0.11445238250E+00  0.51100000000E-03 0. -1.
         11    1    4    4    0    0 -0.11889695439E-01  0.19509507236E-02  0.10157120460E-01  0.15767031534E-01  0.51100000000E-03 0.  1.
</event>
<event>
 8    1  0.1064839E+005  0.1043930E+01  0.7957747E-01            NaN
         13   -1    0    0    0    0  0.00000000000E+00  0.00000000000E+00  0.74505805969E-08  0.10566000000E+00  0.10566000000E+00 0.  1.
     999900   -1    0    0    0    0 -0.00000000000E+00 -0.00000000000E+00 -0.74505805969E-08  0.93827000000E+00  0.93827000000E+00 0. -1.
     999902    2    1    2    0    0  0.13766310206E-01 -0.50038828361E-02 -0.18096632259E-01  0.10206482853E+01  0.10203827145E+01 0.  0.
     999903    2    3    3    0    0  0.38582215849E-01 -0.11927519953E+00  0.33687661736E-01  0.13140401285E+00  0.20420466138E-01 0.  0.
         14    1    1    2    0    0 -0.13766310206E-01  0.50038828361E-02  0.18096632259E-01  0.23281714697E-01  0.00000000000E+00 0.  1.
     999901    1    3    3    0    0 -0.24815905642E-01  0.11427131669E+00 -0.51784293995E-01  0.88924427246E+00  0.88000000000E+00 0.  1.
        -11    1    4    4    0    0  0.22206716628E-01 -0.53850382828E-01  0.25045028613E-01  0.63407543505E-01  0.51100000000E-03 0.  1.
         11    1    4    4    0    0  0.16375499221E-01 -0.65424816698E-01  0.86426331238E-02  0.67996469342E-01  0.51100000000E-03 0. -1.
</event>
<event>
 8    1  0.1064839E+005  0.1043930E+01  0.7957747E-01            NaN
         13   -1    0    0    0    0  0.00000000000E+00  0.00000000000E+00  0.74505805969E-08  0.10566000000E+00  0.10566000000E+00 0.  1.
     999900   -1    0    0    0    0 -0.00000000000E+00 -0.00000000000E+00 -0.74505805969E-08  0.93827000000E+00  0.93827000000E+00 0.  1.
     999902    2    1    2    0    0  0.80043343975E-03 -0.17746441514E-01  0.16758128543E-01  0.10195084572E+01  0.10192159156E+01 0.  0.
     999903    2    3    3    0    0 -0.79237712674E-01  0.52343264452E-01 -0.82430973492E-01  0.12756835290E+00  0.21456626637E-01 0.  0.
         14    1    1    2    0    0 -0.80043343975E-03  0.17746441514E-01 -0.16758128543E-01  0.24421542792E-01  0.00000000000E+00 0. -1.
     999901    1    3    3    0    0  0.80038146114E-01 -0.70089705966E-01  0.99189102035E-01  0.89194010431E+00  0.88000000000E+00 0. -1.
        -11    1    4    4    0    0 -0.41591909015E-01  0.26225083232E-01 -0.56565564106E-01  0.74950423946E-01  0.51100000000E-03 0.  1.
         11    1    4    4    0    0 -0.37645803659E-01  0.26118181220E-01 -0.25865409386E-01  0.52617928951E-01  0.51100000000E-03 0. -1.
</event>
<event>
 8    1  0.1064839E+005  0.1043930E+01  0.7957747E-01            NaN
         13   -1    0    0    0    0  0.00000000000E+00  0.00000000000E+00  0.74505805969E-08  0.10566000000E+00  0.10566000000E+00 0. -1.
     999900   -1    0    0    0    0 -0.00000000000E+00 -0.00000000000E+00 -0.74505805969E-08  0.93827000000E+00  0.93827000000E+00 0. -1.
     999902    2    1    2    0    0 -0.81550160261E-02 -0.11855066596E-01 -0.18558590268E-01  0.10204466407E+01  0.10201763957E+01 0.  0.
     999903    2    3    3    0    0 -0.93833633911E-01 -0.80370738954E-01  0.40835237294E-01  0.13164809792E+00  0.19987459801E-01 0.  0.
         14    1    1    2    0    0  0.81550160261E-02  0.11855066596E-01  0.18558590268E-01  0.23483359281E-01  0.00000000000E+00 0. -1.
     999901    1    3    3    0    0  0.85678617885E-01  0.68515672358E-01 -0.59393827561E-01  0.88879854279E+00  0.88000000000E+00 0. -1.
        -11    1    4    4    0    0 -0.12693715165E-01 -0.17269221724E-01  0.13318610979E-01  0.25238917232E-01  0.51100000000E-03 0.  1.
         11    1    4    4    0    0 -0.81139918746E-01 -0.63101517230E-01  0.27516626315E-01  0.10640918069E+00  0.51100000000E-03 0. -1.
</event>
<event>
 8    1  0.1064839E+005  0.1043930E+01  0.7957747E-01            NaN
         13   -1    0    0    0    0  0.00000000000E+00  0.00000000000E+00  0.74505805969E-08  0.10566000000E+00  0.10566000000E+00 0.  1.
     999900   -1    0    0    0    0 -0.00000000000E+00 -0.00000000000E+00 -0.74505805969E-08  0.93827000000E+00  0.93827000000E+00 0. -1.
     999902    2    1    2    0    0  0.14932256740E-01 -0.41655612496E-02 -0.16770340870E-01  0.10210921252E+01  0.10208366959E+01 0.  0.
     999903    2    3    3    0    0  0.37181995861E-01 -0.12548163020E+00 -0.18229925176E-02  0.13236491020E+00  0.19723230379E-01 0.  0.
         14    1    1    2    0    0 -0.14932256740E-01  0.41655612496E-02  0.16770340870E-01  0.22837874787E-01  0.00000000000E+00 0.  1.
     999901    1    3    3    0    0 -0.22249739121E-01  0.12131606895E+00 -0.14947348352E-01  0.88872721501E+00  0.88000000000E+00 0.  1.
        -11    1    4    4    0    0  0.13267495263E-01 -0.32137387619E-01  0.74440804645E-02  0.35559999557E-01  0.51100000000E-03 0. -1.
         11    1    4    4    0    0  0.23914500598E-01 -0.93344242585E-01 -0.92670729821E-02  0.96804910646E-01  0.51100000000E-03 0.  1.
</event>
<event>
 8    1  0.1064839E+005  0.1043930E+01  0.7957747E-01            NaN
         13   -1    0    0    0    0  0.00000000000E+00  0.00000000000E+00  0.74505805969E-08  0.10566000000E+00  0.10566000000E+00 0.  1.
     999900   -1    0    0    0    0 -0.00000000000E+00 -0.00000000000E+00 -0.74505805969E-08  0.93827000000E+00  0.93827000000E+00 0. -1.
     999902    2    1    2    0    0 -0.64321003345E-02  0.11523649196E-01  0.19303084415E-01  0.10205467694E+01  0.10202788506E+01 0.  0.
     999903    2    3    3    0    0  0.12236434648E-01  0.99673558069E-01  0.85571721265E-01  0.13346703630E+00  0.20158913378E-01 0.  0.
         14    1    1    2    0    0  0.64321003345E-02 -0.11523649196E-01 -0.19303084415E-01  0.23383230603E-01  0.00000000000E+00 0. -1.
     999901    1    3    3    0    0 -0.18668534983E-01 -0.88149908873E-01 -0.66268636850E-01  0.88707973309E+00  0.88000000000E+00 0. -1.
        -11    1    4    4    0    0  0.54108143705E-02  0.91103408938E-01  0.78799867259E-01  0.12057689759E+00  0.51100000000E-03 0.  1.
         11    1    4    4    0    0  0.68256202776E-02  0.85701491315E-02  0.67718540057E-02  0.12890138711E-01  0.51100000000E-03 0. -1.
</event>
<event>
 8    1  0.1064839E+005  0.1043930E+01  0.7957747E-01            NaN
         13   -1    0    0    0    0  0.00000000000E+00  0.00000000000E+00  0.74505805969E-08  0.10566000000E+00  0.10566000000E+00 0. -1.
     999900   -1    0    0    0    0 -0.00000000000E+00 -0.00000000000E+00 -0.74505805969E-08  0.93827000000E+00  0.93827000000E+00 0. -1.
     999902    2    1    2    0    0 -0.21949120511E-01  0.52642671735E-02  0.12095299230E-01  0.10183219414E+01  0.10179999036E+01 0.  0.
     999903    2    3    3    0    0 -0.12302093191E+00  0.39842594024E-01  0.16655595511E-01  0.13185030170E+00  0.19634439426E-01 0.  0.
         14    1    1    2    0    0  0.21949120511E-01 -0.52642671735E-02 -0.12095299230E-01  0.25608058566E-01  0.00000000000E+00 0.  1.
     999901    1    3    3    0    0  0.10107181139E+00 -0.34578326850E-01 -0.45602962808E-02  0.88647163973E+00  0.88000000000E+00 0.  1.
        -11    1    4    4    0    0 -0.14649430171E-01  0.34191124076E-02  0.83654718450E-02  0.17220289608E-01  0.51100000000E-03 0.  1.
         11    1    4    4    0    0 -0.10837150173E+00  0.36423481616E-01  0.82901236663E-02  0.11463001209E+00  0.51100000000E-03 0. -1.
</event>
<event>
 8    1  0.1064839E+005  0.1043930E+01  0.7957747E-01            NaN
         13   -1    0    0    0    0  0.00000000000E+00  0.00000000000E+00  0.74505805969E-08  0.10566000000E+00  0.10566000000E+00 0.  1.
     999900   -1    0    0    0    0 -0.00000000000E+00 -0.00000000000E+00 -0.74505805969E-08  0.93827000000E+00  0.93827000000E+00 0.  1.
     999902    2    1    2    0    0  0.77266173513E-02 -0.21073394170E-01  0.10648274391E-01  0.10190870069E+01  0.10187841545E+01 0.  0.
     999903    2    3    3    0    0 -0.88942215262E-01 -0.76628994083E-01 -0.52349128333E-01  0.12981766604E+00  0.18151440421E-01 0.  0.
         14    1    1    2    0    0 -0.77266173513E-02  0.21073394170E-01 -0.10648274391E-01  0.24842993078E-01  0.00000000000E+00 0.  1.
     999901    1    3    3    0    0  0.96668832614E-01  0.55555599912E-01  0.62997402724E-01  0.88926934088E+00  0.88000000000E+00 0.  1.
        -11    1    4    4    0    0 -0.34609780928E-01 -0.40278492620E-01 -0.18789936741E-01  0.56333975071E-01  0.51100000000E-03 0.  1.
         11    1    4    4    0    0 -0.54332434335E-01 -0.36350501463E-01 -0.33559191592E-01  0.73483690970E-01  0.51100000000E-03 0. -1.
</event>
<event>
 8    1  0.1064839E+005  0.1043930E+01  0.7957747E-01            NaN
         13   -1    0    0    0    0  0.00000000000E+00  0.00000000000E+00  0.74505805969E-08  0.10566000000E+00  0.10566000000E+00 0.  1.
     999900   -1    0    0    0    0 -0.00000000000E+00 -0.00000000000E+00 -0.74505805969E-08  0.93827000000E+00  0.93827000000E+00 0. -1.
     999902    2    1    2    0    0  0.37733207320E-02  0.18840989816E-01 -0.10551074652E-01  0.10220086400E+01  0.10217735142E+01 0.  0.
     999903    2    3    3    0    0 -0.12530794173E+00 -0.89441902004E-02 -0.34380656825E-01  0.13183908453E+00  0.20431246847E-01 0.  0.
         14    1    1    2    0    0 -0.37733207320E-02 -0.18840989816E-01  0.10551074652E-01  0.21921359969E-01  0.00000000000E+00 0.  1.
     999901    1    3    3    0    0  0.12908126246E+00  0.27785180017E-01  0.23829582173E-01  0.89016955550E+00  0.88000000000E+00 0.  1.
        -11    1    4    4    0    0 -0.98186304413E-01  0.89776001065E-03 -0.23224237867E-01  0.10090085576E+00  0.51100000000E-03 0.  1.
         11    1    4    4    0    0 -0.27121637318E-01 -0.98419502110E-02 -0.11156418958E-01  0.30938228775E-01  0.51100000000E-03 0. -1.
</event>
<event>
 8    1  0.1064839E+005  0.1043930E+01  0.7957747E-01            NaN
         13   -1    0    0    0    0  0.00000000000E+00  0.00000000000E+00  0.74505805969E-08  0.10566000000E+00  0.10566000000E+00 0.  1.
     999900   -1    0    0    0    0 -0.00000000000E+00 -0.00000000000E+00 -0.74505805969E-08  0.93827000000E+00  0.93827000000E+00 0. -1.
     999902    2    1    2    0    0 -0.24676761614E-01 -0.53670382494E-02  0.23721702096E-02  0.10185651650E+01  0.10182492919E+01 0.  0.
     999903    2    3    3    0    0  0.86371898726E-01 -0.10437956720E-01 -0.90003355489E-01  0.12677440651E+00  0.20052189794E-01 0.  0.
         14    1    1    2    0    0  0.24676761614E-01  0.53670382494E-02 -0.23721702096E-02  0.25364835005E-01  0.00000000000E+00 0. -1.
     999901    1    3    3    0    0 -0.11104866034E+00  0.50709184701E-02  0.92375525699E-01  0.89179075849E+00  0.88000000000E+00 0.  1.
        -11    1    4    4    0    0  0.33529768702E-01 -0.13898297768E-01 -0.38044984704E-01  0.52584123575E-01  0.51100000000E-03 0. -1.
         11    1    4    4    0    0  0.52842130025E-01  0.34603410481E-02 -0.51958370785E-01  0.74190282931E-01  0.51100000000E-03 0.  1.
</event>
<event>
 8    1  0.1064839E+005  0.1043930E+01  0.7957747E-01            NaN
         13   -1    0    0    0    0  0.00000000000E+00  0.00000000000E+00  0.74505805969E-08  0.10566000000E+00  0.10566000000E+00 0.  1.
     999900   -1    0    0    0    0 -0.00000000000E+00 -0.00000000000E+00 -0.74505805969E-08  0.93827000000E+00  0.93827000000E+00 0. -1.
     999902    2    1    2    0    0 -0.98231803569E-02  0.12813020556E-01  0.15796664114E-01  0.10213423271E+01  0.10210925258E+01 0.  0.
     999903    2    3    3    0    0  0.58940809248E-01 -0.53788571615E-01 -0.99076039888E-01  0.12872819076E+00  0.19688981297E-01 0.  0.
         14    1    1    2    0    0  0.98231803569E-02 -0.12813020556E-01 -0.15796664114E-01  0.22587672859E-01  0.00000000000E+00 0. -1.
     999901    1    3    3    0    0 -0.68763989605E-01  0.66601592171E-01  0.11487270400E+00  0.89261413638E+00  0.88000000000E+00 0.  1.
        -11    1    4    4    0    0  0.37104138439E-01 -0.45409581941E-01 -0.74260930468E-01  0.94623961745E-01  0.51100000000E-03 0. -1.
         11    1    4    4    0    0  0.21836670809E-01 -0.83789896739E-02 -0.24815109421E-01  0.34104229012E-01  0.51100000000E-03 0.  1.
</event>
<event>
 8    1  0.1064839E+005  0.1043930E+01  0.7957747E-01            NaN
         13   -1    0    0    0    0  0.00000000000E+00  0.00000000000E+00  0.74505805969E-08  0.10566000000E+00  0.10566000000E+00 0. -1.
     999900   -1    0    0    0    0 -0.00000000000E+00 -0.00000000000E+00 -0.74505805969E-08  0.93827000000E+00  0.93827000000E+00 0. -1.
     999902    2    1    2    0    0 -0.14444011714E-01 -0.15227258911E-01  0.11042329990E-01  0.10202143524E+01  0.10199386712E+01 0.  0.
     999903    2    3    3    0    0  0.10528725916E+00 -0.68168378267E-01  0.29371591411E-01  0.13034115855E+00  0.19844205576E-01 0.  0.
         14    1    1    2    0    0  0.14444011714E-01  0.15227258911E-01 -0.11042329990E-01  0.23715647576E-01  0.00000000000E+00 0.  1.
     999901    1    3    3    0    0 -0.11973127087E+00  0.52941119356E-01 -0.18329261421E-01  0.88987319387E+00  0.88000000000E+00 0.  1.
        -11    1    4    4    0    0  0.56915205955E-01 -0.25611212631E-01  0.11346005630E-01  0.63437117258E-01  0.51100000000E-03 0. -1.
         11    1    4    4    0    0  0.48372053203E-01 -0.42557165636E-01  0.18025585781E-01  0.66904041296E-01  0.51100000000E-03 0.  1.
</event>
<event>
 8    1  0.1064839E+005  0.1043930E+01  0.7957747E-01            NaN
         13   -1    0    0    0    0  0.00000000000E+00  0.00000000000E+00  0.74505805969E-08  0.10566000000E+00  0.10566000000E+00 0.  1.
     999900   -1    0    0    0    0 -0.00000000000E+00 -0.00000000000E+00 -0.74505805969E-08  0.93827000000E+00  0.93827000000E+00 0. -1.
     999902    2    1    2    0    0  0.11279238586E-01 -0.19411895981E-01 -0.74367924942E-02  0.10202794437E+01  0.10200052914E+01 0.  0.
     999903    2    3    3    0    0 -0.16953366114E-01  0.12261422307E+00  0.26417432069E-01  0.12780277347E+00  0.17720154280E-01 0.  0.
         14    1    1    2    0    0 -0.11279238586E-01  0.19411895981E-01  0.74367924942E-02  0.23650556257E-01  0.00000000000E+00 0.  1.
     999901    1    3    3    0    0  0.28232604700E-01 -0.14202611905E+00 -0.33854224564E-01  0.89247667027E+00  0.88000000000E+00 0.  1.
        -11    1    4    4    0    0 -0.19815377094E-01  0.83517340425E-01  0.17974758498E-01  0.87699192614E-01  0.51100000000E-03 0. -1.
         11    1    4    4    0    0  0.28620109805E-02  0.39096882645E-01  0.84426735714E-02  0.40103580856E-01  0.51100000000E-03 0.  1.
</event>
<event>
 8    1  0.1064839E+005  0.1043930E+01  0.7957747E-01            NaN
         13   -1    0    0    0    0  0.00000000000E+00  0.00000000000E+00  0.74505805969E-08  0.10566000000E+00  0.10566000000E+00 0.  1.
     999900   -1    0    0    0    0 -0.00000000000E+00 -0.00000000000E+00 -0.74505805969E-08  0.93827000000E+00  0.93827000000E+00 0.  1.
     999902    2    1    2    0    0 -0.15476512185E-01 -0.77170679593E-02  0.14413882413E-01  0.10214169910E+01  0.10211688567E+01 0.  0.
     999903    2    3    3    0    0 -0.55655080648E-01  0.11362014305E+00  0.32524418424E-01  0.13199862621E+00  0.18941346833E-01 0.  0.
         14    1    1    2    0    0  0.15476512185E-01  0.77170679593E-02 -0.14413882413E-01  0.22513008984E-01  0.00000000000E+00 0. -1.
     999901    1    3    3    0    0  0.40178568462E-01 -0.12133721101E+00 -0.18110536010E-01  0.88941836481E+00  0.88000000000E+00 0. -1.
        -11    1    4    4    0    0 -0.40532693411E-01  0.95334045730E-01  0.31354985291E-01  0.10823527953E+00  0.51100000000E-03 0.  1.
         11    1    4    4    0    0 -0.15122387237E-01  0.18286097316E-01  0.11694331329E-02  0.23763346685E-01  0.51100000000E-03 0. -1.
</event>
<event>
 8    1  0.1064839E+005  0.1043930E+01  0.7957747E-01            NaN
         13   -1    0    0    0    0  0.00000000000E+00  0.00000000000E+00  0.74505805969E-08  0.10566000000E+00  0.10566000000E+00 0. -1.
     999900   -1    0    0    0    0 -0.00000000000E+00 -0.00000000000E+00 -0.74505805969E-08  0.93827000000E+00  0.93827000000E+00 0.  1.
     999902    2    1    2    0    0  0.39677051134E-02 -0.17192480873E-01 -0.21054750048E-01  0.10164595325E+01  0.10160882613E+01 0.  0.
     999903    2    3    3    0    0 -0.93935446445E-01 -0.43037224814E-01 -0.74396895780E-01  0.12904848777E+00  0.21036712595E-01 0.  0.
         14    1    1    2    0    0 -0.39677051134E-02  0.17192480873E-01  0.21054750048E-01  0.27470467452E-01  0.00000000000E+00 0. -1.
     999901    1    3    3    0    0  0.97903151558E-01  0.25844743941E-01  0.53342145731E-01  0.88741104477E+00  0.88000000000E+00 0. -1.
        -11    1    4    4    0    0 -0.54775919709E-01 -0.34624483453E-01 -0.39283138336E-01  0.75780487679E-01  0.51100000000E-03 0. -1.
         11    1    4    4    0    0 -0.39159526735E-01 -0.84127413615E-02 -0.35113757444E-01  0.53268000096E-01  0.51100000000E-03 0.  1.
</event>
<event>
 8    1  0.1064839E+005  0.1043930E+01  0.7957747E-01            NaN
         13   -1    0    0    0    0  0.00000000000E+00  0.00000000000E+00  0.74505805969E-08  0.10566000000E+00  0.10566000000E+00 0. -1.
     999900   -1    0    0    0    0 -0.00000000000E+00 -0.00000000000E+00 -0.74505805969E-08  0.93827000000E+00  0.93827000000E+00 0. -1.
     999902    2    1    2    0    0  0.20807730426E-01  0.37127810844E-02  0.11400247645E-01  0.10199151705E+01  0.10196324058E+01 0.  0.
     999903    2    3    3    0    0  0.68615897471E-01 -0.48885912948E-01  0.10062720770E+00  0.13255183239E+00  0.18605898761E-01 0.  0.
         14    1    1    2    0    0 -0.20807730426E-01 -0.37127810844E-02 -0.11400247645E-01  0.24014829486E-01  0.00000000000E+00 0.  1.
     999901    1    3    3    0    0 -0.47808167045E-01  0.52598694032E-01 -0.89226960058E-01  0.88736333813E+00  0.88000000000E+00 0. -1.
        -11    1    4    4    0    0  0.88721097590E-02 -0.15420364295E-01  0.21082169623E-01  0.27590233119E-01  0.51100000000E-03 0.  1.
         11    1    4    4    0    0  0.59743787712E-01 -0.33465548653E-01  0.79545038080E-01  0.10496159927E+00  0.51100000000E-03 0. -1.
</event>
<event>
 8    1  0.1064839E+005  0.1043930E+01  0.7957747E-01            NaN
         13   -1    0    0    0    0  0.00000000000E+00  0.00000000000E+00  0.74505805969E-08  0.10566000000E+00  0.10566000000E+00 0.  1.
     999900   -1    0    0    0    0 -0.00000000000E+00 -0.00000000000E+00 -0.74505805969E-08  0.93827000000E+00  0.93827000000E+00 0.  1.
     999902    2    1    2    0    0 -0.90392690629E-02  0.22709320285E-02 -0.13790829324E-01  0.10272851062E+01  0.10271502504E+01 0.  0.
     999903    2    3    3    0    0  0.42525607948E-01 -0.12584038483E+00 -0.23795483459E-01  0.13645878237E+00  0.20261896925E-01 0.  0.
         14    1    1    2    0    0  0.90392690629E-02 -0.22709320285E-02  0.13790829324E-01  0.16644893839E-01  0.00000000000E+00 0.  1.
     999901    1    3    3    0    0 -0.51564877010E-01  0.12811131686E+00  0.10004654135E-01  0.89082632379E+00  0.88000000000E+00 0. -1.
        -11    1    4    4    0    0  0.25564950965E-01 -0.45973420896E-01 -0.12054012070E-01  0.53969273432E-01  0.51100000000E-03 0.  1.
         11    1    4    4    0    0  0.16960656982E-01 -0.79866963938E-01 -0.11741471390E-01  0.82489508941E-01  0.51100000000E-03 0. -1.
</event>
<event>
 8    1  0.1064839E+005  0.1043930E+01  0.7957747E-01            NaN
         13   -1    0    0    0    0  0.00000000000E+00  0.00000000000E+00  0.74505805969E-08  0.10566000000E+00  0.10566000000E+00 0. -1.
     999900   -1    0    0    0    0 -0.00000000000E+00 -0.00000000000E+00 -0.74505805969E-08  0.93827000000E+00  0.93827000000E+00 0. -1.
     999902    2    1    2    0    0  0.63345723754E-03 -0.22953660369E-01 -0.15721024019E-02  0.10209138470E+01  0.10206543684E+01 0.  0.
     999903    2    3    3    0    0 -0.64159906449E-01  0.10554803933E+00  0.29421787188E-01  0.12868546370E+00  0.20914703020E-01 0.  0.
         14    1    1    2    0    0 -0.63345723754E-03  0.22953660369E-01  0.15721024019E-02  0.23016152988E-01  0.00000000000E+00 0. -1.
     999901    1    3    3    0    0  0.64793363687E-01 -0.12850169970E+00 -0.30993889590E-01  0.89222838332E+00  0.88000000000E+00 0. -1.
        -11    1    4    4    0    0 -0.36288062419E-01  0.50136614717E-01  0.52562929254E-02  0.62115966915E-01  0.51100000000E-03 0.  1.
         11    1    4    4    0    0 -0.27871844030E-01  0.55411424616E-01  0.24165494263E-01  0.66569496780E-01  0.51100000000E-03 0. -1.
</event>
<event>
 8    1  0.1064839E+005  0.1043930E+01  0.7957747E-01            NaN
         13   -1    0    0    0    0  0.00000000000E+00  0.00000000000E+00  0.74505805969E-08  0.10566000000E+00  0.10566000000E+00 0.  1.
     999900   -1    0    0    0    0 -0.00000000000E+00 -0.00000000000E+00 -0.74505805969E-08  0.93827000000E+00  0.93827000000E+00 0.  1.
     999902    2    1    2    0    0 -0.19801620709E-01 -0.39069057021E-02 -0.10932620882E-01  0.10209759090E+01  0.10207178437E+01 0.  0.
     999903    2    3    3    0    0 -0.54289320481E-01 -0.84450377321E-01 -0.85670398294E-01  0.13347245118E+00  0.19906821217E-01 0.  0.
         14    1    1    2    0    0  0.19801620709E-01  0.39069057021E-02  0.10932620882E-01  0.22954091012E-01  0.00000000000E+00 0.  1.
     999901    1    3    3    0    0  0.34487699772E-01  0.80543471619E-01  0.74737777412E-01  0.88750345781E+00  0.88000000000E+00 0. -1.
        -11    1    4    4    0    0 -0.43172519861E-01 -0.60588884787E-01 -0.73082774775E-01  0.10428917739E+00  0.51100000000E-03 0.  1.
         11    1    4    4    0    0 -0.11116800620E-01 -0.23861492534E-01 -0.12587623520E-01  0.29183273786E-01  0.51100000000E-03 0. -1.
</event>
<event>
 8    1  0.1064839E+005  0.1043930E+01  0.7957747E-01            NaN
         13   -1    0    0    0    0  0.00000000000E+00  0.00000000000E+00  0.74505805969E-08  0.10566000000E+00  0.10566000000E+00 0.  1.
     999900   -1    0    0    0    0 -0.00000000000E+00 -0.00000000000E+00 -0.74505805969E-08  0.93827000000E+00  0.93827000000E+00 0. -1.
     999902    2    1    2    0    0 -0.20198284182E-01 -0.29049812440E-02 -0.12374656144E-01  0.10200649269E+01  0.10197857193E+01 0.  0.
     999903    2    3    3    0    0  0.84198862626E-01 -0.45549878281E-01 -0.85449027733E-01  0.12986426676E+00  0.19973771869E-01 0.  0.
         14    1    1    2    0    0  0.20198284182E-01  0.29049812440E-02  0.12374656144E-01  0.23865073111E-01  0.00000000000E+00 0.  1.
     999901    1    3    3    0    0 -0.10439714681E+00  0.42644897037E-01  0.73074371589E-01  0.89020066013E+00  0.88000000000E+00 0.  1.
        -11    1    4    4    0    0  0.67732102225E-01 -0.27789737306E-01 -0.68824937662E-01  0.10048403026E+00  0.51100000000E-03 0. -1.
         11    1    4    4    0    0  0.16466760400E-01 -0.17760140975E-01 -0.16624090071E-01  0.29380236507E-01  0.51100000000E-03 0.  1.
</event>
<event>
 8    1  0.1064839E+005  0.1043930E+01  0.7957747E-01            NaN
         13   -1    0    0    0    0  0.00000000000E+00  0.00000000000E+00  0.74505805969E-08  0.10566000000E+00  0.10566000000E+00 0. -1.
     999900   -1    0    0    0    0 -0.00000000000E+00 -0.00000000000E+00 -0.74505805969E-08  0.93827000000E+00  0.93827000000E+00 0.  1.
     999902    2    1    2    0    0  0.46005104007E-02  0.24370742846E-01  0.77585476465E-02  0.10179436023E+01  0.10176118536E+01 0.  0.
     999903    2    3    3    0    0 -0.77661467486E-02  0.77129179209E-01 -0.10173666738E+00  0.12950362746E+00  0.20288339388E-01 0.  0.
         14    1    1    2    0    0 -0.46005104007E-02 -0.24370742846E-01 -0.77585476465E-02  0.25986397680E-01  0.00000000000E+00 0. -1.
     999901    1    3    3    0    0  0.12366657149E-01 -0.52758436362E-01  0.10949521503E+00  0.88843997486E+00  0.88000000000E+00 0. -1.
        -11    1    4    4    0    0 -0.14139959589E-01  0.40962955101E-01 -0.52458231241E-01  0.68044318600E-01  0.51100000000E-03 0. -1.
         11    1    4    4    0    0  0.63738128406E-02  0.36166224107E-01 -0.49278436137E-01  0.61459308859E-01  0.51100000000E-03 0.  1.
</event>
<event>
 8    1  0.1064839E+005  0.1043930E+01  0.7957747E-01            NaN
         13   -1    0    0    0    0  0.00000000000E+00  0.00000000000E+00  0.74505805969E-08  0.10566000000E+00  0.10566000000E+00 0.  1.
     999900   -1    0    0    0    0 -0.00000000000E+00 -0.00000000000E+00 -0.74505805969E-08  0.93827000000E+00  0.93827000000E+00 0.  1.
     999902    2    1    2    0    0  0.20583068735E-02 -0.11475643537E-01  0.20388117861E-01  0.10204437834E+01  0.10201734718E+01 0.  0.
     999903    2    3    3    0    0  0.81370585041E-01 -0.84664187524E-01  0.59338428649E-01  0.13299568508E+00  0.19432096572E-01 0.  0.
         14    1    1    2    0    0 -0.20583068735E-02  0.11475643537E-01 -0.20388117861E-01  0.23486216632E-01  0.00000000000E+00 0. -1.
     999901    1    3    3    0    0 -0.79312278168E-01  0.73188543987E-01 -0.38950310788E-01  0.88744809828E+00  0.88000000000E+00 0. -1.
        -11    1    4    4    0    0  0.28842208164E-01 -0.20938867581E-01  0.25090979453E-01  0.43590452146E-01  0.51100000000E-03 0.  1.
         11    1    4    4    0    0  0.52528376877E-01 -0.63725319943E-01  0.34247449196E-01  0.89405232937E-01  0.51100000000E-03 0. -1.
</event>
<event>
 8    1  0.1064839E+005  0.1043930E+01  0.7957747E-01            NaN
         13   -1    0    0    0    0  0.00000000000E+00  0.00000000000E+00  0.74505805969E-08  0.10566000000E+00  0.10566000000E+00 0. -1.
     999900   -1    0    0    0    0 -0.00000000000E+00 -0.00000000000E+00 -0.74505805969E-08  0.93827000000E+00  0.93827000000E+00 0.  1.
     999902    2    1    2    0    0  0.12557589638E-01 -0.82075919131E-02 -0.18523737963E-01  0.10200933373E+01  0.10198148019E+01 0.  0.
     999903    2    3    3    0    0 -0.98908663445E-01 -0.41208080427E-01  0.66320843943E-01  0.12840260562E+00  0.24652488532E-01 0.  0.
         14    1    1    2    0    0 -0.12557589638E-01  0.82075919131E-02  0.18523737963E-01  0.23836662741E-01  0.00000000000E+00 0. -1.
     999901    1    3    3    0    0  0.11146625308E+00  0.33000488514E-01 -0.84844581905E-01  0.89169073164E+00  0.88000000000E+00 0.  1.
        -11    1    4    4    0    0 -0.54752259174E-01 -0.22066025213E-01  0.22076671407E-01  0.63026660191E-01  0.51100000000E-03 0. -1.
         11    1    4    4    0    0 -0.44156404271E-01 -0.19142055214E-01  0.44244172535E-01  0.65375945425E-01  0.51100000000E-03 0.  1.
</event>
<event>
 8    1  0.1064839E+005  0.1043930E+01  0.7957747E-01            NaN
         13   -1    0    0    0    0  0.00000000000E+00  0.00000000000E+00  0.74505805969E-08  0.10566000000E+00  0.10566000000E+00 0.  1.
     999900   -1    0    0    0    0 -0.00000000000E+00 -0.00000000000E+00 -0.74505805969E-08  0.93827000000E+00  0.93827000000E+00 0. -1.
     999902    2    1    2    0    0  0.13438449198E-01 -0.12073402196E-01  0.13229153891E-01  0.10215387189E+01  0.10212932902E+01 0.  0.
     999903    2    3    3    0    0  0.50663178910E-01  0.11875969091E+00  0.15156704686E-01  0.13108563522E+00  0.16825462291E-01 0.  0.
         14    1    1    2    0    0 -0.13438449198E-01  0.12073402196E-01 -0.13229153891E-01  0.22391281118E-01  0.00000000000E+00 0. -1.
     999901    1    3    3    0    0 -0.37224729711E-01 -0.13083309311E+00 -0.19275507951E-02  0.89045308366E+00  0.88000000000E+00 0. -1.
        -11    1    4    4    0    0  0.33768616951E-01  0.64788936902E-01  0.23630967249E-02  0.73101102473E-01  0.51100000000E-03 0. -1.
         11    1    4    4    0    0  0.16894561959E-01  0.53970754009E-01  0.12793607961E-01  0.57984532745E-01  0.51100000000E-03 0.  1.
</event>
<event>
 8    1  0.1064839E+005  0.1043930E+01  0.7957747E-01            NaN
         13   -1    0    0    0    0  0.00000000000E+00  0.00000000000E+00  0.74505805969E-08  0.10566000000E+00  0.10566000000E+00 0. -1.
     999900   -1    0    0    0    0 -0.00000000000E+00 -0.00000000000E+00 -0.74505805969E-08  0.93827000000E+00  0.93827000000E+00 0.  1.
     999902    2    1    2    0    0  0.17316531659E-01  0.14332681287E-01  0.11745875273E-01  0.10185675552E+01  0.10182517424E+01 0.  0.
     999903    2    3    3    0    0  0.11401699358E-01 -0.75901021162E-01  0.10226112865E+00  0.12931499409E+00  0.19340773064E-01 0.  0.
         14    1    1    2    0    0 -0.17316531659E-01 -0.14332681287E-01 -0.11745875273E-01  0.25362444825E-01  0.00000000000E+00 0.  1.
     999901    1    3    3    0    0  0.59148323012E-02  0.90233702449E-01 -0.90515253376E-01  0.88925256108E+00  0.88000000000E+00 0.  1.
        -11    1    4    4    0    0  0.97383803922E-02 -0.32451915713E-01  0.31525745625E-01  0.46282789936E-01  0.51100000000E-03 0. -1.
         11    1    4    4    0    0  0.16633189656E-02 -0.43449105449E-01  0.70735383025E-01  0.83032204156E-01  0.51100000000E-03 0.  1.
</event>
<event>
 8    1  0.1064839E+005  0.1043930E+01  0.7957747E-01            NaN
         13   -1    0    0    0    0  0.00000000000E+00  0.00000000000E+00  0.74505805969E-08  0.10566000000E+00  0.10566000000E+00 0. -1.
     999900   -1    0    0    0    0 -0.00000000000E+00 -0.00000000000E+00 -0.74505805969E-08  0.93827000000E+00  0.93827000000E+00 0.  1.
     999902    2    1    2    0    0 -0.53358363504E-02 -0.20730701021E-01 -0.12294253681E-01  0.10192443404E+01  0.10189453586E+01 0.  0.
     999903    2    3    3    0    0  0.25092241755E-01  0.95541985708E-01 -0.79764433944E-01  0.12851574494E+00  0.19900757411E-01 0.  0.
         14    1    1    2    0    0  0.53358363504E-02  0.20730701021E-01  0.12294253681E-01  0.24685659561E-01  0.00000000000E+00 0. -1.
     999901    1    3    3    0    0 -0.30428078105E-01 -0.11627268673E+00  0.67470180263E-01  0.89072859550E+00  0.88000000000E+00 0.  1.
        -11    1    4    4    0    0  0.57901361019E-02  0.58278287272E-02 -0.11496444140E-01  0.14139257853E-01  0.51100000000E-03 0.  1.
         11    1    4    4    0    0  0.19302105653E-01  0.89714156980E-01 -0.68267989804E-01  0.11437648709E+00  0.51100000000E-03 0. -1.
</event>
<event>
 8    1  0.1064839E+005  0.1043930E+01  0.7957747E-01            NaN
         13   -1    0    0    0    0  0.00000000000E+00  0.00000000000E+00  0.74505805969E-08  0.10566000000E+00  0.10566000000E+00 0. -1.
     999900   -1    0    0    0    0 -0.00000000000E+00 -0.00000000000E+00 -0.74505805969E-08  0.93827000000E+00  0.93827000000E+00 0. -1.
     999902    2    1    2    0    0 -0.16074026339E-01 -0.14075674027E-01 -0.11439293385E-01  0.10196945641E+01  0.10194065174E+01 0.  0.
     999903    2    3    3    0    0  0.89994388698E-01  0.80963753087E-01  0.33839396064E-01  0.12709545971E+00  0.18815733864E-01 0.  0.
         14    1    1    2    0    0  0.16074026339E-01  0.14075674027E-01  0.11439293385E-01  0.24235435940E-01  0.00000000000E+00 0.  1.
     999901    1    3    3    0    0 -0.10606841504E+00 -0.95039427113E-01 -0.45278689449E-01  0.89259910435E+00  0.88000000000E+00 0. -1.
        -11    1    4    4    0    0  0.35708423822E-01  0.35214134305E-01  0.47703962709E-02  0.50380001869E-01  0.51100000000E-03 0.  1.
         11    1    4    4    0    0  0.54285964877E-01  0.45749618782E-01  0.29068999793E-01  0.76715457837E-01  0.51100000000E-03 0. -1.
</event>
<event>
 8    1  0.1064839E+005  0.1043930E+01  0.7957747E-01            NaN
         13   -1    0    0    0    0  0.00000000000E+00  0.00000000000E+00  0.74505805969E-08  0.10566000000E+00  0.10566000000E+00 0. -1.
     999900   -1    0    0    0    0 -0.00000000000E+00 -0.00000000000E+00 -0.74505805969E-08  0.93827000000E+00  0.93827000000E+00 0.  1.
     999902    2    1    2    0    0 -0.66809041889E-02 -0.11258256343E-01  0.20482629059E-01  0.10196211352E+01  0.10193313192E+01 0.  0.
     999903    2    3    3    0    0  0.10525918490E+00  0.66362348058E-01 -0.22837309235E-01  0.12808753578E+00  0.20035390776E-01 0.  0.
         14    1    1    2    0    0  0.66809041889E-02  0.11258256343E-01 -0.20482629059E-01  0.24308864841E-01  0.00000000000E+00 0.  1.
     999901    1    3    3    0    0 -0.11194008909E+00 -0.77620604401E-01  0.43319938295E-01  0.89153359938E+00  0.88000000000E+00 0. -1.
        -11    1    4    4    0    0  0.22268669337E-01  0.23504560301E-01 -0.94139475200E-02  0.33723011696E-01  0.51100000000E-03 0. -1.
         11    1    4    4    0    0  0.82990515560E-01  0.42857787757E-01 -0.13423361715E-01  0.94364524081E-01  0.51100000000E-03 0.  1.
</event>
<event>
 8    1  0.1064839E+005  0.1043930E+01  0.7957747E-01            NaN
         13   -1    0    0    0    0  0.00000000000E+00  0.00000000000E+00  0.74505805969E-08  0.10566000000E+00  0.10566000000E+00 0.  1.
     999900   -1    0    0    0    0 -0.00000000000E+00 -0.00000000000E+00 -0.74505805969E-08  0.93827000000E+00  0.93827000000E+00 0.  1.
     999902    2    1    2    0    0 -0.21014219697E-01 -0.10100064310E-01  0.68416619179E-02  0.10196315007E+01  0.10193419349E+01 0.  0.
     999903    2    3    3    0    0  0.50132833722E-01 -0.11620387159E+00  0.23312720710E-01  0.13025463073E+00  0.20153041732E-01 0.  0.
         14    1    1    2    0    0  0.21014219697E-01  0.10100064310E-01 -0.68416619179E-02  0.24298499261E-01  0.00000000000E+00 0. -1.
     999901    1    3    3    0    0 -0.71147053419E-01  0.10610380728E+00 -0.16471058792E-01  0.88937687001E+00  0.88000000000E+00 0.  1.
        -11    1    4    4    0    0  0.93599929963E-02 -0.25698383084E-01  0.13497965179E-01  0.30503648093E-01  0.51100000000E-03 0.  1.
         11    1    4    4    0    0  0.40772840726E-01 -0.90505488502E-01  0.98147555312E-02  0.99750982637E-01  0.51100000000E-03 0. -1.
</event>
<event>
 8    1  0.1064839E+005  0.1043930E+01  0.7957747E-01            NaN
         13   -1    0    0    0    0  0.00000000000E+00  0.00000000000E+00  0.74505805969E-08  0.10566000000E+00  0.10566000000E+00 0.  1.
     999900   -1    0    0    0    0 -0.00000000000E+00 -0.00000000000E+00 -0.74505805969E-08  0.93827000000E+00  0.93827000000E+00 0.  1.
     999902    2    1    2    0    0 -0.17724736306E-01  0.12639906557E-02 -0.28300409229E-02  0.10259363044E+01  0.10257784983E+01 0.  0.
     999903    2    3    3    0    0 -0.34757069305E-01 -0.10430481705E+00  0.77316373491E-01  0.13584736432E+00  0.19726531730E-01 0.  0.
         14    1    1    2    0    0  0.17724736306E-01 -0.12639906557E-02  0.28300409229E-02  0.17993695594E-01  0.00000000000E+00 0.  1.
     999901    1    3    3    0    0  0.17032332999E-01  0.10556880771E+00 -0.80146414414E-01  0.89008894009E+00  0.88000000000E+00 0. -1.
        -11    1    4    4    0    0 -0.21947440928E-01 -0.76955097391E-01  0.45847957895E-01  0.92228377097E-01  0.51100000000E-03 0. -1.
         11    1    4    4    0    0 -0.12809628378E-01 -0.27349719664E-01  0.31468415596E-01  0.43618987218E-01  0.51100000000E-03 0.  1.
</event>
<event>
 8    1  0.1064839E+005  0.1043930E+01  0.7957747E-01            NaN
         13   -1    0    0    0    0  0.00000000000E+00  0.00000000000E+00  0.74505805969E-08  0.10566000000E+00  0.10566000000E+00 0.  1.
     999900   -1    0    0    0    0 -0.00000000000E+00 -0.00000000000E+00 -0.74505805969E-08  0.93827000000E+00  0.93827000000E+00 0. -1.
     999902    2    1    2    0    0  0.80249255213E-02 -0.11993609062E-01  0.19454479711E-01  0.10197076370E+01  0.10194199047E+01 0.  0.
     999903    2    3    3    0    0 -0.83242014203E-01  0.14352807200E-01  0.98145153380E-01  0.13110423275E+00  0.20508844694E-01 0.  0.
         14    1    1    2    0    0 -0.80249255213E-02  0.11993609062E-01 -0.19454479711E-01  0.24222362989E-01  0.00000000000E+00 0. -1.
     999901    1    3    3    0    0  0.91266939725E-01 -0.26346416262E-01 -0.78690673669E-01  0.88860340426E+00  0.88000000000E+00 0. -1.
        -11    1    4    4    0    0 -0.29155274900E-01 -0.22749387700E-02  0.43649720117E-01  0.52542978486E-01  0.51100000000E-03 0. -1.
         11    1    4    4    0    0 -0.54086739303E-01  0.16627745970E-01  0.54495433263E-01  0.78561254267E-01  0.51100000000E-03 0.  1.
</event>
<event>
 8    1  0.1064839E+005  0.1043930E+01  0.7957747E-01            NaN
         13   -1    0    0    0    0  0.00000000000E+00  0.00000000000E+00  0.74505805969E-08  0.10566000000E+00  0.10566000000E+00 0. -1.
     999900   -1    0    0    0    0 -0.00000000000E+00 -0.00000000000E+00 -0.74505805969E-08  0.93827000000E+00  0.93827000000E+00 0.  1.
     999902    2    1    2    0    0 -0.16357474958E-02  0.37516660810E-02  0.23100822179E-01  0.10204694234E+01  0.10201997086E+01 0.  0.
     999903    2    3    3    0    0  0.83774029621E-01  0.96752922638E-01 -0.16592237519E-01  0.13057077597E+00  0.19854700002E-01 0.  0.
         14    1    1    2    0    0  0.16357474958E-02 -0.37516660810E-02 -0.23100822179E-01  0.23460576583E-01  0.00000000000E+00 0.  1.
     999901    1    3    3    0    0 -0.85409777117E-01 -0.93001256557E-01  0.39693059698E-01  0.88989864745E+00  0.88000000000E+00 0. -1.
        -11    1    4    4    0    0  0.34783291763E-01  0.53669213325E-01 -0.12748080483E-01  0.65215308953E-01  0.51100000000E-03 0. -1.
         11    1    4    4    0    0  0.48990737858E-01  0.43083709313E-01 -0.38441570366E-02  0.65355467012E-01  0.51100000000E-03 0.  1.
</event>
<event>
 8    1  0.1064839E+005  0.1043930E+01  0.7957747E-01            NaN
         13   -1    0    0    0    0  0.00000000000E+00  0.00000000000E+00  0.74505805969E-08  0.10566000000E+00  0.10566000000E+00 0. -1.
     999900   -1    0    0    0    0 -0.00000000000E+00 -0.00000000000E+00 -0.74505805969E-08  0.93827000000E+00  0.93827000000E+00 0. -1.
     999902    2    1    2    0    0 -0.81955358358E-02 -0.12704897702E-01  0.16151277820E-01  0.10218065959E+01  0.10215670680E+01 0.  0.
     999903    2    3    3    0    0  0.10567641027E+00  0.30365285073E-01 -0.66069278582E-01  0.12962831740E+00  0.18676104366E-01 0.  0.
         14    1    1    2    0    0  0.81955358358E-02  0.12704897702E-01 -0.16151277820E-01  0.22123404089E-01  0.00000000000E+00 0.  1.
     999901    1    3    3    0    0 -0.11387194611E+00 -0.43070182775E-01  0.82220556402E-01  0.89217827851E+00  0.88000000000E+00 0. -1.
        -11    1    4    4    0    0  0.77690707938E-01  0.14078314125E-01 -0.50203890566E-01  0.93566750384E-01  0.51100000000E-03 0.  1.
         11    1    4    4    0    0  0.27985702332E-01  0.16286970948E-01 -0.15865388016E-01  0.36061567015E-01  0.51100000000E-03 0. -1.
</event>
<event>
 8    1  0.1064839E+005  0.1043930E+01  0.7957747E-01            NaN
         13   -1    0    0    0    0  0.00000000000E+00  0.00000000000E+00  0.74505805969E-08  0.10566000000E+00  0.10566000000E+00 0. -1.
     999900   -1    0    0    0    0 -0.00000000000E+00 -0.00000000000E+00 -0.74505805969E-08  0.93827000000E+00  0.93827000000E+00 0.  1.
     999902    2    1    2    0    0 -0.69382747400E-02  0.74496650023E-02 -0.21532102698E-01  0.10201125986E+01  0.10198345185E+01 0.  0.
     999903    2    3    3    0    0 -0.90807734788E-01  0.54336647368E-01  0.72800405534E-01  0.12987044186E+00  0.19181154260E-01 0.  0.
         14    1    1    2    0    0  0.69382747400E-02 -0.74496650023E-02  0.21532102698E-01  0.23817401446E-01  0.00000000000E+00 0. -1.
     999901    1    3    3    0    0  0.83869460048E-01 -0.46886982366E-01 -0.94332508233E-01  0.89024215669E+00  0.88000000000E+00 0.  1.
        -11    1    4    4    0    0 -0.89313950044E-02  0.13028000462E-01  0.11897205242E-01  0.19781385854E-01  0.51100000000E-03 0.  1.
         11    1    4    4    0    0 -0.81876339783E-01  0.41308646906E-01  0.60903200293E-01  0.11008905601E+00  0.51100000000E-03 0. -1.
</event>
<event>
 8    1  0.1064839E+005  0.1043930E+01  0.7957747E-01            NaN
         13   -1    0    0    0    0  0.00000000000E+00  0.00000000000E+00  0.74505805969E-08  0.10566000000E+00  0.10566000000E+00 0.  1.
     999900   -1    0    0    0    0 -0.00000000000E+00 -0.00000000000E+00 -0.74505805969E-08  0.93827000000E+00  0.93827000000E+00 0. -1.
     999902    2    1    2    0    0  0.23283379797E-01  0.33820332456E-02  0.45639461928E-02  0.10199637002E+01  0.10196820907E+01 0.  0.
     999903    2    3    3    0    0  0.13147402740E+00  0.14052653613E-02 -0.82447376405E-02  0.13324323336E+00  0.19959681494E-01 0.  0.
         14    1    1    2    0    0 -0.23283379797E-01 -0.33820332456E-02 -0.45639461928E-02  0.23966299850E-01  0.00000000000E+00 0.  1.
     999901    1    3    3    0    0 -0.10819064761E+00  0.19767678843E-02  0.12808683833E-01  0.88672046679E+00  0.88000000000E+00 0.  1.
        -11    1    4    4    0    0  0.62732867929E-01 -0.92289582138E-02 -0.49966426016E-02  0.63606713062E-01  0.51100000000E-03 0. -1.
         11    1    4    4    0    0  0.68741159475E-01  0.10634223575E-01 -0.32480950389E-02  0.69636520299E-01  0.51100000000E-03 0.  1.
</event>
<event>
 8    1  0.1064839E+005  0.1043930E+01  0.7957747E-01            NaN
         13   -1    0    0    0    0  0.00000000000E+00  0.00000000000E+00  0.74505805969E-08  0.10566000000E+00  0.10566000000E+00 0.  1.
     999900   -1    0    0    0    0 -0.00000000000E+00 -0.00000000000E+00 -0.74505805969E-08  0.93827000000E+00  0.93827000000E+00 0. -1.
     999902    2    1    2    0    0 -0.13830631705E-01 -0.15748710576E-01  0.15960281353E-02  0.10229096393E+01  0.10226936367E+01 0.  0.
     999903    2    3    3    0    0 -0.92475323304E-01 -0.87545956953E-01 -0.41978793770E-01  0.13541958459E+00  0.18980641852E-01 0.  0.
         14    1    1    2    0    0  0.13830631705E-01  0.15748710576E-01 -0.15960281353E-02  0.21020360701E-01  0.00000000000E+00 0.  1.
     999901    1    3    3    0    0  0.78644691600E-01  0.71797246376E-01  0.43574821905E-01  0.88749005471E+00  0.88000000000E+00 0.  1.
        -11    1    4    4    0    0 -0.75995280283E-01 -0.72468117121E-01 -0.41942984756E-01  0.11307690178E+00  0.51100000000E-03 0. -1.
         11    1    4    4    0    0 -0.16480043021E-01 -0.15077839832E-01 -0.35809014284E-04  0.22342682813E-01  0.51100000000E-03 0.  1.
</event>
<event>
 8    1  0.1064839E+005  0.1043930E+01  0.7957747E-01            NaN
         13   -1    0    0    0    0  0.00000000000E+00  0.00000000000E+00  0.74505805969E-08  0.10566000000E+00  0.10566000000E+00 0. -1.
     999900   -1    0    0    0    0 -0.00000000000E+00 -0.00000000000E+00 -0.74505805969E-08  0.93827000000E+00  0.93827000000E+00 0. -1.
     999902    2    1    2    0    0 -0.88604094760E-02 -0.12330903506E-01 -0.18422294102E-01  0.10200566057E+01  0.10197772011E+01 0.  0.
     999903    2    3    3    0    0  0.60641733022E-02 -0.12089557722E+00  0.46045857375E-01  0.13091928550E+00  0.19160468267E-01 0.  0.
         14    1    1    2    0    0  0.88604094760E-02  0.12330903506E-01  0.18422294102E-01  0.23873394340E-01  0.00000000000E+00 0. -1.
     999901    1    3    3    0    0 -0.14924582778E-01  0.10856467372E+00 -0.64468151477E-01  0.88913732016E+00  0.88000000000E+00 0. -1.
        -11    1    4    4    0    0  0.12174299298E-01 -0.71069519530E-01  0.31210054590E-01  0.78571106637E-01  0.51100000000E-03 0.  1.
         11    1    4    4    0    0 -0.61101259958E-02 -0.49826057691E-01  0.14835802785E-01  0.52348178861E-01  0.51100000000E-03 0. -1.
</event>
<event>
 8    1  0.1064839E+005  0.1043930E+01  0.7957747E-01            NaN
         13   -1    0    0    0    0  0.00000000000E+00  0.00000000000E+00  0.74505805969E-08  0.10566000000E+00  0.10566000000E+00 0. -1.
     999900   -1    0    0    0    0 -0.00000000000E+00 -0.00000000000E+00 -0.74505805969E-08  0.93827000000E+00  0.93827000000E+00 0.  1.
     999902    2    1    2    0    0  0.15741966312E-01 -0.88071880382E-02  0.16565832003E-01  0.10194391271E+01  0.10191449019E+01 0.  0.
     999903    2    3    3    0    0 -0.10483193815E+00 -0.31026437256E-02 -0.68999642131E-01  0.12708714577E+00  0.19769429717E-01 0.  0.
         14    1    1    2    0    0 -0.15741966312E-01  0.88071880382E-02 -0.16565832003E-01  0.24490872881E-01  0.00000000000E+00 0.  1.
     999901    1    3    3    0    0  0.12057390446E+00 -0.57045443126E-02  0.85565474134E-01  0.89235198135E+00  0.88000000000E+00 0. -1.
        -11    1    4    4    0    0 -0.44078792244E-01 -0.94297281927E-02 -0.35791850020E-01  0.57560206292E-01  0.51100000000E-03 0. -1.
         11    1    4    4    0    0 -0.60753145902E-01  0.63270844672E-02 -0.33207792111E-01  0.69526939474E-01  0.51100000000E-03 0.  1.
</event>
<event>
 8    1  0.1064839E+005  0.1043930E+01  0.7957747E-01            NaN
         13   -1    0    0    0    0  0.00000000000E+00  0.00000000000E+00  0.74505805969E-08  0.10566000000E+00  0.10566000000E+00 0. -1.
     999900   -1    0    0    0    0 -0.00000000000E+00 -0.00000000000E+00 -0.74505805969E-08  0.93827000000E+00  0.93827000000E+00 0. -1.
     999902    2    1    2    0    0 -0.16217273864E-02  0.13515697794E-01  0.21077835585E-01  0.10188385824E+01  0.10185295664E+01 0.  0.
     999903    2    3    3    0    0  0.89089654310E-01 -0.85250680067E-01 -0.25491994052E-01  0.12746206191E+00  0.19801275429E-01 0.  0.
         14    1    1    2    0    0  0.16217273864E-02 -0.13515697794E-01 -0.21077835585E-01  0.25091417647E-01  0.00000000000E+00 0.  1.
     999901    1    3    3    0    0 -0.90711381696E-01  0.98766377861E-01  0.46569829638E-01  0.89137652044E+00  0.88000000000E+00 0.  1.
        -11    1    4    4    0    0  0.84119660485E-01 -0.82112998854E-01 -0.19697707958E-01  0.11919279626E+00  0.51100000000E-03 0. -1.
         11    1    4    4    0    0  0.49699938247E-02 -0.31376812128E-02 -0.57942860944E-02  0.82692656478E-02  0.51100000000E-03 0.  1.
</event>
<event>
 8    1  0.1064839E+005  0.1043930E+01  0.7957747E-01            NaN
         13   -1    0    0    0    0  0.00000000000E+00  0.00000000000E+00  0.74505805969E-08  0.10566000000E+00  0.10566000000E+00 0. -1.
     999900   -1    0    0    0    0 -0.00000000000E+00 -0.00000000000E+00 -0.74505805969E-08  0.93827000000E+00  0.93827000000E+00 0. -1.
     999902    2    1    2    0    0  0.61374167234E-02 -0.27077901436E-02  0.22784507575E-01  0.10201784991E+01  0.10199019738E+01 0.  0.
     999903    2    3    3    0    0  0.36414451308E-02 -0.12878367308E+00  0.15046707275E-01  0.13115587185E+00  0.19415580000E-01 0.  0.
         14    1    1    2    0    0 -0.61374167234E-02  0.27077901436E-02 -0.22784507575E-01  0.23751500941E-01  0.00000000000E+00 0.  1.
     999901    1    3    3    0    0  0.24959715926E-02  0.12607588294E+00  0.77378003009E-02  0.88902262721E+00  0.88000000000E+00 0. -1.
        -11    1    4    4    0    0  0.10068126377E-01 -0.67067382166E-01  0.13092677762E-01  0.69073006676E-01  0.51100000000E-03 0. -1.
         11    1    4    4    0    0 -0.64266812461E-02 -0.61716290914E-01  0.19540295123E-02  0.62082865176E-01  0.51100000000E-03 0.  1.
</event>
<event>
 8    1  0.1064839E+005  0.1043930E+01  0.7957747E-01            NaN
         13   -1    0    0    0    0  0.00000000000E+00  0.00000000000E+00  0.74505805969E-08  0.10566000000E+00  0.10566000000E+00 0.  1.
     999900   -1    0    0    0    0 -0.00000000000E+00 -0.00000000000E+00 -0.74505805969E-08  0.93827000000E+00  0.93827000000E+00 0.  1.
     999902    2    1    2    0    0  0.10392355831E-01 -0.21474913862E-01 -0.19429923874E-02  0.10199936635E+01  0.10197127661E+01 0.  0.
     999903    2    3    3    0    0  0.20941581285E-01  0.11280943614E+00  0.52030762672E-01  0.12810984874E+00  0.23246814219E-01 0.  0.
         14    1    1    2    0    0 -0.10392355831E-01  0.21474913862E-01  0.19429923874E-02  0.23936336490E-01  0.00000000000E+00 0.  1.
     999901    1    3    3    0    0 -0.10549225454E-01 -0.13428435000E+00 -0.53973755060E-01  0.89188381477E+00  0.88000000000E+00 0.  1.
        -11    1    4    4    0    0  0.22517786976E-01  0.68921287280E-01  0.25845849514E-01  0.76977033125E-01  0.51100000000E-03 0. -1.
         11    1    4    4    0    0 -0.15762056907E-02  0.43888148859E-01  0.26184913159E-01  0.51132815616E-01  0.51100000000E-03 0.  1.
</event>
<event>
 8    1  0.1064839E+005  0.1043930E+01  0.7957747E-01            NaN
         13   -1    0    0    0    0  0.00000000000E+00  0.00000000000E+00  0.74505805969E-08  0.10566000000E+00  0.10566000000E+00 0. -1.
     999900   -1    0    0    0    0 -0.00000000000E+00 -0.00000000000E+00 -0.74505805969E-08  0.93827000000E+00  0.93827000000E+00 0.  1.
     999902    2    1    2    0    0  0.51179112037E-03 -0.12279079244E-01 -0.20068444855E-01  0.10203974652E+01  0.10201260739E+01 0.  0.
     999903    2    3    3    0    0  0.38886642084E-01 -0.12423075313E+00 -0.15397622770E-01  0.13246299514E+00  0.19076355447E-01 0.  0.
         14    1    1    2    0    0 -0.51179112037E-03  0.12279079244E-01  0.20068444855E-01  0.23532534843E-01  0.00000000000E+00 0. -1.
     999901    1    3    3    0    0 -0.38374850964E-01  0.11195167389E+00 -0.46708220857E-02  0.88793447002E+00  0.88000000000E+00 0. -1.
        -11    1    4    4    0    0  0.15528065592E-01 -0.32379248177E-01  0.25420225233E-02  0.36003604445E-01  0.51100000000E-03 0. -1.
         11    1    4    4    0    0  0.23358576492E-01 -0.91851504955E-01 -0.17939645293E-01  0.96459390691E-01  0.51100000000E-03 0.  1.
</event>
<event>
 8    1  0.1064839E+005  0.1043930E+01  0.7957747E-01            NaN
         13   -1    0    0    0    0  0.00000000000E+00  0.00000000000E+00  0.74505805969E-08  0.10566000000E+00  0.10566000000E+00 0.  1.
     999900   -1    0    0    0    0 -0.00000000000E+00 -0.00000000000E+00 -0.74505805969E-08  0.93827000000E+00  0.93827000000E+00 0.  1.
     999902    2    1    2    0    0 -0.16781266274E-01  0.12893973348E-01 -0.10953262550E-01  0.10201006188E+01  0.10198222557E+01 0.  0.
     999903    2    3    3    0    0 -0.43261702306E-01  0.10379007319E+00 -0.68623631347E-01  0.13314561101E+00  0.19354502654E-01 0.  0.
         14    1    1    2    0    0  0.16781266274E-01 -0.12893973348E-01  0.10953262550E-01  0.23829381170E-01  0.00000000000E+00 0.  1.
     999901    1    3    3    0    0  0.26480436032E-01 -0.90896099841E-01  0.57670368797E-01  0.88695500782E+00  0.88000000000E+00 0. -1.
        -11    1    4    4    0    0 -0.71907105247E-02  0.17007399223E-01 -0.34880971249E-02  0.18798560816E-01  0.51100000000E-03 0.  1.
         11    1    4    4    0    0 -0.36070991781E-01  0.86782673966E-01 -0.65135534222E-01  0.11434705019E+00  0.51100000000E-03 0. -1.
</event>
<event>
 8    1  0.1064839E+005  0.1043930E+01  0.7957747E-01            NaN
         13   -1    0    0    0    0  0.00000000000E+00  0.00000000000E+00  0.74505805969E-08  0.10566000000E+00  0.10566000000E+00 0.  1.
     999900   -1    0    0    0    0 -0.00000000000E+00 -0.00000000000E+00 -0.74505805969E-08  0.93827000000E+00  0.93827000000E+00 0. -1.
     999902    2    1    2    0    0 -0.12912360218E-01  0.14036540157E-01  0.14054471069E-01  0.10202386163E+01  0.10199635055E+01 0.  0.
     999903    2    3    3    0    0 -0.38178955020E-01 -0.64619459382E-01 -0.10252732867E+00  0.12871380837E+00  0.20544687959E-01 0.  0.
         14    1    1    2    0    0  0.12912360218E-01 -0.14036540157E-01 -0.14054471069E-01  0.23691383729E-01  0.00000000000E+00 0. -1.
     999901    1    3    3    0    0  0.25266594801E-01  0.78655999538E-01  0.11658179974E+00  0.89152480790E+00  0.88000000000E+00 0.  1.
        -11    1    4    4    0    0 -0.18119939715E-01 -0.45872234708E-01 -0.55450934694E-01  0.74213620123E-01  0.51100000000E-03 0. -1.
         11    1    4    4    0    0 -0.20059015305E-01 -0.18747224673E-01 -0.47076393976E-01  0.54500188245E-01  0.51100000000E-03 0.  1.
</event>
<event>
 8    1  0.1064839E+005  0.1043930E+01  0.7957747E-01            NaN
         13   -1    0    0    0    0  0.00000000000E+00  0.00000000000E+00  0.74505805969E-08  0.10566000000E+00  0.10566000000E+00 0. -1.
     999900   -1    0    0    0    0 -0.00000000000E+00 -0.00000000000E+00 -0.74505805969E-08  0.93827000000E+00  0.93827000000E+00 0.  1.
     999902    2    1    2    0    0 -0.19640767173E-01 -0.12732435723E-01  0.18955463657E-02  0.10204466495E+01  0.10201764047E+01 0.  0.
     999903    2    3    3    0    0 -0.28487731066E-01  0.10964409008E+00 -0.60007332986E-01  0.12978046663E+00  0.20216631658E-01 0.  0.
         14    1    1    2    0    0  0.19640767173E-01  0.12732435723E-01 -0.18955463657E-02  0.23483350498E-01  0.00000000000E+00 0. -1.
     999901    1    3    3    0    0  0.88469638926E-02 -0.12237652580E+00  0.61902879352E-01  0.89066618287E+00  0.88000000000E+00 0.  1.
        -11    1    4    4    0    0 -0.16284877308E-01  0.34883057992E-01 -0.27684243483E-01  0.47420495801E-01  0.51100000000E-03 0.  1.
         11    1    4    4    0    0 -0.12202853758E-01  0.74761032090E-01 -0.32323089503E-01  0.82359970829E-01  0.51100000000E-03 0. -1.
</event>
<event>
 8    1  0.1064839E+005  0.1043930E+01  0.7957747E-01            NaN
         13   -1    0    0    0    0  0.00000000000E+00  0.00000000000E+00  0.74505805969E-08  0.10566000000E+00  0.10566000000E+00 0.  1.
     999900   -1    0    0    0    0 -0.00000000000E+00 -0.00000000000E+00 -0.74505805969E-08  0.93827000000E+00  0.93827000000E+00 0.  1.
     999902    2    1    2    0    0  0.22325299057E-02 -0.21371688013E-01  0.93913447312E-02  0.10204794010E+01  0.10202099182E+01 0.  0.
     999903    2    3    3    0    0 -0.82363667928E-01  0.75842830439E-01  0.62357819068E-01  0.12951777067E+00  0.18720218944E-01 0.  0.
         14    1    1    2    0    0 -0.22325299057E-02  0.21371688013E-01 -0.93913447312E-02  0.23450599015E-01  0.00000000000E+00 0. -1.
     999901    1    3    3    0    0  0.84596197834E-01 -0.97214518452E-01 -0.52966474337E-01  0.89096163031E+00  0.88000000000E+00 0.  1.
        -11    1    4    4    0    0 -0.37843149776E-01  0.46671912512E-01  0.29214957631E-01  0.66814266987E-01  0.51100000000E-03 0.  1.
         11    1    4    4    0    0 -0.44520518152E-01  0.29170917926E-01  0.33142861437E-01  0.62703503685E-01  0.51100000000E-03 0. -1.
</event>
<event>
 8    1  0.1064839E+005  0.1043930E+01  0.7957747E-01            NaN
         13   -1    0    0    0    0  0.00000000000E+00  0.00000000000E+00  0.74505805969E-08  0.10566000000E+00  0.10566000000E+00 0.  1.
     999900   -1    0    0    0    0 -0.00000000000E+00 -0.00000000000E+00 -0.74505805969E-08  0.93827000000E+00  0.93827000000E+00 0. -1.
     999902    2    1    2    0    0  0.14510216142E-01 -0.65457954445E-02 -0.16100117894E-01  0.10212891606E+01  0.10210381688E+01 0.  0.
     999903    2    3    3    0    0  0.60127654393E-02 -0.46135100541E-01 -0.12372754164E+00  0.13380779065E+00  0.20770638588E-01 0.  0.
         14    1    1    2    0    0 -0.14510216142E-01  0.65457954445E-02  0.16100117894E-01  0.22640839355E-01  0.00000000000E+00 0.  1.
     999901    1    3    3    0    0  0.84974507028E-02  0.39589305097E-01  0.10762742375E+00  0.88748137000E+00  0.88000000000E+00 0. -1.
        -11    1    4    4    0    0  0.99458287323E-02 -0.39127339760E-01 -0.83088907402E-01  0.92379087894E-01  0.51100000000E-03 0.  1.
         11    1    4    4    0    0 -0.39330632930E-02 -0.70077607809E-02 -0.40638634241E-01  0.41428702756E-01  0.51100000000E-03 0. -1.
</event>
<event>
 8    1  0.1064839E+005  0.1043930E+01  0.7957747E-01            NaN
         13   -1    0    0    0    0  0.00000000000E+00  0.00000000000E+00  0.74505805969E-08  0.10566000000E+00  0.10566000000E+00 0. -1.
     999900   -1    0    0    0    0 -0.00000000000E+00 -0.00000000000E+00 -0.74505805969E-08  0.93827000000E+00  0.93827000000E+00 0. -1.
     999902    2    1    2    0    0  0.11011604386E-01 -0.17312488190E-01  0.95681451597E-02  0.10212909391E+01  0.10210399870E+01 0.  0.
     999903    2    3    3    0    0  0.91052315018E-01 -0.55947106715E-01  0.78687230320E-01  0.13411756421E+00  0.19371060748E-01 0.  0.
         14    1    1    2    0    0 -0.11011604386E-01  0.17312488190E-01 -0.95681451597E-02  0.22639060941E-01  0.00000000000E+00 0.  1.
     999901    1    3    3    0    0 -0.80040710632E-01  0.38634618525E-01 -0.69119085161E-01  0.88717337485E+00  0.88000000000E+00 0. -1.
        -11    1    4    4    0    0  0.34663114860E-01 -0.11403343325E-01  0.30881488010E-01  0.47806852997E-01  0.51100000000E-03 0. -1.
         11    1    4    4    0    0  0.56389200158E-01 -0.44543763390E-01  0.47805742311E-01  0.86310711214E-01  0.51100000000E-03 0.  1.
</event>
<event>
 8    1  0.1064839E+005  0.1043930E+01  0.7957747E-01            NaN
         13   -1    0    0    0    0  0.00000000000E+00  0.00000000000E+00  0.74505805969E-08  0.10566000000E+00  0.10566000000E+00 0.  1.
     999900   -1    0    0    0    0 -0.00000000000E+00 -0.00000000000E+00 -0.74505805969E-08  0.93827000000E+00  0.93827000000E+00 0.  1.
     999902    2    1    2    0    0  0.12166962800E-01  0.32212680206E-03 -0.20032957733E-01  0.10204894764E+01  0.10202202279E+01 0.  0.
     999903    2    3    3    0    0 -0.43333851502E-01  0.12000605426E+00  0.14122006948E-01  0.13000020390E+00  0.20526718935E-01 0.  0.
         14    1    1    2    0    0 -0.12166962800E-01 -0.32212680206E-03  0.20032957733E-01  0.23440523565E-01  0.00000000000E+00 0.  1.
     999901    1    3    3    0    0  0.55500814302E-01 -0.11968392746E+00 -0.34154964681E-01  0.89048927253E+00  0.88000000000E+00 0.  1.
        -11    1    4    4    0    0 -0.27831574920E-01  0.97811835832E-01  0.66587188269E-02  0.10191345077E+00  0.51100000000E-03 0. -1.
         11    1    4    4    0    0 -0.15502276583E-01  0.22194218427E-01  0.74632881213E-02  0.28086753130E-01  0.51100000000E-03 0.  1.
</event>
<event>
 8    1  0.1064839E+005  0.1043930E+01  0.7957747E-01            NaN
         13   -1    0    0    0    0  0.00000000000E+00  0.00000000000E+00  0.74505805969E-08  0.10566000000E+00  0.10566000000E+00 0.  1.
     999900   -1    0    0    0    0 -0.00000000000E+00 -0.00000000000E+00 -0.74505805969E-08  0.93827000000E+00  0.93827000000E+00 0.  1.
     999902    2    1    2    0    0 -0.20308147467E-01 -0.14916677175E-01 -0.11713240967E-02  0.10187050102E+01  0.10183926540E+01 0.  0.
     999903    2    3    3    0    0  0.67476459996E-01  0.46137515731E-01 -0.95257946388E-01  0.12725336018E+00  0.20918850748E-01 0.  0.
         14    1    1    2    0    0  0.20308147467E-01  0.14916677175E-01  0.11713240967E-02  0.25224989824E-01  0.00000000000E+00 0. -1.
     999901    1    3    3    0    0 -0.87784607463E-01 -0.61054192907E-01  0.94086622291E-01  0.89145164999E+00  0.88000000000E+00 0. -1.
        -11    1    4    4    0    0  0.35916069709E-01  0.26608461060E-01 -0.36297776178E-01  0.57582670481E-01  0.51100000000E-03 0. -1.
         11    1    4    4    0    0  0.31560390287E-01  0.19529054672E-01 -0.58960170210E-01  0.69670689703E-01  0.51100000000E-03 0.  1.
</event>
<event>
 8    1  0.1064839E+005  0.1043930E+01  0.7957747E-01            NaN
         13   -1    0    0    0    0  0.00000000000E+00  0.00000000000E+00  0.74505805969E-08  0.10566000000E+00  0.10566000000E+00 0. -1.
     999900   -1    0    0    0    0 -0.00000000000E+00 -0.00000000000E+00 -0.74505805969E-08  0.93827000000E+00  0.93827000000E+00 0. -1.
     999902    2    1    2    0    0  0.13102408118E-01  0.56088792552E-02 -0.19780159215E-01  0.10195499400E+01  0.10192584034E+01 0.  0.
     999903    2    3    3    0    0 -0.35297176720E-01 -0.34535312003E-01  0.11525717427E+00  0.12703150475E+00  0.20352113356E-01 0.  0.
         14    1    1    2    0    0 -0.13102408118E-01 -0.56088792552E-02  0.19780159215E-01  0.24380059958E-01  0.00000000000E+00 0. -1.
     999901    1    3    3    0    0  0.48399584838E-01  0.40144191259E-01 -0.13503733349E+00  0.89251843529E+00  0.88000000000E+00 0. -1.
        -11    1    4    4    0    0 -0.11274436451E-01 -0.60918391758E-03  0.32688992307E-01  0.34587792086E-01  0.51100000000E-03 0. -1.
         11    1    4    4    0    0 -0.24022740268E-01 -0.33926128086E-01  0.82568181964E-01  0.92443712662E-01  0.51100000000E-03 0.  1.
</event>
<event>
 8    1  0.1064839E+005  0.1043930E+01  0.7957747E-01            NaN
         13   -1    0    0    0    0  0.00000000000E+00  0.00000000000E+00  0.74505805969E-08  0.10566000000E+00  0.10566000000E+00 0. -1.
     999900   -1    0    0    0    0 -0.00000000000E+00 -0.00000000000E+00 -0.74505805969E-08  0.93827000000E+00  0.93827000000E+00 0. -1.
     999902    2    1    2    0    0  0.21580108643E-01 -0.15798411372E-02  0.63376690779E-02  0.10213830925E+01  0.10211342021E+01 0.  0.
     999903    2    3    3    0    0  0.10524016957E+00  0.15322870092E-01  0.79353460731E-01  0.13424386261E+00  0.20350903613E-01 0.  0.
         14    1    1    2    0    0 -0.21580108643E-01  0.15798411372E-02 -0.63376690779E-02  0.22546907468E-01  0.00000000000E+00 0.  1.
     999901    1    3    3    0    0 -0.83660060930E-01 -0.16902711229E-01 -0.73015791653E-01  0.88713922993E+00  0.88000000000E+00 0. -1.
        -11    1    4    4    0    0  0.18034006627E-01  0.62991945848E-02  0.23508590394E-01  0.30295547375E-01  0.51100000000E-03 0.  1.
         11    1    4    4    0    0  0.87206162946E-01  0.90236755075E-02  0.55844870336E-01  0.10394831523E+00  0.51100000000E-03 0. -1.
</event>
<event>
 8    1  0.1064839E+005  0.1043930E+01  0.7957747E-01            NaN
         13   -1    0    0    0    0  0.00000000000E+00  0.00000000000E+00  0.74505805969E-08  0.10566000000E+00  0.10566000000E+00 0.  1.
     999900   -1    0    0    0    0 -0.00000000000E+00 -0.00000000000E+00 -0.74505805969E-08  0.93827000000E+00  0.93827000000E+00 0. -1.
     999902    2    1    2    0    0  0.13835090929E-01  0.18525476306E-01 -0.38475457041E-02  0.10204905755E+01  0.10202213525E+01 0.  0.
     999903    2    3    3    0    0  0.11391147413E+00 -0.62066939500E-01  0.20198800550E-02  0.13113977483E+00  0.19116268170E-01 0.  0.
         14    1    1    2    0    0 -0.13835090929E-01 -0.18525476306E-01  0.38475457041E-02  0.23439424509E-01  0.00000000000E+00 0.  1.
     999901    1    3    3    0    0 -0.10007638320E+00  0.80592415806E-01 -0.58674257591E-02  0.88935080067E+00  0.88000000000E+00 0.  1.
        -11    1    4    4    0    0  0.80856755600E-01 -0.40099263803E-01  0.94833025663E-02  0.90752190233E-01  0.51100000000E-03 0.  1.
         11    1    4    4    0    0  0.33054718529E-01 -0.21967675698E-01 -0.74634225113E-02  0.40387584592E-01  0.51100000000E-03 0. -1.
</event>
<event>
 8    1  0.1064839E+005  0.1043930E+01  0.7957747E-01            NaN
         13   -1    0    0    0    0  0.00000000000E+00  0.00000000000E+00  0.74505805969E-08  0.10566000000E+00  0.10566000000E+00 0. -1.
     999900   -1    0    0    0    0 -0.00000000000E+00 -0.00000000000E+00 -0.74505805969E-08  0.93827000000E+00  0.93827000000E+00 0. -1.
     999902    2    1    2    0    0  0.19071062633E-01 -0.13643149044E-01  0.16983481863E-02  0.10204198887E+01  0.10201490205E+01 0.  0.
     999903    2    3    3    0    0 -0.20459743939E-01 -0.12160482481E+00  0.44117775900E-01  0.13192801146E+00  0.15883561282E-01 0.  0.
         14    1    1    2    0    0 -0.19071062633E-01  0.13643149044E-01 -0.16983481863E-02  0.23510111279E-01  0.00000000000E+00 0. -1.
     999901    1    3    3    0    0  0.39530806572E-01  0.10796167577E+00 -0.42419427713E-01  0.88849187726E+00  0.88000000000E+00 0. -1.
        -11    1    4    4    0    0 -0.19359742581E-01 -0.77734934999E-01  0.23839336055E-01  0.83582861980E-01  0.51100000000E-03 0. -1.
         11    1    4    4    0    0 -0.11000013576E-02 -0.43869889813E-01  0.20278439845E-01  0.48345149485E-01  0.51100000000E-03 0.  1.
</event>
<event>
 8    1  0.1064839E+005  0.1043930E+01  0.7957747E-01            NaN
         13   -1    0    0    0    0  0.00000000000E+00  0.00000000000E+00  0.74505805969E-08  0.10566000000E+00  0.10566000000E+00 0. -1.
     999900   -1    0    0    0    0 -0.00000000000E+00 -0.00000000000E+00 -0.74505805969E-08  0.93827000000E+00  0.93827000000E+00 0.  1.
     999902    2    1    2    0    0 -0.21056112917E-01  0.17517907816E-01  0.68864651208E-02  0.10156871179E+01  0.10152943717E+01 0.  0.
     999903    2    3    3    0    0 -0.10832691674E+00 -0.62413182583E-01  0.16753834770E-01  0.12771046430E+00  0.19978625168E-01 0.  0.
         14    1    1    2    0    0  0.21056112917E-01 -0.17517907816E-01 -0.68864651208E-02  0.28242882064E-01  0.00000000000E+00 0. -1.
     999901    1    3    3    0    0  0.87270803820E-01  0.79931090399E-01 -0.98673696492E-02  0.88797665363E+00  0.88000000000E+00 0.  1.
        -11    1    4    4    0    0 -0.66580284812E-01 -0.41845248620E-01  0.12329441219E-02  0.78649478256E-01  0.51100000000E-03 0.  1.
         11    1    4    4    0    0 -0.41746631924E-01 -0.20567933963E-01  0.15520890648E-01  0.49060986048E-01  0.51100000000E-03 0. -1.
</event>
<event>
 8    1  0.1064839E+005  0.1043930E+01  0.7957747E-01            NaN
         13   -1    0    0    0    0  0.00000000000E+00  0.00000000000E+00  0.74505805969E-08  0.10566000000E+00  0.10566000000E+00 0. -1.
     999900   -1    0    0    0    0 -0.00000000000E+00 -0.00000000000E+00 -0.74505805969E-08  0.93827000000E+00  0.93827000000E+00 0. -1.
     999902    2    1    2    0    0 -0.18348851106E-01 -0.14885374229E-01 -0.20802452476E-02  0.10202111863E+01  0.10199354306E+01 0.  0.
     999903    2    3    3    0    0  0.56542441665E-01  0.10964976439E+00 -0.28309734403E-01  0.12790759862E+00  0.18406362560E-01 0.  0.
         14    1    1    2    0    0  0.18348851106E-01  0.14885374229E-01  0.20802452476E-02  0.23718813696E-01  0.00000000000E+00 0. -1.
     999901    1    3    3    0    0 -0.74891292770E-01 -0.12453513862E+00  0.26229489155E-01  0.89230358768E+00  0.88000000000E+00 0. -1.
        -11    1    4    4    0    0  0.20877079944E-01  0.24058941008E-01 -0.45066718226E-02  0.32175399319E-01  0.51100000000E-03 0.  1.
         11    1    4    4    0    0  0.35665361721E-01  0.85590823387E-01 -0.23803062580E-01  0.95732199306E-01  0.51100000000E-03 0. -1.
</event>
<event>
 8    1  0.1064839E+005  0.1043930E+01  0.7957747E-01            NaN
         13   -1    0    0    0    0  0.00000000000E+00  0.00000000000E+00  0.74505805969E-08  0.10566000000E+00  0.10566000000E+00 0.  1.
     999900   -1    0    0    0    0 -0.00000000000E+00 -0.00000000000E+00 -0.74505805969E-08  0.93827000000E+00  0.93827000000E+00 0.  1.
     999902    2    1    2    0    0  0.58981839227E-03  0.22102461266E-01 -0.78661503417E-02  0.10204620857E+01  0.10201922002E+01 0.  0.
     999903    2    3    3    0    0  0.42045729305E-01  0.12513631226E+00 -0.30976218677E-02  0.13346867770E+00  0.19425567334E-01 0.  0.
         14    1    1    2    0    0 -0.58981839227E-03 -0.22102461266E-01  0.78661503417E-02  0.23467914286E-01  0.00000000000E+00 0. -1.
     999901    1    3    3    0    0 -0.41455910913E-01 -0.10303385099E+00 -0.47685284741E-02  0.88699340802E+00  0.88000000000E+00 0. -1.
        -11    1    4    4    0    0  0.28031678203E-01  0.87429702910E-01  0.67123269693E-02  0.92060004280E-01  0.51100000000E-03 0.  1.
         11    1    4    4    0    0  0.14014051102E-01  0.37706609350E-01 -0.98099488369E-02  0.41408673417E-01  0.51100000000E-03 0. -1.
</event>
<event>
 8    1  0.1064839E+005  0.1043930E+01  0.7957747E-01            NaN
         13   -1    0    0    0    0  0.00000000000E+00  0.00000000000E+00  0.74505805969E-08  0.10566000000E+00  0.10566000000E+00 0. -1.
     999900   -1    0    0    0    0 -0.00000000000E+00 -0.00000000000E+00 -0.74505805969E-08  0.93827000000E+00  0.93827000000E+00 0.  1.
     999902    2    1    2    0    0  0.19605887414E-01  0.79265774459E-02 -0.91561280685E-02  0.10208853448E+01  0.10206252158E+01 0.  0.
     999903    2    3    3    0    0 -0.61463410180E-01  0.79096216030E-01 -0.82452056479E-01  0.13127327116E+00  0.20009195963E-01 0.  0.
         14    1    1    2    0    0 -0.19605887414E-01 -0.79265774459E-02  0.91561280685E-02  0.23044655183E-01  0.00000000000E+00 0. -1.
     999901    1    3    3    0    0  0.81069297595E-01 -0.71169638584E-01  0.73295928410E-01  0.88961207365E+00  0.88000000000E+00 0. -1.
        -11    1    4    4    0    0 -0.31559795279E-01  0.25821456982E-01 -0.37745002596E-01  0.55567208502E-01  0.51100000000E-03 0. -1.
         11    1    4    4    0    0 -0.29903614901E-01  0.53274759048E-01 -0.44707053882E-01  0.75706062661E-01  0.51100000000E-03 0.  1.
</event>
<event>
 8    1  0.1064839E+005  0.1043930E+01  0.7957747E-01            NaN
         13   -1    0    0    0    0  0.00000000000E+00  0.00000000000E+00  0.74505805969E-08  0.10566000000E+00  0.10566000000E+00 0. -1.
     999900   -1    0    0    0    0 -0.00000000000E+00 -0.00000000000E+00 -0.74505805969E-08  0.93827000000E+00  0.93827000000E+00 0. -1.
     999902    2    1    2    0    0  0.15254308975E-02  0.14791490772E-01  0.19679475720E-01  0.10192642970E+01  0.10189658043E+01 0.  0.
     999903    2    3    3    0    0  0.26129956942E-01 -0.41249396973E-02 -0.12283342854E+00  0.12725917264E+00  0.20175630809E-01 0.  0.
         14    1    1    2    0    0 -0.15254308975E-02 -0.14791490772E-01 -0.19679475720E-01  0.24665702976E-01  0.00000000000E+00 0.  1.
     999901    1    3    3    0    0 -0.24604526044E-01  0.18916430469E-01  0.14251290426E+00  0.89200512438E+00  0.88000000000E+00 0.  1.
        -11    1    4    4    0    0  0.72463011797E-02  0.51232759799E-02 -0.15358140713E-01  0.17745152711E-01  0.51100000000E-03 0. -1.
         11    1    4    4    0    0  0.18883655762E-01 -0.92482156773E-02 -0.10747528782E+00  0.10951401993E+00  0.51100000000E-03 0.  1.
</event>
<event>
 8    1  0.1064839E+005  0.1043930E+01  0.7957747E-01            NaN
         13   -1    0    0    0    0  0.00000000000E+00  0.00000000000E+00  0.74505805969E-08  0.10566000000E+00  0.10566000000E+00 0. -1.
     999900   -1    0    0    0    0 -0.00000000000E+00 -0.00000000000E+00 -0.74505805969E-08  0.93827000000E+00  0.93827000000E+00 0. -1.
     999902    2    1    2    0    0 -0.12041803408E-01  0.21041089638E-01  0.10870817944E-01  0.10173610865E+01  0.10170140968E+01 0.  0.
     999903    2    3    3    0    0 -0.27655511092E-01 -0.60642867141E-01  0.10620452382E+00  0.12831408428E+00  0.27252866170E-01 0.  0.
         14    1    1    2    0    0  0.12041803408E-01 -0.21041089638E-01 -0.10870817944E-01  0.26568913513E-01  0.00000000000E+00 0.  1.
     999901    1    3    3    0    0  0.15613707684E-01  0.81683956778E-01 -0.95333705879E-01  0.88904700221E+00  0.88000000000E+00 0. -1.
        -11    1    4    4    0    0 -0.25977745682E-01 -0.57195759830E-01  0.79469937795E-01  0.10130118631E+00  0.51100000000E-03 0. -1.
         11    1    4    4    0    0 -0.16777654101E-02 -0.34471073110E-02  0.26734586028E-01  0.27012897969E-01  0.51100000000E-03 0.  1.
</event>
<event>
 8    1  0.1064839E+005  0.1043930E+01  0.7957747E-01            NaN
         13   -1    0    0    0    0  0.00000000000E+00  0.00000000000E+00  0.74505805969E-08  0.10566000000E+00  0.10566000000E+00 0. -1.
     999900   -1    0    0    0    0 -0.00000000000E+00 -0.00000000000E+00 -0.74505805969E-08  0.93827000000E+00  0.93827000000E+00 0.  1.
     999902    2    1    2    0    0  0.21346599853E-01 -0.27173005947E-02 -0.10564306184E-01  0.10199578158E+01  0.10196760665E+01 0.  0.
     999903    2    3    3    0    0  0.88827050787E-01 -0.82198630464E-01  0.48458636629E-01  0.13183924222E+00  0.19659260470E-01 0.  0.
         14    1    1    2    0    0 -0.21346599853E-01  0.27173005947E-02  0.10564306184E-01  0.23972184150E-01  0.00000000000E+00 0. -1.
     999901    1    3    3    0    0 -0.67480450934E-01  0.79481329869E-01 -0.59022942813E-01  0.88811857363E+00  0.88000000000E+00 0.  1.
        -11    1    4    4    0    0  0.18941989005E-01 -0.77646599349E-02  0.92202574191E-02  0.22458031063E-01  0.51100000000E-03 0.  1.
         11    1    4    4    0    0  0.69885061782E-01 -0.74433970529E-01  0.39238379210E-01  0.10938121115E+00  0.51100000000E-03 0. -1.
</event>
<event>
 8    1  0.1064839E+005  0.1043930E+01  0.7957747E-01            NaN
         13   -1    0    0    0    0  0.00000000000E+00  0.00000000000E+00  0.74505805969E-08  0.10566000000E+00  0.10566000000E+00 0.  1.
     999900   -1    0    0    0    0 -0.00000000000E+00 -0.00000000000E+00 -0.74505805969E-08  0.93827000000E+00  0.93827000000E+00 0. -1.
     999902    2    1    2    0    0  0.13269847622E-01  0.17190917072E-01  0.88516356989E-02  0.10204786047E+01  0.10202091035E+01 0.  0.
     999903    2    3    3    0    0  0.32749778516E-01 -0.27327184438E-01 -0.12079163526E+00  0.12965387069E+00  0.20004600284E-01 0.  0.
         14    1    1    2    0    0 -0.13269847622E-01 -0.17190917072E-01 -0.88516356989E-02  0.23451395273E-01  0.00000000000E+00 0. -1.
     999901    1    3    3    0    0 -0.19479930894E-01  0.44518101510E-01  0.12964327096E+00  0.89082473404E+00  0.88000000000E+00 0.  1.
        -11    1    4    4    0    0  0.33870577234E-01 -0.20207545483E-01 -0.94845205445E-01  0.10272017822E+00  0.51100000000E-03 0.  1.
         11    1    4    4    0    0 -0.11207987183E-02 -0.71196389554E-02 -0.25946429819E-01  0.26933692468E-01  0.51100000000E-03 0. -1.
</event>
<event>
 8    1  0.1064839E+005  0.1043930E+01  0.7957747E-01            NaN
         13   -1    0    0    0    0  0.00000000000E+00  0.00000000000E+00  0.74505805969E-08  0.10566000000E+00  0.10566000000E+00 0.  1.
     999900   -1    0    0    0    0 -0.00000000000E+00 -0.00000000000E+00 -0.74505805969E-08  0.93827000000E+00  0.93827000000E+00 0. -1.
     999902    2    1    2    0    0  0.19744231016E-01 -0.74192105913E-02 -0.10201758263E-01  0.10205002067E+01  0.10202312074E+01 0.  0.
     999903    2    3    3    0    0 -0.32582704994E-01  0.31152650366E-01 -0.12131643142E+00  0.13113393381E+00  0.21126092258E-01 0.  0.
         14    1    1    2    0    0 -0.19744231016E-01  0.74192105913E-02  0.10201758263E-01  0.23429793338E-01  0.00000000000E+00 0. -1.
     999901    1    3    3    0    0  0.52326936010E-01 -0.38571860957E-01  0.11111467316E+00  0.88936627285E+00  0.88000000000E+00 0.  1.
        -11    1    4    4    0    0 -0.18463065608E-01  0.14350464248E-01 -0.35193915407E-01  0.42257465831E-01  0.51100000000E-03 0. -1.
         11    1    4    4    0    0 -0.14119639386E-01  0.16802186118E-01 -0.86122516017E-01  0.88876467982E-01  0.51100000000E-03 0.  1.
</event>
<event>
 8    1  0.1064839E+005  0.1043930E+01  0.7957747E-01            NaN
         13   -1    0    0    0    0  0.00000000000E+00  0.00000000000E+00  0.74505805969E-08  0.10566000000E+00  0.10566000000E+00 0.  1.
     999900   -1    0    0    0    0 -0.00000000000E+00 -0.00000000000E+00 -0.74505805969E-08  0.93827000000E+00  0.93827000000E+00 0.  1.
     999902    2    1    2    0    0 -0.12523403159E-01 -0.20018278115E-01  0.25234363891E-02  0.10201826882E+01  0.10199062616E+01 0.  0.
     999903    2    3    3    0    0  0.42667149763E-02 -0.13056236176E+00 -0.16110410022E-01  0.13291208535E+00  0.18475441955E-01 0.  0.
         14    1    1    2    0    0  0.12523403159E-01  0.20018278115E-01 -0.25234363891E-02  0.23747311776E-01  0.00000000000E+00 0. -1.
     999901    1    3    3    0    0 -0.16790118136E-01  0.11054408365E+00  0.18633846411E-01  0.88727060288E+00  0.88000000000E+00 0. -1.
        -11    1    4    4    0    0  0.93134033864E-02 -0.34739044618E-01 -0.49159318133E-02  0.36303831894E-01  0.51100000000E-03 0. -1.
         11    1    4    4    0    0 -0.50466884102E-02 -0.95823317143E-01 -0.11194478209E-01  0.96608253454E-01  0.51100000000E-03 0.  1.
</event>
<event>
 8    1  0.1064839E+005  0.1043930E+01  0.7957747E-01            NaN
         13   -1    0    0    0    0  0.00000000000E+00  0.00000000000E+00  0.74505805969E-08  0.10566000000E+00  0.10566000000E+00 0.  1.
     999900   -1    0    0    0    0 -0.00000000000E+00 -0.00000000000E+00 -0.74505805969E-08  0.93827000000E+00  0.93827000000E+00 0.  1.
     999902    2    1    2    0    0  0.57951020159E-02 -0.16191115833E-01  0.16268430377E-01  0.10202572886E+01  0.10199826163E+01 0.  0.
     999903    2    3    3    0    0  0.38338586682E-03 -0.29860105290E-01  0.12810280884E+00  0.13305773033E+00  0.20056347969E-01 0.  0.
         14    1    1    2    0    0 -0.57951020159E-02  0.16191115833E-01 -0.16268430377E-01  0.23672711426E-01  0.00000000000E+00 0. -1.
     999901    1    3    3    0    0  0.54117161490E-02  0.13668989456E-01 -0.11183437847E+00  0.88719955825E+00  0.88000000000E+00 0.  1.
        -11    1    4    4    0    0 -0.33308835738E-02 -0.27801930958E-01  0.79906661436E-01  0.84672178508E-01  0.51100000000E-03 0.  1.
         11    1    4    4    0    0  0.37142694406E-02 -0.20581743318E-02  0.48196147408E-01  0.48385551821E-01  0.51100000000E-03 0. -1.
</event>
<event>
 8    1  0.1064839E+005  0.1043930E+01  0.7957747E-01            NaN
         13   -1    0    0    0    0  0.00000000000E+00  0.00000000000E+00  0.74505805969E-08  0.10566000000E+00  0.10566000000E+00 0. -1.
     999900   -1    0    0    0    0 -0.00000000000E+00 -0.00000000000E+00 -0.74505805969E-08  0.93827000000E+00  0.93827000000E+00 0.  1.
     999902    2    1    2    0    0 -0.10626324515E-01  0.17627795554E-01 -0.12061278322E-01  0.10200735044E+01  0.10197944999E+01 0.  0.
     999903    2    3    3    0    0 -0.80312159053E-01  0.44873122491E-01  0.90927510982E-01  0.13091372453E+00  0.20173026601E-01 0.  0.
         14    1    1    2    0    0  0.10626324515E-01 -0.17627795554E-01  0.12061278322E-01  0.23856495626E-01  0.00000000000E+00 0. -1.
     999901    1    3    3    0    0  0.69685834538E-01 -0.27245326937E-01 -0.10298878930E+00  0.88915977985E+00  0.88000000000E+00 0.  1.
        -11    1    4    4    0    0 -0.66376933692E-01  0.36958820952E-01  0.62940516237E-01  0.98659117560E-01  0.51100000000E-03 0.  1.
         11    1    4    4    0    0 -0.13935225360E-01  0.79143015387E-02  0.27986994746E-01  0.32254606967E-01  0.51100000000E-03 0. -1.
</event>
<event>
 8    1  0.1064839E+005  0.1043930E+01  0.7957747E-01            NaN
         13   -1    0    0    0    0  0.00000000000E+00  0.00000000000E+00  0.74505805969E-08  0.10566000000E+00  0.10566000000E+00 0. -1.
     999900   -1    0    0    0    0 -0.00000000000E+00 -0.00000000000E+00 -0.74505805969E-08  0.93827000000E+00  0.93827000000E+00 0.  1.
     999902    2    1    2    0    0  0.22171609375E-02  0.17227598793E-01  0.16753413476E-01  0.10197973908E+01  0.10195118123E+01 0.  0.
     999903    2    3    3    0    0 -0.12100414657E+00  0.41401959181E-01 -0.15597429649E-01  0.13029502018E+00  0.19426444907E-01 0.  0.
         14    1    1    2    0    0 -0.22171609375E-02 -0.17227598793E-01 -0.16753413476E-01  0.24132609182E-01  0.00000000000E+00 0.  1.
     999901    1    3    3    0    0  0.12322130750E+00 -0.24174360387E-01  0.32350843125E-01  0.88950237064E+00  0.88000000000E+00 0.  1.
        -11    1    4    4    0    0 -0.43987520280E-01  0.24713038871E-01 -0.36492480345E-02  0.50588678208E-01  0.51100000000E-03 0. -1.
         11    1    4    4    0    0 -0.77016626285E-01  0.16688920310E-01 -0.11948181614E-01  0.79706341971E-01  0.51100000000E-03 0.  1.
</event>
<event>
 8    1  0.1064839E+005  0.1043930E+01  0.7957747E-01            NaN
         13   -1    0    0    0    0  0.00000000000E+00  0.00000000000E+00  0.74505805969E-08  0.10566000000E+00  0.10566000000E+00 0. -1.
     999900   -1    0    0    0    0 -0.00000000000E+00 -0.00000000000E+00 -0.74505805969E-08  0.93827000000E+00  0.93827000000E+00 0.  1.
     999902    2    1    2    0    0  0.19669336425E-02 -0.20108440728E-01  0.14937594061E-01  0.10188033223E+01  0.10184934264E+01 0.  0.
     999903    2    3    3    0    0  0.85035635194E-01 -0.14260102327E-01  0.96730725906E-01  0.13109575295E+00  0.19870916858E-01 0.  0.
         14    1    1    2    0    0 -0.19669336425E-02  0.20108440728E-01 -0.14937594061E-01  0.25126677711E-01  0.00000000000E+00 0. -1.
     999901    1    3    3    0    0 -0.83068701552E-01 -0.58483384012E-02 -0.81793131845E-01  0.88770756934E+00  0.88000000000E+00 0.  1.
        -11    1    4    4    0    0  0.43510862058E-01 -0.17211137468E-01  0.53522342032E-01  0.71093745067E-01  0.51100000000E-03 0.  1.
         11    1    4    4    0    0  0.41524773136E-01  0.29510351415E-02  0.43208383874E-01  0.60002007886E-01  0.51100000000E-03 0. -1.
</event>
<event>
 8    1  0.1064839E+005  0.1043930E+01  0.7957747E-01            NaN
         13   -1    0    0    0    0  0.00000000000E+00  0.00000000000E+00  0.74505805969E-08  0.10566000000E+00  0.10566000000E+00 0. -1.
     999900   -1    0    0    0    0 -0.00000000000E+00 -0.00000000000E+00 -0.74505805969E-08  0.93827000000E+00  0.93827000000E+00 0. -1.
     999902    2    1    2    0    0 -0.23769483996E-02  0.21893635902E-01 -0.43765251109E-02  0.10214770459E+01  0.10212302483E+01 0.  0.
     999903    2    3    3    0    0  0.66021450084E-01  0.58149309469E-01 -0.97913367306E-01  0.13314042295E+00  0.19979255848E-01 0.  0.
         14    1    1    2    0    0  0.23769483996E-02 -0.21893635902E-01  0.43765251109E-02  0.22452954121E-01  0.00000000000E+00 0. -1.
     999901    1    3    3    0    0 -0.68398398484E-01 -0.36255673566E-01  0.93536842196E-01  0.88833662292E+00  0.88000000000E+00 0.  1.
        -11    1    4    4    0    0  0.41979446409E-01  0.45696080006E-01 -0.77190401268E-01  0.99040521090E-01  0.51100000000E-03 0.  1.
         11    1    4    4    0    0  0.24042003675E-01  0.12453229463E-01 -0.20722966038E-01  0.34099901865E-01  0.51100000000E-03 0. -1.
</event>
<event>
 8    1  0.1064839E+005  0.1043930E+01  0.7957747E-01            NaN
         13   -1    0    0    0    0  0.00000000000E+00  0.00000000000E+00  0.74505805969E-08  0.10566000000E+00  0.10566000000E+00 0.  1.
     999900   -1    0    0    0    0 -0.00000000000E+00 -0.00000000000E+00 -0.74505805969E-08  0.93827000000E+00  0.93827000000E+00 0. -1.
     999902    2    1    2    0    0 -0.18692157415E-01  0.10105017415E-02  0.14121670832E-01  0.10204813444E+01  0.10202119068E+01 0.  0.
     999903    2    3    3    0    0 -0.10131559234E+00  0.83085091063E-01 -0.79888468454E-02  0.13253329118E+00  0.18255683782E-01 0.  0.
         14    1    1    2    0    0  0.18692157415E-01 -0.10105017415E-02 -0.14121670832E-01  0.23448655605E-01  0.00000000000E+00 0. -1.
     999901    1    3    3    0    0  0.82623434922E-01 -0.82074589322E-01  0.22110517677E-01  0.88794805321E+00  0.88000000000E+00 0.  1.
        -11    1    4    4    0    0 -0.76399646233E-01  0.63429555765E-01  0.18069924302E-02  0.99316367391E-01  0.51100000000E-03 0. -1.
         11    1    4    4    0    0 -0.24915946104E-01  0.19655535298E-01 -0.97958392756E-02  0.33216923792E-01  0.51100000000E-03 0.  1.
</event>
<event>
 8    1  0.1064839E+005  0.1043930E+01  0.7957747E-01            NaN
         13   -1    0    0    0    0  0.00000000000E+00  0.00000000000E+00  0.74505805969E-08  0.10566000000E+00  0.10566000000E+00 0.  1.
     999900   -1    0    0    0    0 -0.00000000000E+00 -0.00000000000E+00 -0.74505805969E-08  0.93827000000E+00  0.93827000000E+00 0.  1.
     999902    2    1    2    0    0 -0.10627461069E-01 -0.39516833798E-02 -0.19099900416E-01  0.10217181805E+01  0.10214767131E+01 0.  0.
     999903    2    3    3    0    0 -0.10740680582E-02 -0.48265844943E-01 -0.12376734873E+00  0.13435676202E+00  0.20065828644E-01 0.  0.
         14    1    1    2    0    0  0.10627461069E-01  0.39516833798E-02  0.19099900416E-01  0.22211819516E-01  0.00000000000E+00 0.  1.
     999901    1    3    3    0    0 -0.95533930106E-02  0.44314161563E-01  0.10466744832E+00  0.88736141846E+00  0.88000000000E+00 0. -1.
        -11    1    4    4    0    0 -0.53496356040E-02 -0.38036942569E-01 -0.11089775972E+00  0.11736269353E+00  0.51100000000E-03 0. -1.
         11    1    4    4    0    0  0.42755675458E-02 -0.10228902373E-01 -0.12869589016E-01  0.16994068496E-01  0.51100000000E-03 0.  1.
</event>
<event>
 8    1  0.1064839E+005  0.1043930E+01  0.7957747E-01            NaN
         13   -1    0    0    0    0  0.00000000000E+00  0.00000000000E+00  0.74505805969E-08  0.10566000000E+00  0.10566000000E+00 0.  1.
     999900   -1    0    0    0    0 -0.00000000000E+00 -0.00000000000E+00 -0.74505805969E-08  0.93827000000E+00  0.93827000000E+00 0. -1.
     999902    2    1    2    0    0  0.76696722038E-03 -0.93522045500E-02 -0.19064233789E-01  0.10226815417E+01  0.10224607762E+01 0.  0.
     999903    2    3    3    0    0  0.65615332659E-01 -0.91682153387E-01  0.66521704656E-01  0.13233976251E+00  0.19434156041E-01 0.  0.
         14    1    1    2    0    0 -0.76696722038E-03  0.93522045500E-02  0.19064233789E-01  0.21248458265E-01  0.00000000000E+00 0.  1.
     999901    1    3    3    0    0 -0.64848365439E-01  0.82329948837E-01 -0.85585938445E-01  0.89034177923E+00  0.88000000000E+00 0. -1.
        -11    1    4    4    0    0  0.56465590784E-01 -0.64899087652E-01  0.52058043944E-01  0.10055125847E+00  0.51100000000E-03 0. -1.
         11    1    4    4    0    0  0.91497418759E-02 -0.26783065735E-01  0.14463660712E-01  0.31788504035E-01  0.51100000000E-03 0.  1.
</event>
<event>
 8    1  0.1064839E+005  0.1043930E+01  0.7957747E-01            NaN
         13   -1    0    0    0    0  0.00000000000E+00  0.00000000000E+00  0.74505805969E-08  0.10566000000E+00  0.10566000000E+00 0. -1.
     999900   -1    0    0    0    0 -0.00000000000E+00 -0.00000000000E+00 -0.74505805969E-08  0.93827000000E+00  0.93827000000E+00 0. -1.
     999902    2    1    2    0    0 -0.10794966364E-01 -0.87795750208E-02  0.17579476567E-01  0.10215101375E+01  0.10212640750E+01 0.  0.
     999903    2    3    3    0    0  0.46524671271E-01 -0.52108736124E-02  0.12309508434E+00  0.13334809153E+00  0.20919261096E-01 0.  0.
         14    1    1    2    0    0  0.10794966364E-01  0.87795750208E-02 -0.17579476567E-01  0.22419862460E-01  0.00000000000E+00 0.  1.
     999901    1    3    3    0    0 -0.57319637636E-01 -0.35687014084E-02 -0.10551560777E+00  0.88816204601E+00  0.88000000000E+00 0. -1.
        -11    1    4    4    0    0  0.26580494825E-01  0.73290247349E-02  0.61525667128E-01  0.67423335317E-01  0.51100000000E-03 0. -1.
         11    1    4    4    0    0  0.19944176447E-01 -0.12539898347E-01  0.61569417214E-01  0.65924756213E-01  0.51100000000E-03 0.  1.
</event>
<event>
 8    1  0.1064839E+005  0.1043930E+01  0.7957747E-01            NaN
         13   -1    0    0    0    0  0.00000000000E+00  0.00000000000E+00  0.74505805969E-08  0.10566000000E+00  0.10566000000E+00 0.  1.
     999900   -1    0    0    0    0 -0.00000000000E+00 -0.00000000000E+00 -0.74505805969E-08  0.93827000000E+00  0.93827000000E+00 0.  1.
     999902    2    1    2    0    0  0.12111162867E-02 -0.23421875909E-01 -0.33915944498E-02  0.10202328697E+01  0.10199576238E+01 0.  0.
     999903    2    3    3    0    0 -0.66809079312E-01 -0.11312966770E+00 -0.51183655377E-02  0.13305914560E+00  0.20414792886E-01 0.  0.
         14    1    1    2    0    0 -0.12111162867E-02  0.23421875909E-01  0.33915944498E-02  0.23697130347E-01  0.00000000000E+00 0. -1.
     999901    1    3    3    0    0  0.68020195598E-01  0.89707791792E-01  0.17267710879E-02  0.88717372406E+00  0.88000000000E+00 0.  1.
        -11    1    4    4    0    0 -0.60230413267E-01 -0.97159968149E-01  0.20951861521E-02  0.11433465362E+00  0.51100000000E-03 0. -1.
         11    1    4    4    0    0 -0.65786660447E-02 -0.15969699552E-01 -0.72135516898E-02  0.18724491974E-01  0.51100000000E-03 0.  1.
</event>
<event>
 8    1  0.1064839E+005  0.1043930E+01  0.7957747E-01            NaN
         13   -1    0    0    0    0  0.00000000000E+00  0.00000000000E+00  0.74505805969E-08  0.10566000000E+00  0.10566000000E+00 0.  1.
     999900   -1    0    0    0    0 -0.00000000000E+00 -0.00000000000E+00 -0.74505805969E-08  0.93827000000E+00  0.93827000000E+00 0. -1.
     999902    2    1    2    0    0 -0.18380197529E-01 -0.17309117621E-01 -0.14179186651E-02  0.10186426967E+01  0.10183287759E+01 0.  0.
     999903    2    3    3    0    0  0.39345854073E-01 -0.77394350846E-01 -0.94476480054E-01  0.12982188905E+00  0.19746792618E-01 0.  0.
         14    1    1    2    0    0  0.18380197529E-01  0.17309117621E-01  0.14179186651E-02  0.25287303283E-01  0.00000000000E+00 0. -1.
     999901    1    3    3    0    0 -0.57726051602E-01  0.60085233225E-01  0.93058561389E-01  0.88882080766E+00  0.88000000000E+00 0. -1.
        -11    1    4    4    0    0  0.29417847307E-01 -0.60039881334E-01 -0.83622964171E-01  0.10706660707E+00  0.51100000000E-03 0.  1.
         11    1    4    4    0    0  0.99280067655E-02 -0.17354469512E-01 -0.10853515884E-01  0.22755281989E-01  0.51100000000E-03 0. -1.
</event>
<event>
 8    1  0.1064839E+005  0.1043930E+01  0.7957747E-01            NaN
         13   -1    0    0    0    0  0.00000000000E+00  0.00000000000E+00  0.74505805969E-08  0.10566000000E+00  0.10566000000E+00 0. -1.
     999900   -1    0    0    0    0 -0.00000000000E+00 -0.00000000000E+00 -0.74505805969E-08  0.93827000000E+00  0.93827000000E+00 0.  1.
     999902    2    1    2    0    0 -0.17891995786E-01 -0.76478336887E-02  0.15899001253E-01  0.10188025028E+01  0.10184925864E+01 0.  0.
     999903    2    3    3    0    0 -0.10829207075E+00  0.38517882481E-01 -0.57306740860E-01  0.12994788728E+00  0.19788658430E-01 0.  0.
         14    1    1    2    0    0  0.17891995786E-01  0.76478336887E-02 -0.15899001253E-01  0.25127497173E-01  0.00000000000E+00 0.  1.
     999901    1    3    3    0    0  0.90400074963E-01 -0.46165716169E-01  0.73205742113E-01  0.88885461555E+00  0.88000000000E+00 0. -1.
        -11    1    4    4    0    0 -0.71711702766E-01  0.35142098714E-01 -0.37902790647E-01  0.88399197256E-01  0.51100000000E-03 0.  1.
         11    1    4    4    0    0 -0.36580367983E-01  0.33757837669E-02 -0.19403950213E-01  0.41548690023E-01  0.51100000000E-03 0. -1.
</event>
<event>
 8    1  0.1064839E+005  0.1043930E+01  0.7957747E-01            NaN
         13   -1    0    0    0    0  0.00000000000E+00  0.00000000000E+00  0.74505805969E-08  0.10566000000E+00  0.10566000000E+00 0. -1.
     999900   -1    0    0    0    0 -0.00000000000E+00 -0.00000000000E+00 -0.74505805969E-08  0.93827000000E+00  0.93827000000E+00 0. -1.
     999902    2    1    2    0    0 -0.19844070492E-01  0.11822369464E-01 -0.62623914658E-02  0.10199973215E+01  0.10197165110E+01 0.  0.
     999903    2    3    3    0    0  0.11344010552E+00  0.34379987702E-01  0.44659574291E-01  0.12822012718E+00  0.19881708754E-01 0.  0.
         14    1    1    2    0    0  0.19844070492E-01 -0.11822369464E-01  0.62623914658E-02  0.23932678503E-01  0.00000000000E+00 0. -1.
     999901    1    3    3    0    0 -0.13328417601E+00 -0.22557618238E-01 -0.50921965757E-01  0.89177719432E+00  0.88000000000E+00 0. -1.
        -11    1    4    4    0    0  0.37308738829E-01  0.30559522268E-02  0.19039107154E-01  0.42000351895E-01  0.51100000000E-03 0.  1.
         11    1    4    4    0    0  0.76131366688E-01  0.31324035475E-01  0.25620467137E-01  0.86219775281E-01  0.51100000000E-03 0. -1.
</event>
<event>
 8    1  0.1064839E+005  0.1043930E+01  0.7957747E-01            NaN
         13   -1    0    0    0    0  0.00000000000E+00  0.00000000000E+00  0.74505805969E-08  0.10566000000E+00  0.10566000000E+00 0.  1.
     999900   -1    0    0    0    0 -0.00000000000E+00 -0.00000000000E+00 -0.74505805969E-08  0.93827000000E+00  0.93827000000E+00 0.  1.
     999902    2    1    2    0    0  0.12477237523E-01 -0.17392591447E-01 -0.10128788640E-01  0.10202492894E+01  0.10199744294E+01 0.  0.
     999903    2    3    3    0    0  0.26047715249E-01  0.84034862294E-01 -0.93639676335E-01  0.13039213539E+00  0.22212123677E-01 0.  0.
         14    1    1    2    0    0 -0.12477237523E-01  0.17392591447E-01  0.10128788640E-01  0.23680710563E-01  0.00000000000E+00 0.  1.
     999901    1    3    3    0    0 -0.13570477726E-01 -0.10142745374E+00  0.83510887695E-01  0.88985715404E+00  0.88000000000E+00 0. -1.
        -11    1    4    4    0    0  0.74663474698E-02  0.37422843470E-01 -0.55529258606E-01  0.67379338378E-01  0.51100000000E-03 0. -1.
         11    1    4    4    0    0  0.18581367779E-01  0.46612018824E-01 -0.38110417728E-01  0.63012797016E-01  0.51100000000E-03 0.  1.
</event>
<event>
 8    1  0.1064839E+005  0.1043930E+01  0.7957747E-01            NaN
         13   -1    0    0    0    0  0.00000000000E+00  0.00000000000E+00  0.74505805969E-08  0.10566000000E+00  0.10566000000E+00 0. -1.
     999900   -1    0    0    0    0 -0.00000000000E+00 -0.00000000000E+00 -0.74505805969E-08  0.93827000000E+00  0.93827000000E+00 0.  1.
     999902    2    1    2    0    0 -0.17553808641E-01  0.17198796602E-01 -0.25768227713E-02  0.10192201878E+01  0.10189206134E+01 0.  0.
     999903    2    3    3    0    0  0.28840542314E-01  0.11119257324E+00 -0.59967451423E-01  0.13114307962E+00  0.20170445643E-01 0.  0.
         14    1    1    2    0    0  0.17553808641E-01 -0.17198796602E-01  0.25768227713E-02  0.24709812179E-01  0.00000000000E+00 0.  1.
     999901    1    3    3    0    0 -0.46394350955E-01 -0.93993776641E-01  0.57390628652E-01  0.88807710820E+00  0.88000000000E+00 0. -1.
        -11    1    4    4    0    0  0.15698066632E-01  0.85678905479E-01 -0.38180195767E-01  0.95106743241E-01  0.51100000000E-03 0. -1.
         11    1    4    4    0    0  0.13142475682E-01  0.25513667764E-01 -0.21787255656E-01  0.36036336382E-01  0.51100000000E-03 0.  1.
</event>
<event>
 8    1  0.1064839E+005  0.1043930E+01  0.7957747E-01            NaN
         13   -1    0    0    0    0  0.00000000000E+00  0.00000000000E+00  0.74505805969E-08  0.10566000000E+00  0.10566000000E+00 0. -1.
     999900   -1    0    0    0    0 -0.00000000000E+00 -0.00000000000E+00 -0.74505805969E-08  0.93827000000E+00  0.93827000000E+00 0. -1.
     999902    2    1    2    0    0  0.13560167849E-01 -0.26140174218E-02 -0.18882717028E-01  0.10205362350E+01  0.10202680720E+01 0.  0.
     999903    2    3    3    0    0 -0.34841358529E-01 -0.12419696852E+00  0.44493985796E-02  0.13055336472E+00  0.19636105492E-01 0.  0.
         14    1    1    2    0    0 -0.13560167849E-01  0.26140174218E-02  0.18882717028E-01  0.23393765014E-01  0.00000000000E+00 0. -1.
     999901    1    3    3    0    0  0.48401526378E-01  0.12158295109E+00 -0.23332115608E-01  0.88998287027E+00  0.88000000000E+00 0.  1.
        -11    1    4    4    0    0 -0.23760422583E-01 -0.10824630524E+00  0.65110278678E-02  0.11101565153E+00  0.51100000000E-03 0.  1.
         11    1    4    4    0    0 -0.11080935946E-01 -0.15950663278E-01 -0.20616292882E-02  0.19537713192E-01  0.51100000000E-03 0. -1.
</event>
<event>
 8    1  0.1064839E+005  0.1043930E+01  0.7957747E-01            NaN
         13   -1    0    0    0    0  0.00000000000E+00  0.00000000000E+00  0.74505805969E-08  0.10566000000E+00  0.10566000000E+00 0.  1.
     999900   -1    0    0    0    0 -0.00000000000E+00 -0.00000000000E+00 -0.74505805969E-08  0.93827000000E+00  0.93827000000E+00 0.  1.
     999902    2    1    2    0    0  0.13472493340E-01  0.17489328794E-01 -0.81790093779E-02  0.10203868292E+01  0.10201151897E+01 0.  0.
     999903    2    3    3    0    0  0.10063257400E+00  0.71396819571E-01 -0.46686358950E-01  0.13360291344E+00  0.21111645408E-01 0.  0.
         14    1    1    2    0    0 -0.13472493340E-01 -0.17489328794E-01  0.81790093779E-02  0.23543170833E-01  0.00000000000E+00 0.  1.
     999901    1    3    3    0    0 -0.87160080664E-01 -0.53907490777E-01  0.38507349573E-01  0.88678391573E+00  0.88000000000E+00 0.  1.
        -11    1    4    4    0    0  0.93492915251E-01  0.61601982343E-01 -0.36504681774E-01  0.11776494531E+00  0.51100000000E-03 0. -1.
         11    1    4    4    0    0  0.71396587531E-02  0.97948372279E-02 -0.10181677176E-01  0.15837968132E-01  0.51100000000E-03 0.  1.
</event>
<event>
 8    1  0.1064839E+005  0.1043930E+01  0.7957747E-01            NaN
         13   -1    0    0    0    0  0.00000000000E+00  0.00000000000E+00  0.74505805969E-08  0.10566000000E+00  0.10566000000E+00 0. -1.
     999900   -1    0    0    0    0 -0.00000000000E+00 -0.00000000000E+00 -0.74505805969E-08  0.93827000000E+00  0.93827000000E+00 0.  1.
     999902    2    1    2    0    0  0.17816730392E-02 -0.21290955079E-01  0.79780357832E-02  0.10211236811E+01  0.10208689651E+01 0.  0.
     999903    2    3    3    0    0 -0.67462616372E-01 -0.85182248937E-01  0.76137496737E-01  0.13347364805E+00  0.14528460788E-01 0.  0.
         14    1    1    2    0    0 -0.17816730392E-02  0.21290955079E-01 -0.79780357832E-02  0.22806318904E-01  0.00000000000E+00 0.  1.
     999901    1    3    3    0    0  0.69244289411E-01  0.63891293858E-01 -0.68159460954E-01  0.88765003304E+00  0.88000000000E+00 0.  1.
        -11    1    4    4    0    0 -0.17397523658E-01 -0.12781261434E-01  0.14378757280E-01  0.25943096485E-01  0.51100000000E-03 0. -1.
         11    1    4    4    0    0 -0.50065092714E-01 -0.72400987503E-01  0.61758739457E-01  0.10753055157E+00  0.51100000000E-03 0.  1.
</event>
<event>
 8    1  0.1064839E+005  0.1043930E+01  0.7957747E-01            NaN
         13   -1    0    0    0    0  0.00000000000E+00  0.00000000000E+00  0.74505805969E-08  0.10566000000E+00  0.10566000000E+00 0. -1.
     999900   -1    0    0    0    0 -0.00000000000E+00 -0.00000000000E+00 -0.74505805969E-08  0.93827000000E+00  0.93827000000E+00 0.  1.
     999902    2    1    2    0    0  0.22109830178E-01  0.40769588352E-02  0.37392906221E-02  0.10211385876E+01  0.10208842082E+01 0.  0.
     999903    2    3    3    0    0 -0.10150931074E+00 -0.75763902800E-01 -0.15355527546E-01  0.12871443551E+00  0.16950060451E-01 0.  0.
         14    1    1    2    0    0 -0.22109830178E-01 -0.40769588352E-02 -0.37392906221E-02  0.22791412378E-01  0.00000000000E+00 0. -1.
     999901    1    3    3    0    0  0.12361914091E+00  0.79840861635E-01  0.19094818168E-01  0.89242415211E+00  0.88000000000E+00 0.  1.
        -11    1    4    4    0    0 -0.59212925683E-01 -0.35974549083E-01 -0.30571496256E-02  0.69353774479E-01  0.51100000000E-03 0. -1.
         11    1    4    4    0    0 -0.42296385054E-01 -0.39789353717E-01 -0.12298377921E-01  0.59360661033E-01  0.51100000000E-03 0.  1.
</event>
<event>
 7    1  0.1064839E+005  0.1043930E+01  0.7957747E-01            NaN
         13   -1    0    0    0    0  0.00000000000E+00  0.00000000000E+00  0.74505805969E-08  0.10566000000E+00  0.10566000000E+00 0.  1.
     999900   -1    0    0    0    0 -0.00000000000E+00 -0.00000000000E+00 -0.74505805969E-08  0.93827000000E+00  0.93827000000E+00 0. -1.
     999903    2    1    2    0    0  0.65521661946E-02  0.73705603163E-01 -0.81003975525E-01  0.11166469673E+00  0.20782531738E-01 0.  0.
         14    1    1    2    0    0  0.14614180782E-01  0.33959933073E-01 -0.15754800865E-01  0.40187872357E-01  0.00000000000E+00 0.  1.
     999901    1    1    2    0    0 -0.21166346976E-01 -0.10766553624E+00  0.96758776389E-01  0.89207743091E+00  0.88000000000E+00 0.  1.
        -11    1    3    3    0    0 -0.41626077329E-05  0.17528311741E-01 -0.33456671317E-01  0.37773690664E-01  0.51100000000E-03 0.  1.
         11    1    3    3    0    0  0.65563288023E-02  0.56177291422E-01 -0.47547304208E-01  0.73891006065E-01  0.51100000000E-03 0. -1.
</event>
<event>
 8    1  0.1064839E+005  0.1043930E+01  0.7957747E-01            NaN
         13   -1    0    0    0    0  0.00000000000E+00  0.00000000000E+00  0.74505805969E-08  0.10566000000E+00  0.10566000000E+00 0. -1.
     999900   -1    0    0    0    0 -0.00000000000E+00 -0.00000000000E+00 -0.74505805969E-08  0.93827000000E+00  0.93827000000E+00 0.  1.
     999902    2    1    2    0    0 -0.11293593392E-01 -0.17272167618E-01  0.33738157733E-02  0.10230193410E+01  0.10228056103E+01 0.  0.
     999903    2    3    3    0    0  0.93830522002E-01  0.88307495128E-01  0.37867474314E-02  0.13049577532E+00  0.20308307795E-01 0.  0.
         14    1    1    2    0    0  0.11293593392E-01  0.17272167618E-01 -0.33738157733E-02  0.20910658976E-01  0.00000000000E+00 0.  1.
     999901    1    3    3    0    0 -0.10512411539E+00 -0.10557966275E+00 -0.41293165807E-03  0.89252356570E+00  0.88000000000E+00 0.  1.
        -11    1    4    4    0    0  0.57395412196E-01  0.65915631429E-01  0.64717648208E-02  0.87642733120E-01  0.51100000000E-03 0. -1.
         11    1    4    4    0    0  0.36435109805E-01  0.22391863699E-01 -0.26850173893E-02  0.42853042200E-01  0.51100000000E-03 0.  1.
</event>
<event>
 8    1  0.1064839E+005  0.1043930E+01  0.7957747E-01            NaN
         13   -1    0    0    0    0  0.00000000000E+00  0.00000000000E+00  0.74505805969E-08  0.10566000000E+00  0.10566000000E+00 0. -1.
     999900   -1    0    0    0    0 -0.00000000000E+00 -0.00000000000E+00 -0.74505805969E-08  0.93827000000E+00  0.93827000000E+00 0.  1.
     999902    2    1    2    0    0  0.27592688447E-02 -0.13273685977E-01  0.19478281555E-01  0.10201980014E+01  0.10199219354E+01 0.  0.
     999903    2    3    3    0    0  0.30920822754E-01 -0.12686776545E+00  0.88150414281E-02  0.13238586325E+00  0.19919453863E-01 0.  0.
         14    1    1    2    0    0 -0.27592688447E-02  0.13273685977E-01 -0.19478281555E-01  0.23731998574E-01  0.00000000000E+00 0.  1.
     999901    1    3    3    0    0 -0.28161553909E-01  0.11359407947E+00  0.10663240127E-01  0.88781213818E+00  0.88000000000E+00 0. -1.
        -11    1    4    4    0    0  0.15873628634E-01 -0.85072898261E-01  0.13973077983E-01  0.87663436699E-01  0.51100000000E-03 0. -1.
         11    1    4    4    0    0  0.15047194120E-01 -0.41794867188E-01 -0.51580365553E-02  0.44722426547E-01  0.51100000000E-03 0.  1.
</event>
<event>
 8    1  0.1064839E+005  0.1043930E+01  0.7957747E-01            NaN
         13   -1    0    0    0    0  0.00000000000E+00  0.00000000000E+00  0.74505805969E-08  0.10566000000E+00  0.10566000000E+00 0. -1.
     999900   -1    0    0    0    0 -0.00000000000E+00 -0.00000000000E+00 -0.74505805969E-08  0.93827000000E+00  0.93827000000E+00 0. -1.
     999902    2    1    2    0    0 -0.22720014903E-01  0.28573386124E-02  0.71925045402E-02  0.10199280088E+01  0.10196455499E+01 0.  0.
     999903    2    3    3    0    0  0.10395843391E-01  0.12383342549E+00  0.34248586384E-01  0.13062271517E+00  0.21131427327E-01 0.  0.
         14    1    1    2    0    0  0.22720014903E-01 -0.28573386124E-02 -0.71925045402E-02  0.24001991223E-01  0.00000000000E+00 0.  1.
     999901    1    3    3    0    0 -0.33115858294E-01 -0.12097608688E+00 -0.27056081844E-01  0.88930529360E+00  0.88000000000E+00 0.  1.
        -11    1    4    4    0    0  0.14492489216E-01  0.49307947674E-01  0.15020122112E-01  0.53545972181E-01  0.51100000000E-03 0. -1.
         11    1    4    4    0    0 -0.40966458249E-02  0.74525477818E-01  0.19228464273E-01  0.77076742992E-01  0.51100000000E-03 0.  1.
</event>
<event>
 8    1  0.1064839E+005  0.1043930E+01  0.7957747E-01            NaN
         13   -1    0    0    0    0  0.00000000000E+00  0.00000000000E+00  0.74505805969E-08  0.10566000000E+00  0.10566000000E+00 0. -1.
     999900   -1    0    0    0    0 -0.00000000000E+00 -0.00000000000E+00 -0.74505805969E-08  0.93827000000E+00  0.93827000000E+00 0. -1.
     999902    2    1    2    0    0  0.51356189465E-02  0.96091194090E-02 -0.20772186967E-01  0.10204737959E+01  0.10202041828E+01 0.  0.
     999903    2    3    3    0    0 -0.10637126755E+00 -0.59684637186E-01  0.35663205156E-01  0.12894681153E+00  0.21870380066E-01 0.  0.
         14    1    1    2    0    0 -0.51356189465E-02 -0.96091194090E-02  0.20772186967E-01  0.23456204066E-01  0.00000000000E+00 0. -1.
     999901    1    3    3    0    0  0.11150688650E+00  0.69293756595E-01 -0.56435392123E-01  0.89152698441E+00  0.88000000000E+00 0. -1.
        -11    1    4    4    0    0 -0.65797103261E-02 -0.23289091508E-02 -0.28740072405E-02  0.75655432340E-02  0.51100000000E-03 0. -1.
         11    1    4    4    0    0 -0.99791557228E-01 -0.57355728035E-01  0.38537212396E-01  0.12138126829E+00  0.51100000000E-03 0.  1.
</event>
<event>
 8    1  0.1064839E+005  0.1043930E+01  0.7957747E-01            NaN
         13   -1    0    0    0    0  0.00000000000E+00  0.00000000000E+00  0.74505805969E-08  0.10566000000E+00  0.10566000000E+00 0. -1.
     999900   -1    0    0    0    0 -0.00000000000E+00 -0.00000000000E+00 -0.74505805969E-08  0.93827000000E+00  0.93827000000E+00 0.  1.
     999902    2    1    2    0    0 -0.16521027731E-02  0.17223877453E-01 -0.16675619567E-01  0.10198994427E+01  0.10196163031E+01 0.  0.
     999903    2    3    3    0    0  0.12412591095E+00  0.26281647917E-01  0.20727444903E-01  0.13012354887E+00  0.20113284456E-01 0.  0.
         14    1    1    2    0    0  0.16521027731E-02 -0.17223877453E-01  0.16675619567E-01  0.24030557339E-01  0.00000000000E+00 0. -1.
     999901    1    3    3    0    0 -0.12577801372E+00 -0.90577704641E-02 -0.37403064469E-01  0.88977589379E+00  0.88000000000E+00 0.  1.
        -11    1    4    4    0    0  0.73090196506E-01  0.12059216450E-01  0.26009423213E-02  0.74125754962E-01  0.51100000000E-03 0.  1.
         11    1    4    4    0    0  0.51035714444E-01  0.14222431467E-01  0.18126502581E-01  0.55997793907E-01  0.51100000000E-03 0. -1.
</event>
<event>
 8    1  0.1064839E+005  0.1043930E+01  0.7957747E-01            NaN
         13   -1    0    0    0    0  0.00000000000E+00  0.00000000000E+00  0.74505805969E-08  0.10566000000E+00  0.10566000000E+00 0. -1.
     999900   -1    0    0    0    0 -0.00000000000E+00 -0.00000000000E+00 -0.74505805969E-08  0.93827000000E+00  0.93827000000E+00 0.  1.
     999902    2    1    2    0    0 -0.16456132763E-01  0.14816810582E-02 -0.16933501912E-01  0.10202711080E+01  0.10199967601E+01 0.  0.
     999903    2    3    3    0    0  0.26512022743E-01 -0.77769509447E-01 -0.10107283466E+00  0.13167308813E+00  0.19263963273E-01 0.  0.
         14    1    1    2    0    0  0.16456132763E-01 -0.14816810582E-02  0.16933501912E-01  0.23658892013E-01  0.00000000000E+00 0. -1.
     999901    1    3    3    0    0 -0.42968155507E-01  0.79251190505E-01  0.84139332748E-01  0.88859801986E+00  0.88000000000E+00 0. -1.
        -11    1    4    4    0    0  0.14622942508E-01 -0.47234336083E-01 -0.74812609973E-01  0.89677760257E-01  0.51100000000E-03 0. -1.
         11    1    4    4    0    0  0.11889080236E-01 -0.30535173364E-01 -0.26260224687E-01  0.41995327869E-01  0.51100000000E-03 0.  1.
</event>
<event>
 8    1  0.1064839E+005  0.1043930E+01  0.7957747E-01            NaN
         13   -1    0    0    0    0  0.00000000000E+00  0.00000000000E+00  0.74505805969E-08  0.10566000000E+00  0.10566000000E+00 0.  1.
     999900   -1    0    0    0    0 -0.00000000000E+00 -0.00000000000E+00 -0.74505805969E-08  0.93827000000E+00  0.93827000000E+00 0.  1.
     999902    2    1    2    0    0 -0.92705894099E-02 -0.73493362203E-02  0.20839107967E-01  0.10199670079E+01  0.10196854771E+01 0.  0.
     999903    2    3    3    0    0  0.92339959573E-01 -0.84820399141E-01  0.30419765450E-01  0.13068737904E+00  0.20800496778E-01 0.  0.
         14    1    1    2    0    0  0.92705894099E-02  0.73493362203E-02 -0.20839107967E-01  0.23962992129E-01  0.00000000000E+00 0. -1.
     999901    1    3    3    0    0 -0.10161054898E+00  0.77471062921E-01 -0.95806574828E-02  0.88927962883E+00  0.88000000000E+00 0.  1.
        -11    1    4    4    0    0  0.28067724644E-01 -0.27263395169E-01  0.19495877726E-01  0.43720021182E-01  0.51100000000E-03 0. -1.
         11    1    4    4    0    0  0.64272234928E-01 -0.57557003973E-01  0.10923887724E-01  0.86967357859E-01  0.51100000000E-03 0.  1.
</event>
<event>
 8    1  0.1064839E+005  0.1043930E+01  0.7957747E-01            NaN
         13   -1    0    0    0    0  0.00000000000E+00  0.00000000000E+00  0.74505805969E-08  0.10566000000E+00  0.10566000000E+00 0.  1.
     999900   -1    0    0    0    0 -0.00000000000E+00 -0.00000000000E+00 -0.74505805969E-08  0.93827000000E+00  0.93827000000E+00 0. -1.
     999902    2    1    2    0    0 -0.13895359735E-01  0.10460976719E-01 -0.11784827724E-01  0.10229205921E+01  0.10227048169E+01 0.  0.
     999903    2    3    3    0    0 -0.33863582434E-01  0.72851198828E-01  0.10384839711E+00  0.13294176514E+00  0.20856268862E-01 0.  0.
         14    1    1    2    0    0  0.13895359735E-01 -0.10460976719E-01  0.11784827724E-01  0.21009407907E-01  0.00000000000E+00 0.  1.
     999901    1    3    3    0    0  0.19968222698E-01 -0.62390222109E-01 -0.11563322484E+00  0.88997882695E+00  0.88000000000E+00 0. -1.
        -11    1    4    4    0    0 -0.33418972515E-01  0.61030214368E-01  0.78097819009E-01  0.10459945146E+00  0.51100000000E-03 0.  1.
         11    1    4    4    0    0 -0.44460991898E-03  0.11820984460E-01  0.25750578103E-01  0.28342313689E-01  0.51100000000E-03 0. -1.
</event>
<event>
 8    1  0.1064839E+005  0.1043930E+01  0.7957747E-01            NaN
         13   -1    0    0    0    0  0.00000000000E+00  0.00000000000E+00  0.74505805969E-08  0.10566000000E+00  0.10566000000E+00 0.  1.
     999900   -1    0    0    0    0 -0.00000000000E+00 -0.00000000000E+00 -0.74505805969E-08  0.93827000000E+00  0.93827000000E+00 0.  1.
     999902    2    1    2    0    0 -0.20406256039E-03 -0.19254575285E-01 -0.13886788728E-01  0.10201892500E+01  0.10199129779E+01 0.  0.
     999903    2    3    3    0    0 -0.87085591761E-01  0.87121108103E-01  0.29643924856E-01  0.12847230544E+00  0.21269302170E-01 0.  0.
         14    1    1    2    0    0  0.20406256039E-03  0.19254575285E-01  0.13886788728E-01  0.23740750032E-01  0.00000000000E+00 0.  1.
     999901    1    3    3    0    0  0.86881529201E-01 -0.10637568339E+00 -0.43530713584E-01  0.89171694453E+00  0.88000000000E+00 0.  1.
        -11    1    4    4    0    0 -0.16099908900E-01  0.28055810505E-01  0.37753947769E-02  0.32570696898E-01  0.51100000000E-03 0.  1.
         11    1    4    4    0    0 -0.70985682861E-01  0.59065297598E-01  0.25868530079E-01  0.95901608542E-01  0.51100000000E-03 0. -1.
</event>
<event>
 8    1  0.1064839E+005  0.1043930E+01  0.7957747E-01            NaN
         13   -1    0    0    0    0  0.00000000000E+00  0.00000000000E+00  0.74505805969E-08  0.10566000000E+00  0.10566000000E+00 0.  1.
     999900   -1    0    0    0    0 -0.00000000000E+00 -0.00000000000E+00 -0.74505805969E-08  0.93827000000E+00  0.93827000000E+00 0.  1.
     999902    2    1    2    0    0  0.36880111981E-02 -0.37509246226E-02  0.23280397364E-01  0.10200627051E+01  0.10197834450E+01 0.  0.
     999903    2    3    3    0    0  0.40555240912E-01 -0.14005802091E-01 -0.11886413742E+00  0.12783547854E+00  0.19296019013E-01 0.  0.
         14    1    1    2    0    0 -0.36880111981E-02  0.37509246226E-02 -0.23280397364E-01  0.23867294852E-01  0.00000000000E+00 0. -1.
     999901    1    3    3    0    0 -0.36867229714E-01  0.10254877468E-01  0.14214453479E+00  0.89222722661E+00  0.88000000000E+00 0. -1.
        -11    1    4    4    0    0  0.20072529606E-01 -0.15267485666E-01 -0.80008840641E-01  0.83890871167E-01  0.51100000000E-03 0. -1.
         11    1    4    4    0    0  0.20482711306E-01  0.12616835757E-02 -0.38855296781E-01  0.43944607369E-01  0.51100000000E-03 0.  1.
</event>
<event>
 8    1  0.1064839E+005  0.1043930E+01  0.7957747E-01            NaN
         13   -1    0    0    0    0  0.00000000000E+00  0.00000000000E+00  0.74505805969E-08  0.10566000000E+00  0.10566000000E+00 0.  1.
     999900   -1    0    0    0    0 -0.00000000000E+00 -0.00000000000E+00 -0.74505805969E-08  0.93827000000E+00  0.93827000000E+00 0.  1.
     999902    2    1    2    0    0 -0.12591354665E-01  0.15337900105E-01 -0.10848306885E-01  0.10213140951E+01  0.10210636619E+01 0.  0.
     999903    2    3    3    0    0 -0.97200969663E-01  0.59478026979E-01 -0.68178313016E-01  0.13430007754E+00  0.20064004218E-01 0.  0.
         14    1    1    2    0    0  0.12591354665E-01 -0.15337900105E-01  0.10848306885E-01  0.22615904895E-01  0.00000000000E+00 0.  1.
     999901    1    3    3    0    0  0.84609614998E-01 -0.44140126874E-01  0.57330006131E-01  0.88701401756E+00  0.88000000000E+00 0. -1.
        -11    1    4    4    0    0 -0.70757867828E-01  0.47191165033E-01 -0.59755061267E-01  0.10394522781E+00  0.51100000000E-03 0. -1.
         11    1    4    4    0    0 -0.26443101835E-01  0.12286861946E-01 -0.84232517495E-02  0.30354849731E-01  0.51100000000E-03 0.  1.
</event>
<event>
 8    1  0.1064839E+005  0.1043930E+01  0.7957747E-01            NaN
         13   -1    0    0    0    0  0.00000000000E+00  0.00000000000E+00  0.74505805969E-08  0.10566000000E+00  0.10566000000E+00 0.  1.
     999900   -1    0    0    0    0 -0.00000000000E+00 -0.00000000000E+00 -0.74505805969E-08  0.93827000000E+00  0.93827000000E+00 0.  1.
     999902    2    1    2    0    0 -0.10497142337E-01  0.20371354212E-01  0.52067918579E-02  0.10204290904E+01  0.10201584366E+01 0.  0.
     999903    2    3    3    0    0  0.78892641177E-01 -0.77294945808E-01  0.62921662848E-01  0.12865543871E+00  0.19862748391E-01 0.  0.
         14    1    1    2    0    0  0.10497142337E-01 -0.20371354212E-01 -0.52067918579E-02  0.23500909581E-01  0.00000000000E+00 0. -1.
     999901    1    3    3    0    0 -0.89389783514E-01  0.97666300020E-01 -0.57714870990E-01  0.89177365171E+00  0.88000000000E+00 0.  1.
        -11    1    4    4    0    0  0.14850462696E-01 -0.81118284087E-02  0.37220787172E-02  0.17333579936E-01  0.51100000000E-03 0.  1.
         11    1    4    4    0    0  0.64042178481E-01 -0.69183117400E-01  0.59199584131E-01  0.11132185877E+00  0.51100000000E-03 0. -1.
</event>
<event>
 8    1  0.1064839E+005  0.1043930E+01  0.7957747E-01            NaN
         13   -1    0    0    0    0  0.00000000000E+00  0.00000000000E+00  0.74505805969E-08  0.10566000000E+00  0.10566000000E+00 0. -1.
     999900   -1    0    0    0    0 -0.00000000000E+00 -0.00000000000E+00 -0.74505805969E-08  0.93827000000E+00  0.93827000000E+00 0.  1.
     999902    2    1    2    0    0  0.23035767291E-01  0.46929492867E-02 -0.37958541161E-02  0.10201165824E+01  0.10198385965E+01 0.  0.
     999903    2    3    3    0    0 -0.53351375837E-01 -0.21225024522E-01  0.11339055982E+00  0.12869109895E+00  0.20176940386E-01 0.  0.
         14    1    1    2    0    0 -0.23035767291E-01 -0.46929492867E-02  0.37958541161E-02  0.23813417565E-01  0.00000000000E+00 0. -1.
     999901    1    3    3    0    0  0.76387143127E-01  0.25917973808E-01 -0.11718641393E+00  0.89142548349E+00  0.88000000000E+00 0.  1.
        -11    1    4    4    0    0 -0.36565269660E-01 -0.41893010615E-02  0.64556984458E-01  0.74313084662E-01  0.51100000000E-03 0.  1.
         11    1    4    4    0    0 -0.16786106177E-01 -0.17035723460E-01  0.48833575357E-01  0.54378014285E-01  0.51100000000E-03 0. -1.
</event>
<event>
 8    1  0.1175324E+005  0.1043930E+01  0.7957747E-01            NaN
         13   -1    0    0    0    0  0.00000000000E+00  0.00000000000E+00  0.74505805969E-08  0.10566000000E+00  0.10566000000E+00 0.  1.
     999900   -1    0    0    0    0 -0.00000000000E+00 -0.00000000000E+00 -0.74505805969E-08  0.93827000000E+00  0.93827000000E+00 0.  1.
     999902    2    1    2    0    0  0.16762900785E-01 -0.71348488360E-02  0.15093943649E-01  0.10202714277E+01  0.10199970873E+01 0.  0.
     999903    2    3    3    0    0 -0.17417995465E-01  0.12534208740E+00  0.19299252221E-01  0.12968950726E+00  0.20805809698E-01 0.  0.
         14    1    1    2    0    0 -0.16762900785E-01  0.71348488360E-02 -0.15093943649E-01  0.23658572347E-01  0.00000000000E+00 0. -1.
     999901    1    3    3    0    0  0.34180896250E-01 -0.13247693624E+00 -0.42053085714E-02  0.89058192039E+00  0.88000000000E+00 0.  1.
        -11    1    4    4    0    0  0.16064287103E-02  0.61662076703E-01  0.67659447949E-02  0.62055067855E-01  0.51100000000E-03 0. -1.
         11    1    4    4    0    0 -0.19024424175E-01  0.63680010700E-01  0.12533307426E-01  0.67634439408E-01  0.51100000000E-03 0.  1.
</event>
<event>
 8    1  0.1064839E+005  0.1043930E+01  0.7957747E-01            NaN
         13   -1    0    0    0    0  0.00000000000E+00  0.00000000000E+00  0.74505805969E-08  0.10566000000E+00  0.10566000000E+00 0.  1.
     999900   -1    0    0    0    0 -0.00000000000E+00 -0.00000000000E+00 -0.74505805969E-08  0.93827000000E+00  0.93827000000E+00 0.  1.
     999902    2    1    2    0    0 -0.21353496431E-01 -0.85875390599E-02 -0.26326461638E-02  0.10207643258E+01  0.10205014259E+01 0.  0.
     999903    2    3    3    0    0 -0.49439193496E-01 -0.56521844738E-02  0.12037290789E+00  0.13176050743E+00  0.19874942053E-01 0.  0.
         14    1    1    2    0    0  0.21353496431E-01  0.85875390599E-02  0.26326461638E-02  0.23165674235E-01  0.00000000000E+00 0.  1.
     999901    1    3    3    0    0  0.28085697065E-01 -0.29353545862E-02 -0.12300555405E+00  0.88900381834E+00  0.88000000000E+00 0.  1.
        -11    1    4    4    0    0 -0.13026874096E-01 -0.94144784534E-02  0.48575390764E-01  0.51167973989E-01  0.51100000000E-03 0.  1.
         11    1    4    4    0    0 -0.36412319400E-01  0.37622939797E-02  0.71797517126E-01  0.80592533442E-01  0.51100000000E-03 0. -1.
</event>
<event>
 8    1  0.1064839E+005  0.1043930E+01  0.7957747E-01            NaN
         13   -1    0    0    0    0  0.00000000000E+00  0.00000000000E+00  0.74505805969E-08  0.10566000000E+00  0.10566000000E+00 0.  1.
     999900   -1    0    0    0    0 -0.00000000000E+00 -0.00000000000E+00 -0.74505805969E-08  0.93827000000E+00  0.93827000000E+00 0.  1.
     999902    2    1    2    0    0  0.21652948443E-01  0.27622582372E-02  0.81895775809E-02  0.10206158535E+01  0.10203495337E+01 0.  0.
     999903    2    3    3    0    0  0.24087253699E-01  0.12782027421E+00  0.22200010884E-02  0.13175080802E+00  0.20859739203E-01 0.  0.
         14    1    1    2    0    0 -0.21652948443E-01 -0.27622582372E-02 -0.81895775809E-02  0.23314146516E-01  0.00000000000E+00 0.  1.
     999901    1    3    3    0    0 -0.24343052563E-02 -0.12505801597E+00  0.59695764925E-02  0.88886504546E+00  0.88000000000E+00 0. -1.
        -11    1    4    4    0    0  0.76185114448E-03  0.56148015298E-01 -0.26641925984E-02  0.56218672007E-01  0.51100000000E-03 0. -1.
         11    1    4    4    0    0  0.23325402555E-01  0.71672258912E-01  0.48841936869E-02  0.75532136014E-01  0.51100000000E-03 0.  1.
</event>
<event>
 8    1  0.1064839E+005  0.1043930E+01  0.7957747E-01            NaN
         13   -1    0    0    0    0  0.00000000000E+00  0.00000000000E+00  0.74505805969E-08  0.10566000000E+00  0.10566000000E+00 0.  1.
     999900   -1    0    0    0    0 -0.00000000000E+00 -0.00000000000E+00 -0.74505805969E-08  0.93827000000E+00  0.93827000000E+00 0.  1.
     999902    2    1    2    0    0 -0.10878750305E-01  0.21229668411E-01  0.12537244656E-01  0.10169813723E+01  0.10166242586E+01 0.  0.
     999903    2    3    3    0    0 -0.10864058471E+00  0.18235170294E-01  0.66410610545E-01  0.12992518312E+00  0.18299888916E-01 0.  0.
         14    1    1    2    0    0  0.10878750305E-01 -0.21229668411E-01 -0.12537244656E-01  0.26948627658E-01  0.00000000000E+00 0.  1.
     999901    1    3    3    0    0  0.97761834403E-01  0.29944981171E-02 -0.53873365889E-01  0.88705618922E+00  0.88000000000E+00 0.  1.
        -11    1    4    4    0    0 -0.95429365549E-01  0.16013610673E-01  0.64717463102E-01  0.11641224458E+00  0.51100000000E-03 0. -1.
         11    1    4    4    0    0 -0.13211219160E-01  0.22215596216E-02  0.16931474434E-02  0.13512938544E-01  0.51100000000E-03 0.  1.
</event>
<event>
 8    1  0.1064839E+005  0.1043930E+01  0.7957747E-01            NaN
         13   -1    0    0    0    0  0.00000000000E+00  0.00000000000E+00  0.74505805969E-08  0.10566000000E+00  0.10566000000E+00 0.  1.
     999900   -1    0    0    0    0 -0.00000000000E+00 -0.00000000000E+00 -0.74505805969E-08  0.93827000000E+00  0.93827000000E+00 0.  1.
     999902    2    1    2    0    0  0.76338834947E-02  0.19153726903E-01 -0.14640404279E-01  0.10186420015E+01  0.10183280632E+01 0.  0.
     999903    2    3    3    0    0  0.11282977290E+00  0.24515283939E-01  0.55537116049E-01  0.12958643190E+00  0.19409154408E-01 0.  0.
         14    1    1    2    0    0 -0.76338834947E-02 -0.19153726903E-01  0.14640404279E-01  0.25287998516E-01  0.00000000000E+00 0.  1.
     999901    1    3    3    0    0 -0.10519588941E+00 -0.53615570353E-02 -0.70177520327E-01  0.88905556958E+00  0.88000000000E+00 0. -1.
        -11    1    4    4    0    0  0.35090650518E-01  0.37964883496E-02  0.81993935159E-02  0.36238905234E-01  0.51100000000E-03 0. -1.
         11    1    4    4    0    0  0.77739122385E-01  0.20718795589E-01  0.47337722533E-01  0.93347526670E-01  0.51100000000E-03 0.  1.
</event>
<event>
 8    1  0.1064839E+005  0.1043930E+01  0.7957747E-01            NaN
         13   -1    0    0    0    0  0.00000000000E+00  0.00000000000E+00  0.74505805969E-08  0.10566000000E+00  0.10566000000E+00 0. -1.
     999900   -1    0    0    0    0 -0.00000000000E+00 -0.00000000000E+00 -0.74505805969E-08  0.93827000000E+00  0.93827000000E+00 0. -1.
     999902    2    1    2    0    0 -0.12386767113E-01  0.19752127080E-01 -0.25565899375E-02  0.10204754764E+01  0.10202059024E+01 0.  0.
     999903    2    3    3    0    0  0.11247694398E+00  0.17098198520E-01 -0.59412652068E-01  0.12984053355E+00  0.19628795342E-01 0.  0.
         14    1    1    2    0    0  0.12386767113E-01 -0.19752127080E-01  0.25565899375E-02  0.23454523568E-01  0.00000000000E+00 0.  1.
     999901    1    3    3    0    0 -0.12486371109E+00  0.26539285596E-02  0.56856062131E-01  0.89063494288E+00  0.88000000000E+00 0.  1.
        -11    1    4    4    0    0  0.73798033400E-01  0.97005862325E-02 -0.28233797041E-01  0.79609418559E-01  0.51100000000E-03 0. -1.
         11    1    4    4    0    0  0.38678910580E-01  0.73976122876E-02 -0.31178855028E-01  0.50231114989E-01  0.51100000000E-03 0.  1.
</event>
<event>
 8    1  0.1064839E+005  0.1043930E+01  0.7957747E-01            NaN
         13   -1    0    0    0    0  0.00000000000E+00  0.00000000000E+00  0.74505805969E-08  0.10566000000E+00  0.10566000000E+00 0. -1.
     999900   -1    0    0    0    0 -0.00000000000E+00 -0.00000000000E+00 -0.74505805969E-08  0.93827000000E+00  0.93827000000E+00 0.  1.
     999902    2    1    2    0    0 -0.18532269804E-01 -0.36993080233E-03 -0.14629769699E-01  0.10203161898E+01  0.10200428986E+01 0.  0.
     999903    2    3    3    0    0  0.40981510832E-01 -0.12128670042E+00 -0.55975418762E-02  0.13001043531E+00  0.21941578940E-01 0.  0.
         14    1    1    2    0    0  0.18532269804E-01  0.36993080233E-03  0.14629769699E-01  0.23613810246E-01  0.00000000000E+00 0. -1.
     999901    1    3    3    0    0 -0.59513780636E-01  0.12091676961E+00 -0.90322278231E-02  0.89030575445E+00  0.88000000000E+00 0.  1.
        -11    1    4    4    0    0  0.19760111674E-01 -0.29716606904E-01 -0.47761415367E-02  0.36008490502E-01  0.51100000000E-03 0.  1.
         11    1    4    4    0    0  0.21221399158E-01 -0.91570093512E-01 -0.82140033954E-03  0.94001944807E-01  0.51100000000E-03 0. -1.
</event>
<event>
 7    1  0.1064839E+005  0.1043930E+01  0.7957747E-01            NaN
         13   -1    0    0    0    0  0.00000000000E+00  0.00000000000E+00  0.74505805969E-08  0.10566000000E+00  0.10566000000E+00 0. -1.
     999900   -1    0    0    0    0 -0.00000000000E+00 -0.00000000000E+00 -0.74505805969E-08  0.93827000000E+00  0.93827000000E+00 0.  1.
     999903    2    1    2    0    0  0.88949091131E-02  0.43193589485E-01  0.13893030272E+00  0.14701189892E+00  0.19132794630E-01 0.  0.
         14    1    1    2    0    0  0.38832033758E-02 -0.32972678775E-02 -0.65598106945E-03  0.51362977987E-02  0.00000000000E+00 0. -1.
     999901    1    1    2    0    0 -0.12778112489E-01 -0.39896321608E-01 -0.13827432165E+00  0.89178180328E+00  0.88000000000E+00 0.  1.
        -11    1    3    3    0    0 -0.36956439325E-02  0.10678356745E-01  0.18974202301E-01  0.22089965161E-01  0.51100000000E-03 0. -1.
         11    1    3    3    0    0  0.12590553046E-01  0.32515232740E-01  0.11995610042E+00  0.12492193376E+00  0.51100000000E-03 0.  1.
</event>
<event>
 8    1  0.1064839E+005  0.1043930E+01  0.7957747E-01            NaN
         13   -1    0    0    0    0  0.00000000000E+00  0.00000000000E+00  0.74505805969E-08  0.10566000000E+00  0.10566000000E+00 0. -1.
     999900   -1    0    0    0    0 -0.00000000000E+00 -0.00000000000E+00 -0.74505805969E-08  0.93827000000E+00  0.93827000000E+00 0.  1.
     999902    2    1    2    0    0  0.57751390162E-02  0.23580105528E-01 -0.42699494506E-02  0.10192803332E+01  0.10189822332E+01 0.  0.
     999903    2    3    3    0    0 -0.58773735818E-01 -0.76572922972E-01 -0.81389336187E-01  0.12790802813E+00  0.20456662960E-01 0.  0.
         14    1    1    2    0    0 -0.57751390162E-02 -0.23580105528E-01  0.42699494506E-02  0.24649666847E-01  0.00000000000E+00 0. -1.
     999901    1    3    3    0    0  0.64548874834E-01  0.10015302850E+00  0.77119386736E-01  0.89137230503E+00  0.88000000000E+00 0. -1.
        -11    1    4    4    0    0 -0.54059487084E-02 -0.20645495766E-01 -0.18639679107E-01  0.28340069426E-01  0.51100000000E-03 0.  1.
         11    1    4    4    0    0 -0.53367787109E-01 -0.55927427206E-01 -0.62749657080E-01  0.99567958699E-01  0.51100000000E-03 0. -1.
</event>
<event>
 8    1  0.1064839E+005  0.1043930E+01  0.7957747E-01            NaN
         13   -1    0    0    0    0  0.00000000000E+00  0.00000000000E+00  0.74505805969E-08  0.10566000000E+00  0.10566000000E+00 0. -1.
     999900   -1    0    0    0    0 -0.00000000000E+00 -0.00000000000E+00 -0.74505805969E-08  0.93827000000E+00  0.93827000000E+00 0.  1.
     999902    2    1    2    0    0 -0.81578342401E-02  0.14634248087E-01 -0.17086374295E-01  0.10199997751E+01  0.10197190229E+01 0.  0.
     999903    2    3    3    0    0  0.48874416138E-01  0.11918839442E+00  0.15723737704E-01  0.13137119660E+00  0.20410131107E-01 0.  0.
         14    1    1    2    0    0  0.81578342401E-02 -0.14634248087E-01  0.17086374295E-01  0.23930224887E-01  0.00000000000E+00 0. -1.
     999901    1    3    3    0    0 -0.57032250378E-01 -0.10455414633E+00 -0.32810111999E-01  0.88862857851E+00  0.88000000000E+00 0. -1.
        -11    1    4    4    0    0  0.20644246578E-01  0.28689625574E-01  0.47769076121E-03  0.35352069838E-01  0.51100000000E-03 0.  1.
         11    1    4    4    0    0  0.28230169560E-01  0.90498768847E-01  0.15246046943E-01  0.96019126764E-01  0.51100000000E-03 0. -1.
</event>
<event>
 8    1  0.1064839E+005  0.1043930E+01  0.7957747E-01            NaN
         13   -1    0    0    0    0  0.00000000000E+00  0.00000000000E+00  0.74505805969E-08  0.10566000000E+00  0.10566000000E+00 0.  1.
     999900   -1    0    0    0    0 -0.00000000000E+00 -0.00000000000E+00 -0.74505805969E-08  0.93827000000E+00  0.93827000000E+00 0.  1.
     999902    2    1    2    0    0 -0.22739546616E-01 -0.52812104631E-02 -0.16476591163E-02  0.10205271595E+01  0.10202587859E+01 0.  0.
     999903    2    3    3    0    0  0.30880908840E-01  0.42469027258E-01 -0.11732874683E+00  0.13005686098E+00  0.19786446027E-01 0.  0.
         14    1    1    2    0    0  0.22739546616E-01  0.52812104631E-02  0.16476591163E-02  0.23402840529E-01  0.00000000000E+00 0.  1.
     999901    1    3    3    0    0 -0.53620455455E-01 -0.47750237721E-01  0.11568108772E+00  0.89047029849E+00  0.88000000000E+00 0. -1.
        -11    1    4    4    0    0  0.30432855210E-01  0.28641005313E-01 -0.80313820630E-01  0.90537488185E-01  0.51100000000E-03 0. -1.
         11    1    4    4    0    0  0.44805362952E-03  0.13828021945E-01 -0.37014926204E-01  0.39519372792E-01  0.51100000000E-03 0.  1.
</event>
<event>
 8    1  0.1064839E+005  0.1043930E+01  0.7957747E-01            NaN
         13   -1    0    0    0    0  0.00000000000E+00  0.00000000000E+00  0.74505805969E-08  0.10566000000E+00  0.10566000000E+00 0. -1.
     999900   -1    0    0    0    0 -0.00000000000E+00 -0.00000000000E+00 -0.74505805969E-08  0.93827000000E+00  0.93827000000E+00 0.  1.
     999902    2    1    2    0    0  0.15173564368E-01  0.13871050172E-01  0.11983559878E-01  0.10201340172E+01  0.10198564430E+01 0.  0.
     999903    2    3    3    0    0  0.46128895762E-01 -0.11874923641E+00 -0.83889480234E-02  0.12942564070E+00  0.21245372384E-01 0.  0.
         14    1    1    2    0    0 -0.15173564368E-01 -0.13871050172E-01 -0.11983559878E-01  0.23795982767E-01  0.00000000000E+00 0.  1.
     999901    1    3    3    0    0 -0.30955331394E-01  0.13262028658E+00  0.20372507901E-01  0.89070837654E+00  0.88000000000E+00 0.  1.
        -11    1    4    4    0    0  0.28187851666E-01 -0.62325086280E-01  0.54440585890E-02  0.68621208502E-01  0.51100000000E-03 0.  1.
         11    1    4    4    0    0  0.17941044095E-01 -0.56424150133E-01 -0.13833006612E-01  0.60804432194E-01  0.51100000000E-03 0. -1.
</event>
<event>
 8    1  0.1064839E+005  0.1043930E+01  0.7957747E-01            NaN
         13   -1    0    0    0    0  0.00000000000E+00  0.00000000000E+00  0.74505805969E-08  0.10566000000E+00  0.10566000000E+00 0.  1.
     999900   -1    0    0    0    0 -0.00000000000E+00 -0.00000000000E+00 -0.74505805969E-08  0.93827000000E+00  0.93827000000E+00 0. -1.
     999902    2    1    2    0    0 -0.13883728413E-01 -0.35260333607E-02 -0.14984206142E-01  0.10232003772E+01  0.10229903688E+01 0.  0.
     999903    2    3    3    0    0  0.27370754671E-01  0.16131654603E-01 -0.12918554844E+00  0.13464519964E+00  0.20761391291E-01 0.  0.
         14    1    1    2    0    0  0.13883728413E-01  0.35260333607E-02  0.14984206142E-01  0.20729622756E-01  0.00000000000E+00 0.  1.
     999901    1    3    3    0    0 -0.41254483084E-01 -0.19657687964E-01  0.11420134230E+00  0.88855517761E+00  0.88000000000E+00 0.  1.
        -11    1    4    4    0    0  0.24916880358E-01  0.39716672004E-02 -0.78279806987E-01  0.82247275761E-01  0.51100000000E-03 0. -1.
         11    1    4    4    0    0  0.24538743128E-02  0.12159987403E-01 -0.50905741451E-01  0.52397923876E-01  0.51100000000E-03 0.  1.
</event>
<event>
 8    1  0.1064839E+005  0.1043930E+01  0.7957747E-01            NaN
         13   -1    0    0    0    0  0.00000000000E+00  0.00000000000E+00  0.74505805969E-08  0.10566000000E+00  0.10566000000E+00 0. -1.
     999900   -1    0    0    0    0 -0.00000000000E+00 -0.00000000000E+00 -0.74505805969E-08  0.93827000000E+00  0.93827000000E+00 0.  1.
     999902    2    1    2    0    0 -0.14977342347E-01 -0.14605840911E-01  0.11562042755E-01  0.10200274435E+01  0.10197473478E+01 0.  0.
     999903    2    3    3    0    0 -0.84426971425E-01 -0.87971075367E-01  0.50531664006E-01  0.13339091148E+00  0.19309650264E-01 0.  0.
         14    1    1    2    0    0  0.14977342347E-01  0.14605840911E-01 -0.11562042755E-01  0.23902556457E-01  0.00000000000E+00 0.  1.
     999901    1    3    3    0    0  0.69449629077E-01  0.73365234456E-01 -0.38969621250E-01  0.88663653206E+00  0.88000000000E+00 0.  1.
        -11    1    4    4    0    0 -0.25659779419E-01 -0.38984828787E-01  0.14922429533E-01  0.49001848736E-01  0.51100000000E-03 0. -1.
         11    1    4    4    0    0 -0.58767192005E-01 -0.48986246581E-01  0.35609234473E-01  0.84389062745E-01  0.51100000000E-03 0.  1.
</event>
<event>
 8    1  0.1064839E+005  0.1043930E+01  0.7957747E-01            NaN
         13   -1    0    0    0    0  0.00000000000E+00  0.00000000000E+00  0.74505805969E-08  0.10566000000E+00  0.10566000000E+00 0. -1.
     999900   -1    0    0    0    0 -0.00000000000E+00 -0.00000000000E+00 -0.74505805969E-08  0.93827000000E+00  0.93827000000E+00 0. -1.
     999902    2    1    2    0    0 -0.81259148526E-02 -0.22679433102E-03  0.21582975575E-01  0.10208668961E+01  0.10206063456E+01 0.  0.
     999903    2    3    3    0    0 -0.45187411378E-02 -0.94096638923E-01  0.91863282454E-01  0.13308095287E+00  0.19926888243E-01 0.  0.
         14    1    1    2    0    0  0.81259148526E-02  0.22679433102E-03 -0.21582975575E-01  0.23063103922E-01  0.00000000000E+00 0.  1.
     999901    1    3    3    0    0 -0.36071737148E-02  0.93869844592E-01 -0.70280306879E-01  0.88778594321E+00  0.88000000000E+00 0.  1.
        -11    1    4    4    0    0 -0.10170715179E-02 -0.74027792298E-01  0.60180050690E-01  0.95409895131E-01  0.51100000000E-03 0. -1.
         11    1    4    4    0    0 -0.35016696198E-02 -0.20068846625E-01  0.31683231764E-01  0.37671057737E-01  0.51100000000E-03 0.  1.
</event>
<event>
 8    1  0.1064839E+005  0.1043930E+01  0.7957747E-01            NaN
         13   -1    0    0    0    0  0.00000000000E+00  0.00000000000E+00  0.74505805969E-08  0.10566000000E+00  0.10566000000E+00 0. -1.
     999900   -1    0    0    0    0 -0.00000000000E+00 -0.00000000000E+00 -0.74505805969E-08  0.93827000000E+00  0.93827000000E+00 0. -1.
     999902    2    1    2    0    0  0.22794915428E-01  0.39574140904E-02 -0.28925113903E-02  0.10206139987E+01  0.10203476360E+01 0.  0.
     999903    2    3    3    0    0  0.83317157757E-03  0.95859964634E-01  0.87086822817E-01  0.13099347420E+00  0.19630297479E-01 0.  0.
         14    1    1    2    0    0 -0.22794915428E-01 -0.39574140904E-02  0.28925113903E-02  0.23316001326E-01  0.00000000000E+00 0. -1.
     999901    1    3    3    0    0  0.21961743851E-01 -0.91902550543E-01 -0.89979334207E-01  0.88962052448E+00  0.88000000000E+00 0. -1.
        -11    1    4    4    0    0 -0.50063800561E-02  0.52788883535E-01  0.58554403798E-01  0.78997527755E-01  0.51100000000E-03 0.  1.
         11    1    4    4    0    0  0.58395516337E-02  0.43071081099E-01  0.28532419018E-01  0.51995946441E-01  0.51100000000E-03 0. -1.
</event>
<event>
 8    1  0.1064839E+005  0.1043930E+01  0.7957747E-01            NaN
         13   -1    0    0    0    0  0.00000000000E+00  0.00000000000E+00  0.74505805969E-08  0.10566000000E+00  0.10566000000E+00 0. -1.
     999900   -1    0    0    0    0 -0.00000000000E+00 -0.00000000000E+00 -0.74505805969E-08  0.93827000000E+00  0.93827000000E+00 0.  1.
     999902    2    1    2    0    0 -0.53687511186E-02  0.19411247465E-01 -0.13197892749E-01  0.10198508723E+01  0.10195665733E+01 0.  0.
     999903    2    3    3    0    0 -0.15113791621E-01  0.11810712894E+00  0.53036267990E-01  0.13180650019E+00  0.19554722298E-01 0.  0.
         14    1    1    2    0    0  0.53687511186E-02 -0.19411247465E-01  0.13197892749E-01  0.24079127678E-01  0.00000000000E+00 0. -1.
     999901    1    3    3    0    0  0.97450405028E-02 -0.98695881479E-01 -0.66234160740E-01  0.88804437214E+00  0.88000000000E+00 0.  1.
        -11    1    4    4    0    0 -0.18685820399E-02  0.56433284192E-01  0.16146386505E-01  0.58729669518E-01  0.51100000000E-03 0.  1.
         11    1    4    4    0    0 -0.13245209581E-01  0.61673844752E-01  0.36889881485E-01  0.73076830667E-01  0.51100000000E-03 0. -1.
</event>
<event>
 8    1  0.1064839E+005  0.1043930E+01  0.7957747E-01            NaN
         13   -1    0    0    0    0  0.00000000000E+00  0.00000000000E+00  0.74505805969E-08  0.10566000000E+00  0.10566000000E+00 0. -1.
     999900   -1    0    0    0    0 -0.00000000000E+00 -0.00000000000E+00 -0.74505805969E-08  0.93827000000E+00  0.93827000000E+00 0. -1.
     999902    2    1    2    0    0 -0.19502626474E-02 -0.15677963352E-01  0.17668373943E-01  0.10202282385E+01  0.10199528838E+01 0.  0.
     999903    2    3    3    0    0 -0.64088782518E-01 -0.11385136426E+00  0.11960765638E-01  0.13257301881E+00  0.19053614138E-01 0.  0.
         14    1    1    2    0    0  0.19502626474E-02  0.15677963352E-01 -0.17668373943E-01  0.23701761476E-01  0.00000000000E+00 0.  1.
     999901    1    3    3    0    0  0.62138519871E-01  0.98173400912E-01  0.57076083049E-02  0.88765521972E+00  0.88000000000E+00 0.  1.
        -11    1    4    4    0    0 -0.27117163220E-01 -0.56352823930E-01  0.14369365934E-01  0.64169471748E-01  0.51100000000E-03 0. -1.
         11    1    4    4    0    0 -0.36971619298E-01 -0.57498540333E-01 -0.24086002957E-02  0.68403547060E-01  0.51100000000E-03 0.  1.
</event>
<event>
 8    1  0.1064839E+005  0.1043930E+01  0.7957747E-01            NaN
         13   -1    0    0    0    0  0.00000000000E+00  0.00000000000E+00  0.74505805969E-08  0.10566000000E+00  0.10566000000E+00 0.  1.
     999900   -1    0    0    0    0 -0.00000000000E+00 -0.00000000000E+00 -0.74505805969E-08  0.93827000000E+00  0.93827000000E+00 0. -1.
     999902    2    1    2    0    0  0.16021148215E-01  0.14976798703E-01 -0.89864809720E-02  0.10202289762E+01  0.10199536388E+01 0.  0.
     999903    2    3    3    0    0  0.95001450082E-01  0.89113128308E-01  0.18879100567E-01  0.13314917477E+00  0.20145896575E-01 0.  0.
         14    1    1    2    0    0 -0.16021148215E-01 -0.14976798703E-01  0.89864809720E-02  0.23701023813E-01  0.00000000000E+00 0.  1.
     999901    1    3    3    0    0 -0.78980301866E-01 -0.74136329605E-01 -0.27865581539E-01  0.88707980142E+00  0.88000000000E+00 0. -1.
        -11    1    4    4    0    0  0.91012955412E-01  0.81974201236E-01  0.21872749344E-01  0.12442590569E+00  0.51100000000E-03 0.  1.
         11    1    4    4    0    0  0.39884946693E-02  0.71389270719E-02 -0.29936487768E-02  0.87232690813E-02  0.51100000000E-03 0. -1.
</event>
<event>
 8    1  0.1064839E+005  0.1043930E+01  0.7957747E-01            NaN
         13   -1    0    0    0    0  0.00000000000E+00  0.00000000000E+00  0.74505805969E-08  0.10566000000E+00  0.10566000000E+00 0. -1.
     999900   -1    0    0    0    0 -0.00000000000E+00 -0.00000000000E+00 -0.74505805969E-08  0.93827000000E+00  0.93827000000E+00 0. -1.
     999902    2    1    2    0    0  0.25484438684E-02 -0.24001114852E-01  0.15203198278E-02  0.10197461324E+01  0.10194593249E+01 0.  0.
     999903    2    3    3    0    0  0.88336524578E-01 -0.36374855618E-01 -0.87354851425E-01  0.13103273634E+00  0.20303601386E-01 0.  0.
         14    1    1    2    0    0 -0.25484438684E-02  0.24001114852E-01 -0.15203198278E-02  0.24183867611E-01  0.00000000000E+00 0. -1.
     999901    1    3    3    0    0 -0.85788080710E-01  0.12373740767E-01  0.88875171253E-01  0.88871339605E+00  0.88000000000E+00 0.  1.
        -11    1    4    4    0    0  0.53122637912E-01 -0.22762057322E-01 -0.39178341671E-01  0.69823559701E-01  0.51100000000E-03 0.  1.
         11    1    4    4    0    0  0.35213886666E-01 -0.13612798296E-01 -0.48176509754E-01  0.61209176638E-01  0.51100000000E-03 0. -1.
</event>
<event>
 8    1  0.1064839E+005  0.1043930E+01  0.7957747E-01            NaN
         13   -1    0    0    0    0  0.00000000000E+00  0.00000000000E+00  0.74505805969E-08  0.10566000000E+00  0.10566000000E+00 0. -1.
     999900   -1    0    0    0    0 -0.00000000000E+00 -0.00000000000E+00 -0.74505805969E-08  0.93827000000E+00  0.93827000000E+00 0. -1.
     999902    2    1    2    0    0  0.11076143497E-01  0.13689236804E-02 -0.18744883314E-01  0.10221142819E+01  0.10218814411E+01 0.  0.
     999903    2    3    3    0    0  0.64460858899E-01 -0.23373871869E-02 -0.11701938509E+00  0.13502829829E+00  0.19453512324E-01 0.  0.
         14    1    1    2    0    0 -0.11076143497E-01 -0.13689236804E-02  0.18744883314E-01  0.21815718124E-01  0.00000000000E+00 0. -1.
     999901    1    3    3    0    0 -0.53384715402E-01  0.37063108673E-02  0.98274501781E-01  0.88708598359E+00  0.88000000000E+00 0.  1.
        -11    1    4    4    0    0  0.42167132510E-01 -0.93359215175E-02 -0.85488012569E-01  0.95779370997E-01  0.51100000000E-03 0.  1.
         11    1    4    4    0    0  0.22293726390E-01  0.69985343307E-02 -0.31531372526E-01  0.39248927291E-01  0.51100000000E-03 0. -1.
</event>
<event>
 8    1  0.1064839E+005  0.1043930E+01  0.7957747E-01            NaN
         13   -1    0    0    0    0  0.00000000000E+00  0.00000000000E+00  0.74505805969E-08  0.10566000000E+00  0.10566000000E+00 0.  1.
     999900   -1    0    0    0    0 -0.00000000000E+00 -0.00000000000E+00 -0.74505805969E-08  0.93827000000E+00  0.93827000000E+00 0.  1.
     999902    2    1    2    0    0 -0.23316918447E-01  0.62629017212E-02 -0.49920880035E-03  0.10197814631E+01  0.10194955030E+01 0.  0.
     999903    2    3    3    0    0 -0.67773898965E-01 -0.78209081040E-01  0.78042934080E-01  0.13114159951E+00  0.19936344327E-01 0.  0.
         14    1    1    2    0    0  0.23316918447E-01 -0.62629017212E-02  0.49920880035E-03  0.24148536876E-01  0.00000000000E+00 0. -1.
     999901    1    3    3    0    0  0.44456980517E-01  0.84471982761E-01 -0.78542142880E-01  0.88863986361E+00  0.88000000000E+00 0.  1.
        -11    1    4    4    0    0 -0.15882140576E-01 -0.25057407011E-01  0.32503759546E-01  0.44009902760E-01  0.51100000000E-03 0. -1.
         11    1    4    4    0    0 -0.51891758389E-01 -0.53151674029E-01  0.45539174535E-01  0.87131696753E-01  0.51100000000E-03 0.  1.
</event>
<event>
 8    1  0.1064839E+005  0.1043930E+01  0.7957747E-01            NaN
         13   -1    0    0    0    0  0.00000000000E+00  0.00000000000E+00  0.74505805969E-08  0.10566000000E+00  0.10566000000E+00 0.  1.
     999900   -1    0    0    0    0 -0.00000000000E+00 -0.00000000000E+00 -0.74505805969E-08  0.93827000000E+00  0.93827000000E+00 0.  1.
     999902    2    1    2    0    0  0.15676422158E-01  0.43684532802E-02  0.17734139994E-01  0.10198606561E+01  0.10195765908E+01 0.  0.
     999903    2    3    3    0    0  0.12912976180E+00  0.13450785146E-01  0.17590737499E-01  0.13253085854E+00  0.19989382574E-01 0.  0.
         14    1    1    2    0    0 -0.15676422158E-01 -0.43684532802E-02 -0.17734139994E-01  0.24069343927E-01  0.00000000000E+00 0. -1.
     999901    1    3    3    0    0 -0.11345333964E+00 -0.90823318655E-02  0.14340249519E-03  0.88732979753E+00  0.88000000000E+00 0. -1.
        -11    1    4    4    0    0  0.25638772607E-01  0.50206834297E-02  0.11406572968E-01  0.28511838783E-01  0.51100000000E-03 0. -1.
         11    1    4    4    0    0  0.10349098919E+00  0.84301017161E-02  0.61841645312E-02  0.10401901976E+00  0.51100000000E-03 0.  1.
</event>
<event>
 8    1  0.1064839E+005  0.1043930E+01  0.7957747E-01            NaN
         13   -1    0    0    0    0  0.00000000000E+00  0.00000000000E+00  0.74505805969E-08  0.10566000000E+00  0.10566000000E+00 0.  1.
     999900   -1    0    0    0    0 -0.00000000000E+00 -0.00000000000E+00 -0.74505805969E-08  0.93827000000E+00  0.93827000000E+00 0. -1.
     999902    2    1    2    0    0 -0.22582830287E-01  0.23052658360E-02  0.40832392702E-02  0.10208654966E+01  0.10206049142E+01 0.  0.
     999903    2    3    3    0    0 -0.10319443454E+00  0.28765330047E-01  0.77376607436E-01  0.13375204074E+00  0.20638156187E-01 0.  0.
         14    1    1    2    0    0  0.22582830287E-01 -0.23052658360E-02 -0.40832392702E-02  0.23064503404E-01  0.00000000000E+00 0.  1.
     999901    1    3    3    0    0  0.80611604257E-01 -0.26460064211E-01 -0.73293368166E-01  0.88711345585E+00  0.88000000000E+00 0. -1.
        -11    1    4    4    0    0 -0.35445341492E-01  0.63424318001E-04  0.27410677778E-01  0.44810519227E-01  0.51100000000E-03 0. -1.
         11    1    4    4    0    0 -0.67749093053E-01  0.28701905729E-01  0.49965929658E-01  0.88941521516E-01  0.51100000000E-03 0.  1.
</event>
<event>
 8    1  0.1064839E+005  0.1043930E+01  0.7957747E-01            NaN
         13   -1    0    0    0    0  0.00000000000E+00  0.00000000000E+00  0.74505805969E-08  0.10566000000E+00  0.10566000000E+00 0. -1.
     999900   -1    0    0    0    0 -0.00000000000E+00 -0.00000000000E+00 -0.74505805969E-08  0.93827000000E+00  0.93827000000E+00 0. -1.
     999902    2    1    2    0    0 -0.12235624346E-01 -0.32148251812E-02 -0.13817142429E-01  0.10251960995E+01  0.10250249184E+01 0.  0.
     999903    2    3    3    0    0 -0.13190654375E+00 -0.16471883981E-02  0.21605551400E-01  0.13638883483E+00  0.27075171344E-01 0.  0.
         14    1    1    2    0    0  0.12235624346E-01  0.32148251812E-02  0.13817142429E-01  0.18733900528E-01  0.00000000000E+00 0. -1.
     999901    1    3    3    0    0  0.11967091940E+00 -0.15676367832E-02 -0.35422693829E-01  0.88880726464E+00  0.88000000000E+00 0.  1.
        -11    1    4    4    0    0 -0.47865684754E-01  0.10465689267E-01  0.14895934897E-01  0.51213322742E-01  0.51100000000E-03 0.  1.
         11    1    4    4    0    0 -0.84040858992E-01 -0.12112877665E-01  0.67096165024E-02  0.85175512091E-01  0.51100000000E-03 0. -1.
</event>
<event>
 8    1  0.1064839E+005  0.1043930E+01  0.7957747E-01            NaN
         13   -1    0    0    0    0  0.00000000000E+00  0.00000000000E+00  0.74505805969E-08  0.10566000000E+00  0.10566000000E+00 0.  1.
     999900   -1    0    0    0    0 -0.00000000000E+00 -0.00000000000E+00 -0.74505805969E-08  0.93827000000E+00  0.93827000000E+00 0. -1.
     999902    2    1    2    0    0  0.22281633474E-01  0.61656990480E-02 -0.15410979572E-02  0.10207597169E+01  0.10204967113E+01 0.  0.
     999903    2    3    3    0    0 -0.47768137425E-01  0.11956838370E+00 -0.13794442998E-01  0.13063765577E+00  0.17248684416E-01 0.  0.
         14    1    1    2    0    0 -0.22281633474E-01 -0.61656990480E-02  0.15410979572E-02  0.23170283078E-01  0.00000000000E+00 0. -1.
     999901    1    3    3    0    0  0.70049770899E-01 -0.11340268465E+00  0.12253345041E-01  0.89012206115E+00  0.88000000000E+00 0. -1.
        -11    1    4    4    0    0 -0.35595837333E-01  0.10268690032E+00 -0.15349023673E-01  0.10976118067E+00  0.51100000000E-03 0. -1.
         11    1    4    4    0    0 -0.12172300092E-01  0.16881483372E-01  0.15545806753E-02  0.20876475096E-01  0.51100000000E-03 0.  1.
</event>
<event>
 8    1  0.1064839E+005  0.1043930E+01  0.7957747E-01            NaN
         13   -1    0    0    0    0  0.00000000000E+00  0.00000000000E+00  0.74505805969E-08  0.10566000000E+00  0.10566000000E+00 0. -1.
     999900   -1    0    0    0    0 -0.00000000000E+00 -0.00000000000E+00 -0.74505805969E-08  0.93827000000E+00  0.93827000000E+00 0. -1.
     999902    2    1    2    0    0 -0.43922543951E-02  0.20018532140E-01  0.10666720802E-01  0.10208256182E+01  0.10205641235E+01 0.  0.
     999903    2    3    3    0    0 -0.11648345764E+00  0.56018025338E-01 -0.18271317990E-01  0.13251384212E+00  0.22796101089E-01 0.  0.
         14    1    1    2    0    0  0.43922543951E-02 -0.20018532140E-01 -0.10666720802E-01  0.23104381843E-01  0.00000000000E+00 0.  1.
     999901    1    3    3    0    0  0.11209120325E+00 -0.35999493198E-01  0.28938038792E-01  0.88831177604E+00  0.88000000000E+00 0.  1.
        -11    1    4    4    0    0 -0.85619162455E-01  0.29686084166E-01 -0.10872317025E-01  0.91270876905E-01  0.51100000000E-03 0. -1.
         11    1    4    4    0    0 -0.30864295189E-01  0.26331941172E-01 -0.73990009652E-02  0.41242965215E-01  0.51100000000E-03 0.  1.
</event>
<event>
 8    1  0.1064839E+005  0.1043930E+01  0.7957747E-01            NaN
         13   -1    0    0    0    0  0.00000000000E+00  0.00000000000E+00  0.74505805969E-08  0.10566000000E+00  0.10566000000E+00 0.  1.
     999900   -1    0    0    0    0 -0.00000000000E+00 -0.00000000000E+00 -0.74505805969E-08  0.93827000000E+00  0.93827000000E+00 0.  1.
     999902    2    1    2    0    0 -0.52736364311E-02 -0.88852691481E-02  0.20498047373E-01  0.10209750616E+01  0.10207169771E+01 0.  0.
     999903    2    3    3    0    0 -0.58099958622E-01  0.77705158972E-01 -0.82887099570E-01  0.12913594433E+00  0.19802119067E-01 0.  0.
         14    1    1    2    0    0  0.52736364311E-02  0.88852691481E-02 -0.20498047373E-01  0.22954938361E-01  0.00000000000E+00 0. -1.
     999901    1    3    3    0    0  0.52826322191E-01 -0.86590428120E-01  0.10338514694E+00  0.89183911731E+00  0.88000000000E+00 0. -1.
        -11    1    4    4    0    0 -0.25755196473E-01  0.25149140979E-01 -0.40932128424E-01  0.54511555616E-01  0.51100000000E-03 0.  1.
         11    1    4    4    0    0 -0.32344762149E-01  0.52556017993E-01 -0.41954971146E-01  0.74624388712E-01  0.51100000000E-03 0. -1.
</event>
<event>
 8    1  0.1064839E+005  0.1043930E+01  0.7957747E-01            NaN
         13   -1    0    0    0    0  0.00000000000E+00  0.00000000000E+00  0.74505805969E-08  0.10566000000E+00  0.10566000000E+00 0.  1.
     999900   -1    0    0    0    0 -0.00000000000E+00 -0.00000000000E+00 -0.74505805969E-08  0.93827000000E+00  0.93827000000E+00 0. -1.
     999902    2    1    2    0    0  0.95538523194E-02  0.22014637472E-01 -0.28064833659E-02  0.10197681146E+01  0.10194818345E+01 0.  0.
     999903    2    3    3    0    0  0.72150322962E-01  0.72717579662E-01  0.81107158187E-01  0.13211356145E+00  0.19547544996E-01 0.  0.
         14    1    1    2    0    0 -0.95538523194E-02 -0.22014637472E-01  0.28064833659E-02  0.24161885399E-01  0.00000000000E+00 0.  1.
     999901    1    3    3    0    0 -0.62596470643E-01 -0.50702942190E-01 -0.83913641553E-01  0.88765455315E+00  0.88000000000E+00 0. -1.
        -11    1    4    4    0    0  0.29649992850E-01  0.43520934198E-01  0.38790733907E-01  0.65407766722E-01  0.51100000000E-03 0. -1.
         11    1    4    4    0    0  0.42500330112E-01  0.29196645464E-01  0.42316424280E-01  0.66705794732E-01  0.51100000000E-03 0.  1.
</event>
<event>
 8    1  0.1064839E+005  0.1043930E+01  0.7957747E-01            NaN
         13   -1    0    0    0    0  0.00000000000E+00  0.00000000000E+00  0.74505805969E-08  0.10566000000E+00  0.10566000000E+00 0.  1.
     999900   -1    0    0    0    0 -0.00000000000E+00 -0.00000000000E+00 -0.74505805969E-08  0.93827000000E+00  0.93827000000E+00 0. -1.
     999902    2    1    2    0    0  0.21189481334E-01  0.95674103824E-02  0.45289321357E-02  0.10202437025E+01  0.10199687112E+01 0.  0.
     999903    2    3    3    0    0  0.73549996362E-01 -0.12387300739E-01 -0.10662216646E+00  0.13143652459E+00  0.18553340126E-01 0.  0.
         14    1    1    2    0    0 -0.21189481334E-01 -0.95674103824E-02 -0.45289321357E-02  0.23686297450E-01  0.00000000000E+00 0. -1.
     999901    1    3    3    0    0 -0.52360515029E-01  0.21954711122E-01  0.11115109860E+00  0.88880717796E+00  0.88000000000E+00 0.  1.
        -11    1    4    4    0    0  0.34076608228E-01 -0.25129036794E-02 -0.63720797319E-01  0.72305816123E-01  0.51100000000E-03 0.  1.
         11    1    4    4    0    0  0.39473388135E-01 -0.98743970600E-02 -0.42901369146E-01  0.59130708466E-01  0.51100000000E-03 0. -1.
</event>
<event>
 8    1  0.1064839E+005  0.1043930E+01  0.7957747E-01            NaN
         13   -1    0    0    0    0  0.00000000000E+00  0.00000000000E+00  0.74505805969E-08  0.10566000000E+00  0.10566000000E+00 0.  1.
     999900   -1    0    0    0    0 -0.00000000000E+00 -0.00000000000E+00 -0.74505805969E-08  0.93827000000E+00  0.93827000000E+00 0.  1.
     999902    2    1    2    0    0  0.23194641555E-01 -0.22472068135E-03 -0.45112972388E-02  0.10202996445E+01  0.10200259658E+01 0.  0.
     999903    2    3    3    0    0  0.79729670602E-01 -0.48915070408E-01  0.90949812549E-01  0.13199801607E+00  0.20052514967E-01 0.  0.
         14    1    1    2    0    0 -0.23194641555E-01  0.22472068135E-03  0.45112972388E-02  0.23630355457E-01  0.00000000000E+00 0.  1.
     999901    1    3    3    0    0 -0.56535029048E-01  0.48690349726E-01 -0.95461109788E-01  0.88830162847E+00  0.88000000000E+00 0.  1.
        -11    1    4    4    0    0  0.67959860540E-01 -0.39376668376E-01  0.84945822364E-01  0.11569407295E+00  0.51100000000E-03 0. -1.
         11    1    4    4    0    0  0.11769810063E-01 -0.95384020315E-02  0.60039901847E-02  0.16303943123E-01  0.51100000000E-03 0.  1.
</event>
<event>
 8    1  0.1064839E+005  0.1043930E+01  0.7957747E-01            NaN
         13   -1    0    0    0    0  0.00000000000E+00  0.00000000000E+00  0.74505805969E-08  0.10566000000E+00  0.10566000000E+00 0.  1.
     999900   -1    0    0    0    0 -0.00000000000E+00 -0.00000000000E+00 -0.74505805969E-08  0.93827000000E+00  0.93827000000E+00 0. -1.
     999902    2    1    2    0    0  0.11307540189E-02 -0.19831487050E-01 -0.12610442172E-01  0.10204015123E+01  0.10201302155E+01 0.  0.
     999903    2    3    3    0    0 -0.87487075508E-01 -0.53389796927E-01 -0.81740317982E-01  0.13261875753E+00  0.20044861409E-01 0.  0.
         14    1    1    2    0    0 -0.11307540189E-02  0.19831487050E-01  0.12610442172E-01  0.23528487734E-01  0.00000000000E+00 0.  1.
     999901    1    3    3    0    0  0.88617829527E-01  0.33558309877E-01  0.69129875810E-01  0.88778275473E+00  0.88000000000E+00 0.  1.
        -11    1    4    4    0    0 -0.15357987467E-01 -0.18613593549E-01 -0.15395664653E-01  0.28629028187E-01  0.51100000000E-03 0. -1.
         11    1    4    4    0    0 -0.72129088041E-01 -0.34776203378E-01 -0.66344653329E-01  0.10398972935E+00  0.51100000000E-03 0.  1.
</event>
<event>
 8    1  0.1064839E+005  0.1043930E+01  0.7957747E-01            NaN
         13   -1    0    0    0    0  0.00000000000E+00  0.00000000000E+00  0.74505805969E-08  0.10566000000E+00  0.10566000000E+00 0. -1.
     999900   -1    0    0    0    0 -0.00000000000E+00 -0.00000000000E+00 -0.74505805969E-08  0.93827000000E+00  0.93827000000E+00 0. -1.
     999902    2    1    2    0    0 -0.16528967452E-01  0.12685572934E-01  0.11552886194E-01  0.10201056489E+01  0.10198274046E+01 0.  0.
     999903    2    3    3    0    0  0.10756440542E+00 -0.46571166354E-02 -0.66148505051E-01  0.12784030705E+00  0.19383738981E-01 0.  0.
         14    1    1    2    0    0  0.16528967452E-01 -0.12685572934E-01 -0.11552886194E-01  0.23824351095E-01  0.00000000000E+00 0.  1.
     999901    1    3    3    0    0 -0.12409337288E+00  0.17342689569E-01  0.77701391244E-01  0.89226534185E+00  0.88000000000E+00 0.  1.
        -11    1    4    4    0    0  0.30538391493E-01  0.12198058960E-02 -0.28945271022E-01  0.42097162813E-01  0.51100000000E-03 0.  1.
         11    1    4    4    0    0  0.77026013931E-01 -0.58769225314E-02 -0.37203234028E-01  0.85743144237E-01  0.51100000000E-03 0. -1.
</event>
<event>
 8    1  0.1064839E+005  0.1043930E+01  0.7957747E-01            NaN
         13   -1    0    0    0    0  0.00000000000E+00  0.00000000000E+00  0.74505805969E-08  0.10566000000E+00  0.10566000000E+00 0.  1.
     999900   -1    0    0    0    0 -0.00000000000E+00 -0.00000000000E+00 -0.74505805969E-08  0.93827000000E+00  0.93827000000E+00 0.  1.
     999902    2    1    2    0    0  0.55812769093E-03 -0.15905348469E-01 -0.17420768372E-01  0.10203339243E+01  0.10200610483E+01 0.  0.
     999903    2    3    3    0    0 -0.12374158491E+00  0.26974134034E-01  0.20167194332E-01  0.12977122383E+00  0.19856260070E-01 0.  0.
         14    1    1    2    0    0 -0.55812769093E-03  0.15905348469E-01  0.17420768372E-01  0.23596075671E-01  0.00000000000E+00 0.  1.
     999901    1    3    3    0    0  0.12429971261E+00 -0.42879482503E-01 -0.37587962704E-01  0.89056270050E+00  0.88000000000E+00 0. -1.
        -11    1    4    4    0    0 -0.93370033835E-01  0.20538747992E-01  0.23765756747E-01  0.98513327536E-01  0.51100000000E-03 0. -1.
         11    1    4    4    0    0 -0.30371551079E-01  0.64353860418E-02 -0.35985624156E-02  0.31257896297E-01  0.51100000000E-03 0.  1.
</event>
<event>
 8    1  0.1064839E+005  0.1043930E+01  0.7957747E-01            NaN
         13   -1    0    0    0    0  0.00000000000E+00  0.00000000000E+00  0.74505805969E-08  0.10566000000E+00  0.10566000000E+00 0.  1.
     999900   -1    0    0    0    0 -0.00000000000E+00 -0.00000000000E+00 -0.74505805969E-08  0.93827000000E+00  0.93827000000E+00 0.  1.
     999902    2    1    2    0    0 -0.11528261189E-01 -0.53343942651E-02 -0.19884859878E-01  0.10203341482E+01  0.10200612775E+01 0.  0.
     999903    2    3    3    0    0  0.61915309381E-01 -0.10295353062E+00 -0.49498173604E-01  0.13140197861E+00  0.19582537854E-01 0.  0.
         14    1    1    2    0    0  0.11528261189E-01  0.53343942651E-02  0.19884859878E-01  0.23595851767E-01  0.00000000000E+00 0.  1.
     999901    1    3    3    0    0 -0.73443570570E-01  0.97619136359E-01  0.29613313725E-01  0.88893216962E+00  0.88000000000E+00 0. -1.
        -11    1    4    4    0    0  0.16534043725E-01 -0.37207945693E-01 -0.84588829545E-02  0.41588696137E-01  0.51100000000E-03 0. -1.
         11    1    4    4    0    0  0.45381265656E-01 -0.65745584931E-01 -0.41039290649E-01  0.89813282472E-01  0.51100000000E-03 0.  1.
</event>
<event>
 8    1  0.1064839E+005  0.1043930E+01  0.7957747E-01            NaN
         13   -1    0    0    0    0  0.00000000000E+00  0.00000000000E+00  0.74505805969E-08  0.10566000000E+00  0.10566000000E+00 0. -1.
     999900   -1    0    0    0    0 -0.00000000000E+00 -0.00000000000E+00 -0.74505805969E-08  0.93827000000E+00  0.93827000000E+00 0. -1.
     999902    2    1    2    0    0 -0.22013745949E-02  0.22197259207E-01  0.81812995439E-02  0.10201708327E+01  0.10198941268E+01 0.  0.
     999903    2    3    3    0    0  0.88952386708E-02 -0.67936885860E-01  0.10846121607E+00  0.12983193065E+00  0.19948661440E-01 0.  0.
         14    1    1    2    0    0  0.22013745949E-02 -0.22197259207E-01 -0.81812995439E-02  0.23759167255E-01  0.00000000000E+00 0. -1.
     999901    1    3    3    0    0 -0.11096613266E-01  0.90134145067E-01 -0.10027991652E+00  0.89033890210E+00  0.88000000000E+00 0. -1.
        -11    1    4    4    0    0  0.97717348274E-03 -0.38105201605E-01  0.43047825759E-01  0.57500762438E-01  0.51100000000E-03 0. -1.
         11    1    4    4    0    0  0.79180651880E-02 -0.29831684255E-01  0.65413390307E-01  0.72331168208E-01  0.51100000000E-03 0.  1.
</event>
<event>
 8    1  0.1064839E+005  0.1043930E+01  0.7957747E-01            NaN
         13   -1    0    0    0    0  0.00000000000E+00  0.00000000000E+00  0.74505805969E-08  0.10566000000E+00  0.10566000000E+00 0.  1.
     999900   -1    0    0    0    0 -0.00000000000E+00 -0.00000000000E+00 -0.74505805969E-08  0.93827000000E+00  0.93827000000E+00 0.  1.
     999902    2    1    2    0    0  0.45371285512E-02  0.12768150682E-01  0.19306050045E-01  0.10203432500E+01  0.10200705922E+01 0.  0.
     999903    2    3    3    0    0  0.14479882950E-02 -0.24248652338E-01 -0.12327964387E+00  0.12809302355E+00  0.24896953169E-01 0.  0.
         14    1    1    2    0    0 -0.45371285512E-02 -0.12768150682E-01 -0.19306050045E-01  0.23586750002E-01  0.00000000000E+00 0. -1.
     999901    1    3    3    0    0  0.30891402562E-02  0.37016803020E-01  0.14258569392E+00  0.89225022645E+00  0.88000000000E+00 0. -1.
        -11    1    4    4    0    0  0.56549647802E-02 -0.16691051699E-01 -0.33139702685E-01  0.37537592471E-01  0.51100000000E-03 0. -1.
         11    1    4    4    0    0 -0.42069764852E-02 -0.75576006392E-02 -0.90139941190E-01  0.90555431075E-01  0.51100000000E-03 0.  1.
</event>
<event>
 8    1  0.1064839E+005  0.1043930E+01  0.7957747E-01            NaN
         13   -1    0    0    0    0  0.00000000000E+00  0.00000000000E+00  0.74505805969E-08  0.10566000000E+00  0.10566000000E+00 0. -1.
     999900   -1    0    0    0    0 -0.00000000000E+00 -0.00000000000E+00 -0.74505805969E-08  0.93827000000E+00  0.93827000000E+00 0. -1.
     999902    2    1    2    0    0  0.11686031340E-01 -0.16037433100E-01 -0.60572605357E-02  0.10231826389E+01  0.10229722672E+01 0.  0.
     999903    2    3    3    0    0 -0.74368459460E-01 -0.91928114308E-01 -0.59994656850E-01  0.13409658364E+00  0.20027204729E-01 0.  0.
         14    1    1    2    0    0 -0.11686031340E-01  0.16037433100E-01  0.60572605357E-02  0.20747361136E-01  0.00000000000E+00 0. -1.
     999901    1    3    3    0    0  0.86054490799E-01  0.75890681208E-01  0.53937396315E-01  0.88908605523E+00  0.88000000000E+00 0. -1.
        -11    1    4    4    0    0 -0.27401814713E-01 -0.41385150115E-01 -0.34893527985E-01  0.60674620030E-01  0.51100000000E-03 0.  1.
         11    1    4    4    0    0 -0.46966644747E-01 -0.50542964194E-01 -0.25101128866E-01  0.73421963605E-01  0.51100000000E-03 0. -1.
</event>
<event>
 8    1  0.1064839E+005  0.1043930E+01  0.7957747E-01            NaN
         13   -1    0    0    0    0  0.00000000000E+00  0.00000000000E+00  0.74505805969E-08  0.10566000000E+00  0.10566000000E+00 0.  1.
     999900   -1    0    0    0    0 -0.00000000000E+00 -0.00000000000E+00 -0.74505805969E-08  0.93827000000E+00  0.93827000000E+00 0. -1.
     999902    2    1    2    0    0  0.79026535328E-03  0.20424469965E-01  0.88537072158E-02  0.10216550898E+01  0.10214122336E+01 0.  0.
     999903    2    3    3    0    0 -0.66743259321E-01 -0.11795897549E-01  0.11242662671E+00  0.13242717825E+00  0.17418532734E-01 0.  0.
         14    1    1    2    0    0 -0.79026535328E-03 -0.20424469965E-01 -0.88537072158E-02  0.22274910194E-01  0.00000000000E+00 0. -1.
     999901    1    3    3    0    0  0.67533524674E-01  0.32220367514E-01 -0.10357291949E+00  0.88922791156E+00  0.88000000000E+00 0. -1.
        -11    1    4    4    0    0 -0.30070191535E-01 -0.78762754482E-02  0.36005261689E-01  0.47569865715E-01  0.51100000000E-03 0. -1.
         11    1    4    4    0    0 -0.36673067786E-01 -0.39196221010E-02  0.76421365019E-01  0.84857312535E-01  0.51100000000E-03 0.  1.
</event>
<event>
 8    1  0.1064839E+005  0.1043930E+01  0.7957747E-01            NaN
         13   -1    0    0    0    0  0.00000000000E+00  0.00000000000E+00  0.74505805969E-08  0.10566000000E+00  0.10566000000E+00 0.  1.
     999900   -1    0    0    0    0 -0.00000000000E+00 -0.00000000000E+00 -0.74505805969E-08  0.93827000000E+00  0.93827000000E+00 0. -1.
     999902    2    1    2    0    0  0.86043104402E-02  0.87590739386E-02  0.19933196713E-01  0.10205187235E+01  0.10202501542E+01 0.  0.
     999903    2    3    3    0    0 -0.23578511031E-01 -0.10009757720E+00  0.79025675703E-01  0.13126205330E+00  0.20228644835E-01 0.  0.
         14    1    1    2    0    0 -0.86043104402E-02 -0.87590739386E-02 -0.19933196713E-01  0.23411276463E-01  0.00000000000E+00 0. -1.
     999901    1    3    3    0    0  0.32182821471E-01  0.10885665114E+00 -0.59092478990E-01  0.88925667024E+00  0.88000000000E+00 0. -1.
        -11    1    4    4    0    0 -0.10906626014E-01 -0.41633406597E-01  0.20887874971E-01  0.47842026271E-01  0.51100000000E-03 0. -1.
         11    1    4    4    0    0 -0.12671885016E-01 -0.58464170601E-01  0.58137800733E-01  0.83420027025E-01  0.51100000000E-03 0.  1.
</event>
<event>
 8    1  0.1064839E+005  0.1043930E+01  0.7957747E-01            NaN
         13   -1    0    0    0    0  0.00000000000E+00  0.00000000000E+00  0.74505805969E-08  0.10566000000E+00  0.10566000000E+00 0.  1.
     999900   -1    0    0    0    0 -0.00000000000E+00 -0.00000000000E+00 -0.74505805969E-08  0.93827000000E+00  0.93827000000E+00 0. -1.
     999902    2    1    2    0    0 -0.20241829115E-02 -0.78383240340E-02  0.21893069748E-01  0.10205881247E+01  0.10203211637E+01 0.  0.
     999903    2    3    3    0    0  0.46461638877E-01  0.10949653586E+00  0.50992839232E-01  0.13100106271E+00  0.20318305193E-01 0.  0.
         14    1    1    2    0    0  0.20241829115E-02  0.78383240340E-02 -0.21893069748E-01  0.23341875312E-01  0.00000000000E+00 0. -1.
     999901    1    3    3    0    0 -0.48485821788E-01 -0.11733485989E+00 -0.29099769485E-01  0.88958706198E+00  0.88000000000E+00 0. -1.
        -11    1    4    4    0    0  0.46818226624E-01  0.97168338359E-01  0.42091794735E-01  0.11578260935E+00  0.51100000000E-03 0. -1.
         11    1    4    4    0    0 -0.35658774724E-03  0.12328197496E-01  0.89010444970E-02  0.15218453353E-01  0.51100000000E-03 0.  1.
</event>
<event>
 8    1  0.1064839E+005  0.1043930E+01  0.7957747E-01            NaN
         13   -1    0    0    0    0  0.00000000000E+00  0.00000000000E+00  0.74505805969E-08  0.10566000000E+00  0.10566000000E+00 0. -1.
     999900   -1    0    0    0    0 -0.00000000000E+00 -0.00000000000E+00 -0.74505805969E-08  0.93827000000E+00  0.93827000000E+00 0. -1.
     999902    2    1    2    0    0 -0.58531833040E-03 -0.71520575668E-02  0.22982317525E-01  0.10198534254E+01  0.10195691874E+01 0.  0.
     999903    2    3    3    0    0  0.94606389595E-01  0.51609558538E-02  0.89524080902E-01  0.13213676013E+00  0.21646198223E-01 0.  0.
         14    1    1    2    0    0  0.58531833040E-03  0.71520575668E-02 -0.22982317525E-01  0.24076574586E-01  0.00000000000E+00 0.  1.
     999901    1    3    3    0    0 -0.95191707926E-01 -0.12313013421E-01 -0.66541763377E-01  0.88771666529E+00  0.88000000000E+00 0.  1.
        -11    1    4    4    0    0  0.57566913250E-01 -0.62500303287E-02  0.46841133526E-01  0.74480637022E-01  0.51100000000E-03 0.  1.
         11    1    4    4    0    0  0.37039476346E-01  0.11410986183E-01  0.42682947376E-01  0.57656123104E-01  0.51100000000E-03 0. -1.
</event>
<event>
 8    1  0.1064839E+005  0.1043930E+01  0.7957747E-01            NaN
         13   -1    0    0    0    0  0.00000000000E+00  0.00000000000E+00  0.74505805969E-08  0.10566000000E+00  0.10566000000E+00 0.  1.
     999900   -1    0    0    0    0 -0.00000000000E+00 -0.00000000000E+00 -0.74505805969E-08  0.93827000000E+00  0.93827000000E+00 0.  1.
     999902    2    1    2    0    0  0.10459131032E-01  0.19873940402E-01 -0.79140458534E-02  0.10201182581E+01  0.10198403118E+01 0.  0.
     999903    2    3    3    0    0  0.29220754079E-01 -0.90175090952E-01  0.84148472245E-01  0.12830084686E+00  0.19868125923E-01 0.  0.
         14    1    1    2    0    0 -0.10459131032E-01 -0.19873940402E-01  0.79140458534E-02  0.23811741869E-01  0.00000000000E+00 0.  1.
     999901    1    3    3    0    0 -0.18761623047E-01  0.11004903135E+00 -0.92062518099E-01  0.89181741127E+00  0.88000000000E+00 0.  1.
        -11    1    4    4    0    0  0.99697839424E-02 -0.31154512953E-01  0.42107498542E-01  0.53322629564E-01  0.51100000000E-03 0.  1.
         11    1    4    4    0    0  0.19250970137E-01 -0.59020577999E-01  0.42040973704E-01  0.74978217300E-01  0.51100000000E-03 0. -1.
</event>
<event>
 8    1  0.1064839E+005  0.1043930E+01  0.7957747E-01            NaN
         13   -1    0    0    0    0  0.00000000000E+00  0.00000000000E+00  0.74505805969E-08  0.10566000000E+00  0.10566000000E+00 0.  1.
     999900   -1    0    0    0    0 -0.00000000000E+00 -0.00000000000E+00 -0.74505805969E-08  0.93827000000E+00  0.93827000000E+00 0. -1.
     999902    2    1    2    0    0 -0.18054088049E-01  0.67671597806E-03 -0.15283749892E-01  0.10202656587E+01  0.10199911829E+01 0.  0.
     999903    2    3    3    0    0  0.84368202465E-01  0.93334530700E-01  0.18666206143E-01  0.12884634334E+00  0.20582145979E-01 0.  0.
         14    1    1    2    0    0  0.18054088049E-01 -0.67671597806E-03  0.15283749892E-01  0.23664341329E-01  0.00000000000E+00 0.  1.
     999901    1    3    3    0    0 -0.10242229051E+00 -0.92657814722E-01 -0.33949956035E-01  0.89141931533E+00  0.88000000000E+00 0. -1.
        -11    1    4    4    0    0  0.78084576841E-01  0.76269699464E-01  0.18109071201E-01  0.11064568576E+00  0.51100000000E-03 0. -1.
         11    1    4    4    0    0  0.62836256237E-02  0.17064831236E-01  0.55713494233E-03  0.18200657583E-01  0.51100000000E-03 0.  1.
</event>
<event>
 8    1  0.1064839E+005  0.1043930E+01  0.7957747E-01            NaN
         13   -1    0    0    0    0  0.00000000000E+00  0.00000000000E+00  0.74505805969E-08  0.10566000000E+00  0.10566000000E+00 0. -1.
     999900   -1    0    0    0    0 -0.00000000000E+00 -0.00000000000E+00 -0.74505805969E-08  0.93827000000E+00  0.93827000000E+00 0.  1.
     999902    2    1    2    0    0 -0.11518572554E-01  0.13446809624E-01 -0.16554492631E-01  0.10196906636E+01  0.10194025231E+01 0.  0.
     999903    2    3    3    0    0  0.52088992763E-01 -0.28046360906E-01 -0.11621262655E+00  0.13081533532E+00  0.10364162286E-01 0.  0.
         14    1    1    2    0    0  0.11518572554E-01 -0.13446809624E-01  0.16554492631E-01  0.24239336398E-01  0.00000000000E+00 0. -1.
     999901    1    3    3    0    0 -0.63607565317E-01  0.41493170530E-01  0.99658133916E-01  0.88887532828E+00  0.88000000000E+00 0. -1.
        -11    1    4    4    0    0  0.31141522966E-01 -0.11304260976E-01 -0.68067821088E-01  0.75703831855E-01  0.51100000000E-03 0. -1.
         11    1    4    4    0    0  0.20947469797E-01 -0.16742099929E-01 -0.48144805458E-01  0.55111503469E-01  0.51100000000E-03 0.  1.
</event>
<event>
 8    1  0.1064839E+005  0.1043930E+01  0.7957747E-01            NaN
         13   -1    0    0    0    0  0.00000000000E+00  0.00000000000E+00  0.74505805969E-08  0.10566000000E+00  0.10566000000E+00 0.  1.
     999900   -1    0    0    0    0 -0.00000000000E+00 -0.00000000000E+00 -0.74505805969E-08  0.93827000000E+00  0.93827000000E+00 0.  1.
     999902    2    1    2    0    0 -0.46606373667E-02 -0.13238413706E-01  0.19548709948E-01  0.10198648967E+01  0.10195809327E+01 0.  0.
     999903    2    3    3    0    0 -0.11212777846E+00 -0.23635184866E-01 -0.58118583422E-01  0.12987080245E+00  0.18904891576E-01 0.  0.
         14    1    1    2    0    0  0.46606373667E-02  0.13238413706E-01 -0.19548709948E-01  0.24065103340E-01  0.00000000000E+00 0. -1.
     999901    1    3    3    0    0  0.10746714109E+00  0.10396771159E-01  0.77667293370E-01  0.88999409421E+00  0.88000000000E+00 0. -1.
        -11    1    4    4    0    0 -0.64810095665E-01 -0.22454688191E-01 -0.38239799549E-01  0.78530916920E-01  0.51100000000E-03 0.  1.
         11    1    4    4    0    0 -0.47317682792E-01 -0.11804966747E-02 -0.19878783873E-01  0.51339885532E-01  0.51100000000E-03 0. -1.
</event>
<event>
 8    1  0.1064839E+005  0.1043930E+01  0.7957747E-01            NaN
         13   -1    0    0    0    0  0.00000000000E+00  0.00000000000E+00  0.74505805969E-08  0.10566000000E+00  0.10566000000E+00 0.  1.
     999900   -1    0    0    0    0 -0.00000000000E+00 -0.00000000000E+00 -0.74505805969E-08  0.93827000000E+00  0.93827000000E+00 0.  1.
     999902    2    1    2    0    0  0.49970283745E-02  0.15725576906E-01  0.15768862997E-01  0.10211063039E+01  0.10208511953E+01 0.  0.
     999903    2    3    3    0    0  0.80208917934E-01  0.90470340527E-01 -0.49794435448E-01  0.13231940365E+00  0.20262915634E-01 0.  0.
         14    1    1    2    0    0 -0.49970283745E-02 -0.15725576906E-01 -0.15768862997E-01  0.22823696060E-01  0.00000000000E+00 0.  1.
     999901    1    3    3    0    0 -0.75211889559E-01 -0.74744763621E-01  0.65563298445E-01  0.88878690029E+00  0.88000000000E+00 0. -1.
        -11    1    4    4    0    0  0.19408975679E-01  0.18747163792E-01 -0.20311011759E-01  0.33778140962E-01  0.51100000000E-03 0.  1.
         11    1    4    4    0    0  0.60799942255E-01  0.71723176736E-01 -0.29483423689E-01  0.98541262690E-01  0.51100000000E-03 0. -1.
</event>
<event>
 8    1  0.1064839E+005  0.1043930E+01  0.7957747E-01            NaN
         13   -1    0    0    0    0  0.00000000000E+00  0.00000000000E+00  0.74505805969E-08  0.10566000000E+00  0.10566000000E+00 0. -1.
     999900   -1    0    0    0    0 -0.00000000000E+00 -0.00000000000E+00 -0.74505805969E-08  0.93827000000E+00  0.93827000000E+00 0.  1.
     999902    2    1    2    0    0  0.17713633311E-01  0.56964650484E-02  0.15996761141E-01  0.10193918891E+01  0.10190965139E+01 0.  0.
     999903    2    3    3    0    0 -0.11308472406E+00 -0.41205501268E-01 -0.35190966826E-01  0.12701966395E+00  0.20237162223E-01 0.  0.
         14    1    1    2    0    0 -0.17713633311E-01 -0.56964650484E-02 -0.15996761141E-01  0.24538110892E-01  0.00000000000E+00 0.  1.
     999901    1    3    3    0    0  0.13079835737E+00  0.46901966317E-01  0.51187727968E-01  0.89237222516E+00  0.88000000000E+00 0. -1.
        -11    1    4    4    0    0 -0.76825069552E-01 -0.33249447694E-01 -0.16004626874E-01  0.85229257219E-01  0.51100000000E-03 0.  1.
         11    1    4    4    0    0 -0.36259654504E-01 -0.79560535741E-02 -0.19186339953E-01  0.41790406734E-01  0.51100000000E-03 0. -1.
</event>
<event>
 8    1  0.1064839E+005  0.1043930E+01  0.7957747E-01            NaN
         13   -1    0    0    0    0  0.00000000000E+00  0.00000000000E+00  0.74505805969E-08  0.10566000000E+00  0.10566000000E+00 0. -1.
     999900   -1    0    0    0    0 -0.00000000000E+00 -0.00000000000E+00 -0.74505805969E-08  0.93827000000E+00  0.93827000000E+00 0.  1.
     999902    2    1    2    0    0  0.28706229116E-02 -0.46323683895E-02  0.22792371512E-01  0.10204951646E+01  0.10202260482E+01 0.  0.
     999903    2    3    3    0    0  0.88889167934E-01 -0.16258973110E-01  0.95871023651E-01  0.13321005964E+00  0.19698437250E-01 0.  0.
         14    1    1    2    0    0 -0.28706229116E-02  0.46323683895E-02 -0.22792371512E-01  0.23434835436E-01  0.00000000000E+00 0.  1.
     999901    1    3    3    0    0 -0.86018545023E-01  0.11626604721E-01 -0.73078652139E-01  0.88728510493E+00  0.88000000000E+00 0.  1.
        -11    1    4    4    0    0  0.44735390736E-01  0.11353705973E-02  0.41415233419E-01  0.60975625711E-01  0.51100000000E-03 0. -1.
         11    1    4    4    0    0  0.44153777198E-01 -0.17394343708E-01  0.54455790232E-01  0.72234433927E-01  0.51100000000E-03 0.  1.
</event>
<event>
 8    1  0.1064839E+005  0.1043930E+01  0.7957747E-01            NaN
         13   -1    0    0    0    0  0.00000000000E+00  0.00000000000E+00  0.74505805969E-08  0.10566000000E+00  0.10566000000E+00 0.  1.
     999900   -1    0    0    0    0 -0.00000000000E+00 -0.00000000000E+00 -0.74505805969E-08  0.93827000000E+00  0.93827000000E+00 0.  1.
     999902    2    1    2    0    0  0.17985680644E-01 -0.26254859299E-02 -0.14433149879E-01  0.10207202240E+01  0.10204563107E+01 0.  0.
     999903    2    3    3    0    0 -0.55510085349E-01  0.23103395946E-01  0.11160170167E+00  0.12833668162E+00  0.20005688040E-01 0.  0.
         14    1    1    2    0    0 -0.17985680644E-01  0.26254859299E-02  0.14433149879E-01  0.23209775958E-01  0.00000000000E+00 0.  1.
     999901    1    3    3    0    0  0.73495765993E-01 -0.25728881876E-01 -0.12603485155E+00  0.89238354242E+00  0.88000000000E+00 0.  1.
        -11    1    4    4    0    0 -0.16610445421E-01  0.39106975474E-02  0.16198255098E-01  0.23533912586E-01  0.51100000000E-03 0. -1.
         11    1    4    4    0    0 -0.38899639928E-01  0.19192698399E-01  0.95403446571E-01  0.10480276903E+00  0.51100000000E-03 0.  1.
</event>
<event>
 8    1  0.1064839E+005  0.1043930E+01  0.7957747E-01            NaN
         13   -1    0    0    0    0  0.00000000000E+00  0.00000000000E+00  0.74505805969E-08  0.10566000000E+00  0.10566000000E+00 0. -1.
     999900   -1    0    0    0    0 -0.00000000000E+00 -0.00000000000E+00 -0.74505805969E-08  0.93827000000E+00  0.93827000000E+00 0.  1.
     999902    2    1    2    0    0  0.16238936558E-01  0.14080628449E-01  0.92866502004E-03  0.10224165257E+01  0.10221901596E+01 0.  0.
     999903    2    3    3    0    0  0.11670755496E+00 -0.49980943347E-01 -0.36286819174E-01  0.13360674822E+00  0.20378465136E-01 0.  0.
         14    1    1    2    0    0 -0.16238936558E-01 -0.14080628449E-01 -0.92866502004E-03  0.21513474307E-01  0.00000000000E+00 0. -1.
     999901    1    3    3    0    0 -0.10046861840E+00  0.64061571796E-01  0.37215484194E-01  0.88880977747E+00  0.88000000000E+00 0. -1.
        -11    1    4    4    0    0  0.10800600842E+00 -0.51627645610E-01 -0.33596080071E-01  0.12433691875E+00  0.51100000000E-03 0. -1.
         11    1    4    4    0    0  0.87015465432E-02  0.16467022638E-02 -0.26907391032E-02  0.92698294759E-02  0.51100000000E-03 0.  1.
</event>
<event>
 8    1  0.1064839E+005  0.1043930E+01  0.7957747E-01            NaN
         13   -1    0    0    0    0  0.00000000000E+00  0.00000000000E+00  0.74505805969E-08  0.10566000000E+00  0.10566000000E+00 0. -1.
     999900   -1    0    0    0    0 -0.00000000000E+00 -0.00000000000E+00 -0.74505805969E-08  0.93827000000E+00  0.93827000000E+00 0.  1.
     999902    2    1    2    0    0 -0.18267040890E-01 -0.92769735899E-02 -0.12808826635E-01  0.10197677761E+01  0.10194814879E+01 0.  0.
     999903    2    3    3    0    0 -0.39556033537E-01 -0.12000334678E+00 -0.33998270935E-01  0.13232057012E+00  0.19681662111E-01 0.  0.
         14    1    1    2    0    0  0.18267040890E-01  0.92769735899E-02  0.12808826635E-01  0.24162223855E-01  0.00000000000E+00 0.  1.
     999901    1    3    3    0    0  0.21288992647E-01  0.11072637319E+00  0.21189444300E-01  0.88744720602E+00  0.88000000000E+00 0. -1.
        -11    1    4    4    0    0 -0.16312041253E-01 -0.52362718468E-01 -0.24846940935E-01  0.60212694426E-01  0.51100000000E-03 0.  1.
         11    1    4    4    0    0 -0.23243992284E-01 -0.67640628311E-01 -0.91513299998E-02  0.72107875696E-01  0.51100000000E-03 0. -1.
</event>
<event>
 8    1  0.1064839E+005  0.1043930E+01  0.7957747E-01            NaN
         13   -1    0    0    0    0  0.00000000000E+00  0.00000000000E+00  0.74505805969E-08  0.10566000000E+00  0.10566000000E+00 0. -1.
     999900   -1    0    0    0    0 -0.00000000000E+00 -0.00000000000E+00 -0.74505805969E-08  0.93827000000E+00  0.93827000000E+00 0.  1.
     999902    2    1    2    0    0  0.22882573071E-01  0.70619625671E-02 -0.10266179603E-03  0.10199822651E+01  0.10197010970E+01 0.  0.
     999903    2    3    3    0    0  0.59039209133E-01 -0.82362541198E-01 -0.80682565610E-01  0.13105191629E+00  0.19892510192E-01 0.  0.
         14    1    1    2    0    0 -0.22882573071E-01 -0.70619625671E-02  0.10266179603E-03  0.23947734864E-01  0.00000000000E+00 0.  1.
     999901    1    3    3    0    0 -0.36156636062E-01  0.89424503765E-01  0.80579903814E-01  0.88893034885E+00  0.88000000000E+00 0. -1.
        -11    1    4    4    0    0  0.25214785391E-01 -0.47923907010E-01 -0.50958489466E-01  0.74360708947E-01  0.51100000000E-03 0.  1.
         11    1    4    4    0    0  0.33824423742E-01 -0.34438634188E-01 -0.29724076144E-01  0.56691207341E-01  0.51100000000E-03 0. -1.
</event>
<event>
 8    1  0.1064839E+005  0.1043930E+01  0.7957747E-01            NaN
         13   -1    0    0    0    0  0.00000000000E+00  0.00000000000E+00  0.74505805969E-08  0.10566000000E+00  0.10566000000E+00 0. -1.
     999900   -1    0    0    0    0 -0.00000000000E+00 -0.00000000000E+00 -0.74505805969E-08  0.93827000000E+00  0.93827000000E+00 0. -1.
     999902    2    1    2    0    0 -0.20672969176E-01  0.14468801874E-02 -0.11795091029E-01  0.10200848896E+01  0.10198061545E+01 0.  0.
     999903    2    3    3    0    0 -0.48137101053E-01 -0.11855842202E+00  0.19380593272E-01  0.13096876987E+00  0.20098043593E-01 0.  0.
         14    1    1    2    0    0  0.20672969176E-01 -0.14468801874E-02  0.11795091029E-01  0.23845110384E-01  0.00000000000E+00 0. -1.
     999901    1    3    3    0    0  0.27464131877E-01  0.12000530221E+00 -0.31175684301E-01  0.88911611974E+00  0.88000000000E+00 0. -1.
        -11    1    4    4    0    0 -0.47204310151E-01 -0.10277257066E+00  0.12744638917E-01  0.11381184085E+00  0.51100000000E-03 0.  1.
         11    1    4    4    0    0 -0.93279090245E-03 -0.15785851364E-01  0.66359543550E-02  0.17156929019E-01  0.51100000000E-03 0. -1.
</event>
<event>
 8    1  0.1064839E+005  0.1043930E+01  0.7957747E-01            NaN
         13   -1    0    0    0    0  0.00000000000E+00  0.00000000000E+00  0.74505805969E-08  0.10566000000E+00  0.10566000000E+00 0.  1.
     999900   -1    0    0    0    0 -0.00000000000E+00 -0.00000000000E+00 -0.74505805969E-08  0.93827000000E+00  0.93827000000E+00 0. -1.
     999902    2    1    2    0    0 -0.29222826797E-02 -0.23274451583E-01  0.59724278638E-03  0.10204652066E+01  0.10201953937E+01 0.  0.
     999903    2    3    3    0    0  0.88602233502E-01 -0.95390638488E-01 -0.13043601601E-01  0.13267944743E+00  0.21999330300E-01 0.  0.
         14    1    1    2    0    0  0.29222826797E-02  0.23274451583E-01 -0.59724278638E-03  0.23464793446E-01  0.00000000000E+00 0.  1.
     999901    1    3    3    0    0 -0.91524516181E-01  0.72116186905E-01  0.13640844387E-01  0.88778575913E+00  0.88000000000E+00 0. -1.
        -11    1    4    4    0    0  0.46370665349E-01 -0.39818626228E-01 -0.14677234803E-01  0.62860511787E-01  0.51100000000E-03 0.  1.
         11    1    4    4    0    0  0.42231568153E-01 -0.55572012260E-01  0.16336332022E-02  0.69818935638E-01  0.51100000000E-03 0. -1.
</event>
<event>
 8    1  0.1554161E+005  0.1043930E+01  0.7957747E-01            NaN
         13   -1    0    0    0    0  0.00000000000E+00  0.00000000000E+00  0.74505805969E-08  0.10566000000E+00  0.10566000000E+00 0. -1.
     999900   -1    0    0    0    0 -0.00000000000E+00 -0.00000000000E+00 -0.74505805969E-08  0.93827000000E+00  0.93827000000E+00 0.  1.
     999902    2    1    2    0    0 -0.18203813829E-01  0.73362569976E-02  0.13121166826E-01  0.10203214311E+01  0.10200482627E+01 0.  0.
     999903    2    3    3    0    0 -0.73148124724E-01  0.10885778515E+00  0.26054215591E-02  0.13272012488E+00  0.20178646816E-01 0.  0.
         14    1    1    2    0    0  0.18203813829E-01 -0.73362569976E-02 -0.13121166826E-01  0.23608568858E-01  0.00000000000E+00 0.  1.
     999901    1    3    3    0    0  0.54944310896E-01 -0.10152152816E+00  0.10515745267E-01  0.88760130626E+00  0.88000000000E+00 0.  1.
        -11    1    4    4    0    0 -0.45977416037E-01  0.55267312789E-01  0.82662817753E-02  0.72367058693E-01  0.51100000000E-03 0. -1.
         11    1    4    4    0    0 -0.27170708687E-01  0.53590472365E-01 -0.56608602162E-02  0.60353066188E-01  0.51100000000E-03 0.  1.
</event>
<event>
 8    1  0.1064839E+005  0.1043930E+01  0.7957747E-01            NaN
         13   -1    0    0    0    0  0.00000000000E+00  0.00000000000E+00  0.74505805969E-08  0.10566000000E+00  0.10566000000E+00 0. -1.
     999900   -1    0    0    0    0 -0.00000000000E+00 -0.00000000000E+00 -0.74505805969E-08  0.93827000000E+00  0.93827000000E+00 0.  1.
     999902    2    1    2    0    0  0.23685674383E-01  0.25221878513E-03  0.11341876424E-01  0.10176676135E+01  0.10173286876E+01 0.  0.
     999903    2    3    3    0    0  0.25033152945E-01 -0.41803338074E-01  0.11905233661E+00  0.13010238838E+00  0.19467788507E-01 0.  0.
         14    1    1    2    0    0 -0.23685674383E-01 -0.25221878513E-03 -0.11341876424E-01  0.26262386527E-01  0.00000000000E+00 0.  1.
     999901    1    3    3    0    0 -0.13474785626E-02  0.42055556860E-01 -0.10771046019E+00  0.88756522509E+00  0.88000000000E+00 0.  1.
        -11    1    4    4    0    0  0.16915175894E-01 -0.37849537840E-01  0.81052119291E-01  0.91040748309E-01  0.51100000000E-03 0. -1.
         11    1    4    4    0    0  0.81179770507E-02 -0.39538002346E-02  0.38000217319E-01  0.39061640071E-01  0.51100000000E-03 0.  1.
</event>
<event>
 8    1  0.1064839E+005  0.1043930E+01  0.7957747E-01            NaN
         13   -1    0    0    0    0  0.00000000000E+00  0.00000000000E+00  0.74505805969E-08  0.10566000000E+00  0.10566000000E+00 0. -1.
     999900   -1    0    0    0    0 -0.00000000000E+00 -0.00000000000E+00 -0.74505805969E-08  0.93827000000E+00  0.93827000000E+00 0.  1.
     999902    2    1    2    0    0 -0.14363724484E-01  0.52073356478E-02 -0.19775847387E-01  0.10189396606E+01  0.10186331601E+01 0.  0.
     999903    2    3    3    0    0  0.20857145239E-01  0.10666670925E+00  0.65219415975E-01  0.12834507886E+00  0.20151418763E-01 0.  0.
         14    1    1    2    0    0  0.14363724484E-01 -0.52073356478E-02  0.19775847387E-01  0.24990339443E-01  0.00000000000E+00 0. -1.
     999901    1    3    3    0    0 -0.35220869723E-01 -0.10145937360E+00 -0.84995263362E-01  0.89059458170E+00  0.88000000000E+00 0.  1.
        -11    1    4    4    0    0  0.11670130439E-01  0.45781421884E-01  0.17285446462E-01  0.50310817073E-01  0.51100000000E-03 0. -1.
         11    1    4    4    0    0  0.91870148002E-02  0.60885287363E-01  0.47933969513E-01  0.78034261786E-01  0.51100000000E-03 0.  1.
</event>
<event>
 8    1  0.1064839E+005  0.1043930E+01  0.7957747E-01            NaN
         13   -1    0    0    0    0  0.00000000000E+00  0.00000000000E+00  0.74505805969E-08  0.10566000000E+00  0.10566000000E+00 0. -1.
     999900   -1    0    0    0    0 -0.00000000000E+00 -0.00000000000E+00 -0.74505805969E-08  0.93827000000E+00  0.93827000000E+00 0. -1.
     999902    2    1    2    0    0 -0.15066365881E-01  0.17978688079E-01  0.47398488996E-03  0.10204682595E+01  0.10201985176E+01 0.  0.
     999903    2    3    3    0    0 -0.10993454969E+00  0.46928948831E-02 -0.70888123082E-01  0.13239785966E+00  0.19910770259E-01 0.  0.
         14    1    1    2    0    0  0.15066365881E-01 -0.17978688079E-01 -0.47398488996E-03  0.23461740506E-01  0.00000000000E+00 0.  1.
     999901    1    3    3    0    0  0.94868183806E-01  0.13285793196E-01  0.71362107972E-01  0.88807039983E+00  0.88000000000E+00 0. -1.
        -11    1    4    4    0    0 -0.31016932824E-01 -0.74686570887E-02 -0.18245582961E-01  0.36755861834E-01  0.51100000000E-03 0. -1.
         11    1    4    4    0    0 -0.78917616863E-01  0.12161551972E-01 -0.52642540120E-01  0.95641997830E-01  0.51100000000E-03 0.  1.
</event>
<event>
 8    1  0.1064839E+005  0.1043930E+01  0.7957747E-01            NaN
         13   -1    0    0    0    0  0.00000000000E+00  0.00000000000E+00  0.74505805969E-08  0.10566000000E+00  0.10566000000E+00 0.  1.
     999900   -1    0    0    0    0 -0.00000000000E+00 -0.00000000000E+00 -0.74505805969E-08  0.93827000000E+00  0.93827000000E+00 0.  1.
     999902    2    1    2    0    0 -0.12541608993E-01 -0.19347126739E-01  0.35502085711E-02  0.10206017500E+01  0.10203351042E+01 0.  0.
     999903    2    3    3    0    0 -0.35452507975E-01  0.51161886315E-01  0.11305923580E+00  0.13072048975E+00  0.20761423593E-01 0.  0.
         14    1    1    2    0    0  0.12541608993E-01  0.19347126739E-01 -0.35502085711E-02  0.23328250043E-01  0.00000000000E+00 0. -1.
     999901    1    3    3    0    0  0.22910898982E-01 -0.70509013055E-01 -0.10950902723E+00  0.88988126020E+00  0.88000000000E+00 0.  1.
        -11    1    4    4    0    0 -0.22920405198E-01  0.44229177191E-01  0.74858518687E-01  0.89920098034E-01  0.51100000000E-03 0.  1.
         11    1    4    4    0    0 -0.12532102776E-01  0.69327091240E-02  0.38200717111E-01  0.40800391721E-01  0.51100000000E-03 0. -1.
</event>
<event>
 8    1  0.1064839E+005  0.1043930E+01  0.7957747E-01            NaN
         13   -1    0    0    0    0  0.00000000000E+00  0.00000000000E+00  0.74505805969E-08  0.10566000000E+00  0.10566000000E+00 0.  1.
     999900   -1    0    0    0    0 -0.00000000000E+00 -0.00000000000E+00 -0.74505805969E-08  0.93827000000E+00  0.93827000000E+00 0. -1.
     999902    2    1    2    0    0 -0.18085441480E-01  0.10474959981E-01  0.11083556079E-01  0.10202730096E+01  0.10199987063E+01 0.  0.
     999903    2    3    3    0    0  0.18997061173E-01  0.12485027012E+00 -0.29301238426E-01  0.13117922646E+00  0.20023700879E-01 0.  0.
         14    1    1    2    0    0  0.18085441480E-01 -0.10474959981E-01 -0.11083556079E-01  0.23656990415E-01  0.00000000000E+00 0. -1.
     999901    1    3    3    0    0 -0.37082502653E-01 -0.11437531014E+00  0.40384794505E-01  0.88909378313E+00  0.88000000000E+00 0.  1.
        -11    1    4    4    0    0  0.65657584409E-03  0.31982506080E-01 -0.15380272700E-01  0.35498249201E-01  0.51100000000E-03 0.  1.
         11    1    4    4    0    0  0.18340485329E-01  0.92867764044E-01 -0.13920965725E-01  0.95680977254E-01  0.51100000000E-03 0. -1.
</event>
<event>
 8    1  0.1064839E+005  0.1043930E+01  0.7957747E-01            NaN
         13   -1    0    0    0    0  0.00000000000E+00  0.00000000000E+00  0.74505805969E-08  0.10566000000E+00  0.10566000000E+00 0.  1.
     999900   -1    0    0    0    0 -0.00000000000E+00 -0.00000000000E+00 -0.74505805969E-08  0.93827000000E+00  0.93827000000E+00 0. -1.
     999902    2    1    2    0    0  0.54266058068E-02 -0.13632688964E-02 -0.22510733195E-01  0.10207343180E+01  0.10204707288E+01 0.  0.
     999903    2    3    3    0    0  0.72330156861E-01  0.26580650115E-01 -0.10716671302E+00  0.13370355044E+00  0.21301466322E-01 0.  0.
         14    1    1    2    0    0 -0.54266058068E-02  0.13632688964E-02  0.22510733195E-01  0.23195681961E-01  0.00000000000E+00 0.  1.
     999901    1    3    3    0    0 -0.66903551054E-01 -0.27943919011E-01  0.84655979826E-01  0.88703076760E+00  0.88000000000E+00 0. -1.
        -11    1    4    4    0    0  0.31510992714E-01  0.20761288682E-01 -0.61670089795E-01  0.72301001832E-01  0.51100000000E-03 0. -1.
         11    1    4    4    0    0  0.40819164147E-01  0.58193614324E-02 -0.45496623226E-01  0.61402548604E-01  0.51100000000E-03 0.  1.
</event>
<event>
 8    1  0.1064839E+005  0.1043930E+01  0.7957747E-01            NaN
         13   -1    0    0    0    0  0.00000000000E+00  0.00000000000E+00  0.74505805969E-08  0.10566000000E+00  0.10566000000E+00 0.  1.
     999900   -1    0    0    0    0 -0.00000000000E+00 -0.00000000000E+00 -0.74505805969E-08  0.93827000000E+00  0.93827000000E+00 0.  1.
     999902    2    1    2    0    0 -0.10349509885E-01 -0.21151994360E-01 -0.11041234455E-02  0.10203558975E+01  0.10200835354E+01 0.  0.
     999903    2    3    3    0    0  0.10637302592E+00  0.57783184726E-02 -0.70861056903E-01  0.12950494370E+00  0.20040744722E-01 0.  0.
         14    1    1    2    0    0  0.10349509885E-01  0.21151994360E-01  0.11041234455E-02  0.23574102504E-01  0.00000000000E+00 0. -1.
     999901    1    3    3    0    0 -0.11672253581E+00 -0.26930312833E-01  0.69756933458E-01  0.89085095380E+00  0.88000000000E+00 0. -1.
        -11    1    4    4    0    0  0.68373265037E-01  0.90998267020E-02 -0.35905448795E-01  0.77763568540E-01  0.51100000000E-03 0.  1.
         11    1    4    4    0    0  0.37999760885E-01 -0.33215082294E-02 -0.34955608108E-01  0.51741375160E-01  0.51100000000E-03 0. -1.
</event>
<event>
 8    1  0.1064839E+005  0.1043930E+01  0.7957747E-01            NaN
         13   -1    0    0    0    0  0.00000000000E+00  0.00000000000E+00  0.74505805969E-08  0.10566000000E+00  0.10566000000E+00 0. -1.
     999900   -1    0    0    0    0 -0.00000000000E+00 -0.00000000000E+00 -0.74505805969E-08  0.93827000000E+00  0.93827000000E+00 0.  1.
     999902    2    1    2    0    0 -0.60684990371E-02  0.11643361723E-03 -0.22996694950E-01  0.10201457990E+01  0.10198685028E+01 0.  0.
     999903    2    3    3    0    0  0.11733074257E+00  0.50976763991E-01  0.58656668381E-02  0.12961383331E+00  0.20005152293E-01 0.  0.
         14    1    1    2    0    0  0.60684990371E-02 -0.11643361723E-03  0.22996694950E-01  0.23784200974E-01  0.00000000000E+00 0. -1.
     999901    1    3    3    0    0 -0.12339924161E+00 -0.50860330374E-01 -0.28862361788E-01  0.89053196572E+00  0.88000000000E+00 0. -1.
        -11    1    4    4    0    0  0.59079645676E-01  0.32688726109E-01 -0.45505203067E-02  0.67675148348E-01  0.51100000000E-03 0. -1.
         11    1    4    4    0    0  0.58251096896E-01  0.18288037882E-01  0.10416187145E-01  0.61938684962E-01  0.51100000000E-03 0.  1.
</event>
<event>
 8    1  0.1064839E+005  0.1043930E+01  0.7957747E-01            NaN
         13   -1    0    0    0    0  0.00000000000E+00  0.00000000000E+00  0.74505805969E-08  0.10566000000E+00  0.10566000000E+00 0. -1.
     999900   -1    0    0    0    0 -0.00000000000E+00 -0.00000000000E+00 -0.74505805969E-08  0.93827000000E+00  0.93827000000E+00 0.  1.
     999902    2    1    2    0    0 -0.23932849192E-01  0.18661684973E-02 -0.98050823253E-02  0.10179992558E+01  0.10176689449E+01 0.  0.
     999903    2    3    3    0    0  0.81047543946E-01 -0.53183353233E-01 -0.80326383851E-01  0.12725541678E+00  0.18559087164E-01 0.  0.
         14    1    1    2    0    0  0.23932849192E-01 -0.18661684973E-02  0.98050823253E-02  0.25930744199E-01  0.00000000000E+00 0. -1.
     999901    1    3    3    0    0 -0.10498039314E+00  0.55049521731E-01  0.70521301525E-01  0.89074383902E+00  0.88000000000E+00 0. -1.
        -11    1    4    4    0    0  0.23451773763E-01 -0.81888338533E-02 -0.13787220261E-01  0.28414631021E-01  0.51100000000E-03 0. -1.
         11    1    4    4    0    0  0.57595770182E-01 -0.44994519380E-01 -0.66539163590E-01  0.98840785758E-01  0.51100000000E-03 0.  1.
</event>
<event>
 8    1  0.1064839E+005  0.1043930E+01  0.7957747E-01            NaN
         13   -1    0    0    0    0  0.00000000000E+00  0.00000000000E+00  0.74505805969E-08  0.10566000000E+00  0.10566000000E+00 0. -1.
     999900   -1    0    0    0    0 -0.00000000000E+00 -0.00000000000E+00 -0.74505805969E-08  0.93827000000E+00  0.93827000000E+00 0. -1.
     999902    2    1    2    0    0 -0.23471282950E-01 -0.68049659690E-02 -0.88231722310E-02  0.10179481399E+01  0.10176165086E+01 0.  0.
     999903    2    3    3    0    0  0.28123283294E-02  0.12304052969E+00 -0.28288881359E-01  0.12781916342E+00  0.19763516697E-01 0.  0.
         14    1    1    2    0    0  0.23471282950E-01  0.68049659690E-02  0.88231722310E-02  0.25981860083E-01  0.00000000000E+00 0. -1.
     999901    1    3    3    0    0 -0.26283611280E-01 -0.12984549566E+00  0.19465709128E-01  0.89012897650E+00  0.88000000000E+00 0. -1.
        -11    1    4    4    0    0 -0.84327162715E-02  0.44405721614E-01 -0.11068467524E-01  0.46537628969E-01  0.51100000000E-03 0. -1.
         11    1    4    4    0    0  0.11245044601E-01  0.78634808076E-01 -0.17220413835E-01  0.81281534452E-01  0.51100000000E-03 0.  1.
</event>
<event>
 8    1  0.1064839E+005  0.1043930E+01  0.7957747E-01            NaN
         13   -1    0    0    0    0  0.00000000000E+00  0.00000000000E+00  0.74505805969E-08  0.10566000000E+00  0.10566000000E+00 0.  1.
     999900   -1    0    0    0    0 -0.00000000000E+00 -0.00000000000E+00 -0.74505805969E-08  0.93827000000E+00  0.93827000000E+00 0. -1.
     999902    2    1    2    0    0 -0.19563741708E-01  0.13859879884E-01 -0.43860906275E-02  0.10195563657E+01  0.10192649845E+01 0.  0.
     999903    2    3    3    0    0 -0.61816132359E-01  0.93641532799E-02 -0.11482392201E+00  0.13163632947E+00  0.15318896264E-01 0.  0.
         14    1    1    2    0    0  0.19563741708E-01 -0.13859879884E-01  0.43860906275E-02  0.24373634341E-01  0.00000000000E+00 0.  1.
     999901    1    3    3    0    0  0.42252390651E-01  0.44957266040E-02  0.11043783138E+00  0.88792003619E+00  0.88000000000E+00 0.  1.
        -11    1    4    4    0    0 -0.79557949893E-02  0.67465744726E-02 -0.18846856843E-01  0.21547066503E-01  0.51100000000E-03 0. -1.
         11    1    4    4    0    0 -0.53860337370E-01  0.26175788073E-02 -0.95977065167E-01  0.11008926296E+00  0.51100000000E-03 0.  1.
</event>
<event>
 8    1  0.1064839E+005  0.1043930E+01  0.7957747E-01            NaN
         13   -1    0    0    0    0  0.00000000000E+00  0.00000000000E+00  0.74505805969E-08  0.10566000000E+00  0.10566000000E+00 0. -1.
     999900   -1    0    0    0    0 -0.00000000000E+00 -0.00000000000E+00 -0.74505805969E-08  0.93827000000E+00  0.93827000000E+00 0.  1.
     999902    2    1    2    0    0  0.80507180546E-02  0.89885669851E-04 -0.22046156226E-01  0.10204596965E+01  0.10201897554E+01 0.  0.
     999903    2    3    3    0    0 -0.51212074593E-01  0.78774025504E-01  0.85260684614E-01  0.12848546453E+00  0.20275763305E-01 0.  0.
         14    1    1    2    0    0 -0.80507180546E-02 -0.89885669851E-04  0.22046156226E-01  0.23470303470E-01  0.00000000000E+00 0. -1.
     999901    1    3    3    0    0  0.59262792647E-01 -0.78684139834E-01 -0.10730684084E+00  0.89197423200E+00  0.88000000000E+00 0.  1.
        -11    1    4    4    0    0 -0.27486956828E-01  0.57002234585E-01  0.63273729318E-01  0.89490856998E-01  0.51100000000E-03 0. -1.
         11    1    4    4    0    0 -0.23725117765E-01  0.21771790918E-01  0.21986955296E-01  0.38994607537E-01  0.51100000000E-03 0.  1.
</event>
<event>
 8    1  0.1064839E+005  0.1043930E+01  0.7957747E-01            NaN
         13   -1    0    0    0    0  0.00000000000E+00  0.00000000000E+00  0.74505805969E-08  0.10566000000E+00  0.10566000000E+00 0.  1.
     999900   -1    0    0    0    0 -0.00000000000E+00 -0.00000000000E+00 -0.74505805969E-08  0.93827000000E+00  0.93827000000E+00 0.  1.
     999902    2    1    2    0    0 -0.20728494789E-01  0.10838068880E-01 -0.50946751843E-02  0.10199907028E+01  0.10197097351E+01 0.  0.
     999903    2    3    3    0    0  0.62966231854E-01  0.11174096472E+00 -0.86494886266E-02  0.13027229888E+00  0.21101389770E-01 0.  0.
         14    1    1    2    0    0  0.20728494789E-01 -0.10838068880E-01  0.50946751843E-02  0.23939297159E-01  0.00000000000E+00 0.  1.
     999901    1    3    3    0    0 -0.83694726642E-01 -0.10090289584E+00  0.35548134423E-02  0.88971840397E+00  0.88000000000E+00 0. -1.
        -11    1    4    4    0    0  0.45322635815E-01  0.60128096116E-01 -0.20395882122E-02  0.75325628446E-01  0.51100000000E-03 0.  1.
         11    1    4    4    0    0  0.17643596039E-01  0.51612868604E-01 -0.66099004143E-02  0.54946670429E-01  0.51100000000E-03 0. -1.
</event>
<event>
 8    1  0.1064839E+005  0.1043930E+01  0.7957747E-01            NaN
         13   -1    0    0    0    0  0.00000000000E+00  0.00000000000E+00  0.74505805969E-08  0.10566000000E+00  0.10566000000E+00 0.  1.
     999900   -1    0    0    0    0 -0.00000000000E+00 -0.00000000000E+00 -0.74505805969E-08  0.93827000000E+00  0.93827000000E+00 0. -1.
     999902    2    1    2    0    0  0.67327894539E-02 -0.15050193486E-01 -0.17012228487E-01  0.10202391854E+01  0.10199640880E+01 0.  0.
     999903    2    3    3    0    0  0.25378612356E-01  0.12347213991E+00  0.15970600072E-01  0.12859801849E+00  0.19822890669E-01 0.  0.
         14    1    1    2    0    0 -0.67327894539E-02  0.15050193486E-01  0.17012228487E-01  0.23690814589E-01  0.00000000000E+00 0.  1.
     999901    1    3    3    0    0 -0.18645822902E-01 -0.13852233340E+00 -0.32982828560E-01  0.89164116692E+00  0.88000000000E+00 0.  1.
        -11    1    4    4    0    0  0.13508692759E-01  0.79492417278E-01  0.19329353984E-01  0.82918117630E-01  0.51100000000E-03 0.  1.
         11    1    4    4    0    0  0.11869919597E-01  0.43979722633E-01 -0.33587539119E-02  0.45679900864E-01  0.51100000000E-03 0. -1.
</event>
<event>
 8    1  0.1064839E+005  0.1043930E+01  0.7957747E-01            NaN
         13   -1    0    0    0    0  0.00000000000E+00  0.00000000000E+00  0.74505805969E-08  0.10566000000E+00  0.10566000000E+00 0. -1.
     999900   -1    0    0    0    0 -0.00000000000E+00 -0.00000000000E+00 -0.74505805969E-08  0.93827000000E+00  0.93827000000E+00 0.  1.
     999902    2    1    2    0    0 -0.55280430709E-02 -0.22508539872E-01 -0.67805803792E-02  0.10197810891E+01  0.10194951200E+01 0.  0.
     999903    2    3    3    0    0 -0.18938931038E-01 -0.11328397617E+00 -0.64247224801E-01  0.13314562456E+00  0.20201709830E-01 0.  0.
         14    1    1    2    0    0  0.55280430709E-02  0.22508539872E-01  0.67805803792E-02  0.24148910899E-01  0.00000000000E+00 0. -1.
     999901    1    3    3    0    0  0.13410887968E-01  0.90775436300E-01  0.57466644422E-01  0.88663546454E+00  0.88000000000E+00 0. -1.
        -11    1    4    4    0    0 -0.69744465809E-02 -0.86629377097E-02 -0.40324024425E-02  0.11841063522E-01  0.51100000000E-03 0.  1.
         11    1    4    4    0    0 -0.11964484458E-01 -0.10462103846E+00 -0.60214822358E-01  0.12130456104E+00  0.51100000000E-03 0. -1.
</event>
<event>
 8    1  0.1064839E+005  0.1043930E+01  0.7957747E-01            NaN
         13   -1    0    0    0    0  0.00000000000E+00  0.00000000000E+00  0.74505805969E-08  0.10566000000E+00  0.10566000000E+00 0.  1.
     999900   -1    0    0    0    0 -0.00000000000E+00 -0.00000000000E+00 -0.74505805969E-08  0.93827000000E+00  0.93827000000E+00 0. -1.
     999902    2    1    2    0    0 -0.97353644933E-03 -0.15286858829E-01  0.16808856810E-01  0.10211885512E+01  0.10209352984E+01 0.  0.
     999903    2    3    3    0    0 -0.92433837010E-01  0.72957381724E-01 -0.49947689276E-01  0.12955607702E+00  0.20572108719E-01 0.  0.
         14    1    1    2    0    0  0.97353644933E-03  0.15286858829E-01 -0.16808856810E-01  0.22741448796E-01  0.00000000000E+00 0. -1.
     999901    1    3    3    0    0  0.91460300560E-01 -0.88244240553E-01  0.66756546086E-01  0.89163247418E+00  0.88000000000E+00 0.  1.
        -11    1    4    4    0    0 -0.11166308197E-01  0.21792372623E-02 -0.18375995006E-02  0.11535744741E-01  0.51100000000E-03 0.  1.
         11    1    4    4    0    0 -0.81267528813E-01  0.70778144462E-01 -0.48110089775E-01  0.11802033228E+00  0.51100000000E-03 0. -1.
</event>
<event>
 8    1  0.1064839E+005  0.1043930E+01  0.7957747E-01            NaN
         13   -1    0    0    0    0  0.00000000000E+00  0.00000000000E+00  0.74505805969E-08  0.10566000000E+00  0.10566000000E+00 0.  1.
     999900   -1    0    0    0    0 -0.00000000000E+00 -0.00000000000E+00 -0.74505805969E-08  0.93827000000E+00  0.93827000000E+00 0.  1.
     999902    2    1    2    0    0  0.16629142989E-01  0.45275895744E-02 -0.17177834366E-01  0.10195967828E+01  0.10193063789E+01 0.  0.
     999903    2    3    3    0    0  0.87944162958E-01  0.30190427891E-01  0.88767033310E-01  0.13000770448E+00  0.19410803376E-01 0.  0.
         14    1    1    2    0    0 -0.16629142989E-01 -0.45275895744E-02  0.17177834366E-01  0.24333217161E-01  0.00000000000E+00 0.  1.
     999901    1    3    3    0    0 -0.71315019969E-01 -0.25662838317E-01 -0.10594486768E+00  0.88958907836E+00  0.88000000000E+00 0. -1.
        -11    1    4    4    0    0  0.59451338556E-01  0.29507590817E-01  0.64892760829E-01  0.92825056428E-01  0.51100000000E-03 0.  1.
         11    1    4    4    0    0  0.28492824402E-01  0.68283707418E-03  0.23874272481E-01  0.37182648055E-01  0.51100000000E-03 0. -1.
</event>
<event>
 8    1  0.1067054E+005  0.1043930E+01  0.7957747E-01            NaN
         13   -1    0    0    0    0  0.00000000000E+00  0.00000000000E+00  0.74505805969E-08  0.10566000000E+00  0.10566000000E+00 0.  1.
     999900   -1    0    0    0    0 -0.00000000000E+00 -0.00000000000E+00 -0.74505805969E-08  0.93827000000E+00  0.93827000000E+00 0.  1.
     999902    2    1    2    0    0  0.17609519896E-01  0.65287302263E-02 -0.15814118531E-01  0.10193778951E+01  0.10190821788E+01 0.  0.
     999903    2    3    3    0    0  0.96580082616E-01 -0.44029656158E-01  0.72059795170E-01  0.13004425417E+00  0.21273715774E-01 0.  0.
         14    1    1    2    0    0 -0.17609519896E-01 -0.65287302263E-02  0.15814118531E-01  0.24552104884E-01  0.00000000000E+00 0. -1.
     999901    1    3    3    0    0 -0.78970562720E-01  0.50558386384E-01 -0.87873913701E-01  0.88933364095E+00  0.88000000000E+00 0. -1.
        -11    1    4    4    0    0  0.47432929891E-01 -0.32886034940E-01  0.41718048873E-01  0.71218191882E-01  0.51100000000E-03 0. -1.
         11    1    4    4    0    0  0.49147152726E-01 -0.11143621217E-01  0.30341746297E-01  0.58826062287E-01  0.51100000000E-03 0.  1.
</event>
<event>
 8    1  0.1064839E+005  0.1043930E+01  0.7957747E-01            NaN
         13   -1    0    0    0    0  0.00000000000E+00  0.00000000000E+00  0.74505805969E-08  0.10566000000E+00  0.10566000000E+00 0. -1.
     999900   -1    0    0    0    0 -0.00000000000E+00 -0.00000000000E+00 -0.74505805969E-08  0.93827000000E+00  0.93827000000E+00 0.  1.
     999902    2    1    2    0    0 -0.75584507154E-02 -0.20721867155E-01 -0.76441456039E-02  0.10205856448E+01  0.10203186265E+01 0.  0.
     999903    2    3    3    0    0  0.10448491096E+00  0.71098064369E-01 -0.13950893171E-01  0.12871996562E+00  0.20054195389E-01 0.  0.
         14    1    1    2    0    0  0.75584507154E-02  0.20721867155E-01  0.76441456039E-02  0.23344355155E-01  0.00000000000E+00 0. -1.
     999901    1    3    3    0    0 -0.11204336168E+00 -0.91819931524E-01  0.63067475674E-02  0.89186567923E+00  0.88000000000E+00 0. -1.
        -11    1    4    4    0    0  0.33232989530E-01  0.29929245250E-01 -0.12399532396E-01  0.46413369183E-01  0.51100000000E-03 0.  1.
         11    1    4    4    0    0  0.71251921430E-01  0.41168819120E-01 -0.15513607753E-02  0.82306596433E-01  0.51100000000E-03 0. -1.
</event>
<event>
 8    1  0.1064839E+005  0.1043930E+01  0.7957747E-01            NaN
         13   -1    0    0    0    0  0.00000000000E+00  0.00000000000E+00  0.74505805969E-08  0.10566000000E+00  0.10566000000E+00 0. -1.
     999900   -1    0    0    0    0 -0.00000000000E+00 -0.00000000000E+00 -0.74505805969E-08  0.93827000000E+00  0.93827000000E+00 0. -1.
     999902    2    1    2    0    0  0.18579082347E-02  0.11524393757E-01 -0.16684793429E-01  0.10235671464E+01  0.10233645770E+01 0.  0.
     999903    2    3    3    0    0 -0.42998738098E-01  0.16315430962E-01  0.12185662305E+00  0.13158687934E+00  0.18734606186E-01 0.  0.
         14    1    1    2    0    0 -0.18579082347E-02 -0.11524393757E-01  0.16684793429E-01  0.20362853588E-01  0.00000000000E+00 0. -1.
     999901    1    3    3    0    0  0.44856646333E-01 -0.47910372042E-02 -0.13854141648E+00  0.89198026707E+00  0.88000000000E+00 0. -1.
        -11    1    4    4    0    0 -0.24660929079E-01  0.44804482146E-02  0.86257925162E-01  0.89827204195E-01  0.51100000000E-03 0. -1.
         11    1    4    4    0    0 -0.18337809019E-01  0.11834982747E-01  0.35598697888E-01  0.41759675149E-01  0.51100000000E-03 0.  1.
</event>
<event>
 8    1  0.1064839E+005  0.1043930E+01  0.7957747E-01            NaN
         13   -1    0    0    0    0  0.00000000000E+00  0.00000000000E+00  0.74505805969E-08  0.10566000000E+00  0.10566000000E+00 0.  1.
     999900   -1    0    0    0    0 -0.00000000000E+00 -0.00000000000E+00 -0.74505805969E-08  0.93827000000E+00  0.93827000000E+00 0. -1.
     999902    2    1    2    0    0 -0.16478849010E-01  0.17587132977E-01 -0.11583234426E-02  0.10198011495E+01  0.10195156611E+01 0.  0.
     999903    2    3    3    0    0  0.74469003600E-01 -0.70268644895E-01 -0.74124745754E-01  0.12777298385E+00  0.18658577585E-01 0.  0.
         14    1    1    2    0    0  0.16478849010E-01 -0.17587132977E-01  0.11583234426E-02  0.24128850455E-01  0.00000000000E+00 0.  1.
     999901    1    3    3    0    0 -0.90947852611E-01  0.87855777873E-01  0.72966422311E-01  0.89202816569E+00  0.88000000000E+00 0.  1.
        -11    1    4    4    0    0  0.59276583280E-01 -0.45182066151E-01 -0.49499009603E-01  0.89473714015E-01  0.51100000000E-03 0.  1.
         11    1    4    4    0    0  0.15192420321E-01 -0.25086578744E-01 -0.24625736151E-01  0.38299269840E-01  0.51100000000E-03 0. -1.
</event>
<event>
 8    1  0.1064839E+005  0.1043930E+01  0.7957747E-01            NaN
         13   -1    0    0    0    0  0.00000000000E+00  0.00000000000E+00  0.74505805969E-08  0.10566000000E+00  0.10566000000E+00 0.  1.
     999900   -1    0    0    0    0 -0.00000000000E+00 -0.00000000000E+00 -0.74505805969E-08  0.93827000000E+00  0.93827000000E+00 0. -1.
     999902    2    1    2    0    0 -0.64418027241E-02 -0.22212491098E-01 -0.54658991396E-02  0.10201651597E+01  0.10198883200E+01 0.  0.
     999903    2    3    3    0    0 -0.10148040755E+00  0.44830210408E-01  0.64065898820E-01  0.12979347819E+00  0.20829947339E-01 0.  0.
         14    1    1    2    0    0  0.64418027241E-02  0.22212491098E-01  0.54658991396E-02  0.23764840343E-01  0.00000000000E+00 0. -1.
     999901    1    3    3    0    0  0.95038604830E-01 -0.67042701506E-01 -0.69531797960E-01  0.89037168147E+00  0.88000000000E+00 0. -1.
        -11    1    4    4    0    0 -0.86029336290E-01  0.45368033268E-01  0.52900825158E-01  0.11071613960E+00  0.51100000000E-03 0. -1.
         11    1    4    4    0    0 -0.15451071264E-01 -0.53782286080E-03  0.11165073663E-01  0.19077338586E-01  0.51100000000E-03 0.  1.
</event>
<event>
 8    1  0.1064839E+005  0.1043930E+01  0.7957747E-01            NaN
         13   -1    0    0    0    0  0.00000000000E+00  0.00000000000E+00  0.74505805969E-08  0.10566000000E+00  0.10566000000E+00 0.  1.
     999900   -1    0    0    0    0 -0.00000000000E+00 -0.00000000000E+00 -0.74505805969E-08  0.93827000000E+00  0.93827000000E+00 0. -1.
     999902    2    1    2    0    0  0.23411141077E-01 -0.14109748152E-03  0.35020934664E-02  0.10202579470E+01  0.10199832902E+01 0.  0.
     999903    2    3    3    0    0 -0.82985360973E-01 -0.10999304360E-01  0.95944998352E-01  0.12897583286E+00  0.20536989097E-01 0.  0.
         14    1    1    2    0    0 -0.23411141077E-01  0.14109748152E-03 -0.35020934664E-02  0.23672053009E-01  0.00000000000E+00 0.  1.
     999901    1    3    3    0    0  0.10639650205E+00  0.10858206878E-01 -0.92442904886E-01  0.89128211413E+00  0.88000000000E+00 0. -1.
        -11    1    4    4    0    0 -0.35472012205E-01 -0.52666698107E-02  0.26313701564E-01  0.44482282673E-01  0.51100000000E-03 0.  1.
         11    1    4    4    0    0 -0.47513348767E-01 -0.57326345492E-02  0.69631296788E-01  0.84493550188E-01  0.51100000000E-03 0. -1.
</event>
<event>
 8    1  0.1064839E+005  0.1043930E+01  0.7957747E-01            NaN
         13   -1    0    0    0    0  0.00000000000E+00  0.00000000000E+00  0.74505805969E-08  0.10566000000E+00  0.10566000000E+00 0.  1.
     999900   -1    0    0    0    0 -0.00000000000E+00 -0.00000000000E+00 -0.74505805969E-08  0.93827000000E+00  0.93827000000E+00 0.  1.
     999902    2    1    2    0    0 -0.13090249306E-01  0.14630659349E-01 -0.13615281475E-01  0.10200388571E+01  0.10197590320E+01 0.  0.
     999903    2    3    3    0    0  0.71636373237E-01  0.77549922431E-01  0.72732376259E-01  0.12953711525E+00  0.18550073588E-01 0.  0.
         14    1    1    2    0    0  0.13090249306E-01 -0.14630659349E-01  0.13615281475E-01  0.23891142909E-01  0.00000000000E+00 0. -1.
     999901    1    3    3    0    0 -0.84726622542E-01 -0.62919263083E-01 -0.86347657734E-01  0.89050174185E+00  0.88000000000E+00 0.  1.
        -11    1    4    4    0    0  0.63835507769E-01  0.70161335968E-01  0.57615345424E-01  0.11098366666E+00  0.51100000000E-03 0.  1.
         11    1    4    4    0    0  0.78008654678E-02  0.73885864635E-02  0.15117030835E-01  0.18553448581E-01  0.51100000000E-03 0. -1.
</event>
<event>
 8    1  0.1064839E+005  0.1043930E+01  0.7957747E-01            NaN
         13   -1    0    0    0    0  0.00000000000E+00  0.00000000000E+00  0.74505805969E-08  0.10566000000E+00  0.10566000000E+00 0. -1.
     999900   -1    0    0    0    0 -0.00000000000E+00 -0.00000000000E+00 -0.74505805969E-08  0.93827000000E+00  0.93827000000E+00 0.  1.
     999902    2    1    2    0    0  0.13821154162E-01 -0.11362628731E-01  0.15610562262E-01  0.10201850366E+01  0.10199086653E+01 0.  0.
     999903    2    3    3    0    0  0.70416931241E-01  0.95290394896E-01 -0.48281901128E-01  0.12964576382E+00  0.20930325742E-01 0.  0.
         14    1    1    2    0    0 -0.13821154162E-01  0.11362628731E-01 -0.15610562262E-01  0.23744963428E-01  0.00000000000E+00 0.  1.
     999901    1    3    3    0    0 -0.56595777079E-01 -0.10665302363E+00  0.63892463390E-01  0.89053927275E+00  0.88000000000E+00 0.  1.
        -11    1    4    4    0    0  0.58252259712E-01  0.62980440169E-01 -0.34652148884E-01  0.92525100101E-01  0.51100000000E-03 0. -1.
         11    1    4    4    0    0  0.12164671529E-01  0.32309954727E-01 -0.13629752243E-01  0.37120663721E-01  0.51100000000E-03 0.  1.
</event>
<event>
 8    1  0.1159587E+005  0.1043930E+01  0.7957747E-01            NaN
         13   -1    0    0    0    0  0.00000000000E+00  0.00000000000E+00  0.74505805969E-08  0.10566000000E+00  0.10566000000E+00 0. -1.
     999900   -1    0    0    0    0 -0.00000000000E+00 -0.00000000000E+00 -0.74505805969E-08  0.93827000000E+00  0.93827000000E+00 0.  1.
     999902    2    1    2    0    0  0.23670654426E-01 -0.14684140870E-02 -0.13986455184E-02  0.10201726363E+01  0.10198959729E+01 0.  0.
     999903    2    3    3    0    0  0.39360243096E-01  0.60052922347E-01 -0.10751341285E+00  0.13152682278E+00  0.24178274320E-01 0.  0.
         14    1    1    2    0    0 -0.23670654426E-01  0.14684140870E-02  0.13986455184E-02  0.23757363704E-01  0.00000000000E+00 0.  1.
     999901    1    3    3    0    0 -0.15689588670E-01 -0.61521336434E-01  0.10611476733E+00  0.88864581351E+00  0.88000000000E+00 0. -1.
        -11    1    4    4    0    0  0.36545800285E-01  0.35229720885E-01 -0.73161244620E-01  0.89048063355E-01  0.51100000000E-03 0. -1.
         11    1    4    4    0    0  0.28144428113E-02  0.24823201462E-01 -0.34352168232E-01  0.42478759426E-01  0.51100000000E-03 0.  1.
</event>
<event>
 8    1  0.1064839E+005  0.1043930E+01  0.7957747E-01            NaN
         13   -1    0    0    0    0  0.00000000000E+00  0.00000000000E+00  0.74505805969E-08  0.10566000000E+00  0.10566000000E+00 0.  1.
     999900   -1    0    0    0    0 -0.00000000000E+00 -0.00000000000E+00 -0.74505805969E-08  0.93827000000E+00  0.93827000000E+00 0. -1.
     999902    2    1    2    0    0  0.71622335974E-02  0.22376540338E-01 -0.61175831954E-02  0.10196517799E+01  0.10193627030E+01 0.  0.
     999903    2    3    3    0    0 -0.38380425922E-01  0.99360045767E-01 -0.76328875599E-01  0.13233547804E+00  0.18469047333E-01 0.  0.
         14    1    1    2    0    0 -0.71622335974E-02 -0.22376540338E-01  0.61175831954E-02  0.24278220111E-01  0.00000000000E+00 0.  1.
     999901    1    3    3    0    0  0.45542659519E-01 -0.76983505429E-01  0.70211292403E-01  0.88731630185E+00  0.88000000000E+00 0. -1.
        -11    1    4    4    0    0 -0.89190056946E-02  0.89505040248E-02 -0.56276884098E-02  0.13841682799E-01  0.51100000000E-03 0.  1.
         11    1    4    4    0    0 -0.29461420227E-01  0.90409541742E-01 -0.70701187189E-01  0.11849379524E+00  0.51100000000E-03 0. -1.
</event>
<event>
 8    1  0.1064839E+005  0.1043930E+01  0.7957747E-01            NaN
         13   -1    0    0    0    0  0.00000000000E+00  0.00000000000E+00  0.74505805969E-08  0.10566000000E+00  0.10566000000E+00 0. -1.
     999900   -1    0    0    0    0 -0.00000000000E+00 -0.00000000000E+00 -0.74505805969E-08  0.93827000000E+00  0.93827000000E+00 0.  1.
     999902    2    1    2    0    0  0.66584923971E-03 -0.30334988276E-02  0.22217563010E-01  0.10214964186E+01  0.10212500514E+01 0.  0.
     999903    2    3    3    0    0 -0.63319543078E-01 -0.11402086702E+00  0.60789591574E-02  0.13207369518E+00  0.19909408867E-01 0.  0.
         14    1    1    2    0    0 -0.66584923971E-03  0.30334988276E-02 -0.22217563010E-01  0.22433581445E-01  0.00000000000E+00 0.  1.
     999901    1    3    3    0    0  0.63985392318E-01  0.11098736819E+00  0.16138603853E-01  0.88942272338E+00  0.88000000000E+00 0. -1.
        -11    1    4    4    0    0 -0.50283113694E-01 -0.10286948972E+00  0.24346423296E-02  0.11452821505E+00  0.51100000000E-03 0.  1.
         11    1    4    4    0    0 -0.13036429385E-01 -0.11151377303E-01  0.36443168278E-02  0.17545480130E-01  0.51100000000E-03 0. -1.
</event>
<event>
 8    1  0.1064839E+005  0.1043930E+01  0.7957747E-01            NaN
         13   -1    0    0    0    0  0.00000000000E+00  0.00000000000E+00  0.74505805969E-08  0.10566000000E+00  0.10566000000E+00 0.  1.
     999900   -1    0    0    0    0 -0.00000000000E+00 -0.00000000000E+00 -0.74505805969E-08  0.93827000000E+00  0.93827000000E+00 0.  1.
     999902    2    1    2    0    0 -0.20945862154E-01 -0.97234073058E-02  0.56526431715E-02  0.10201555144E+01  0.10198784474E+01 0.  0.
     999903    2    3    3    0    0 -0.93405785964E-01 -0.39085993044E-01 -0.82920100415E-01  0.13226040071E+00  0.19097508713E-01 0.  0.
         14    1    1    2    0    0  0.20945862154E-01  0.97234073058E-02 -0.56526431715E-02  0.23774485606E-01  0.00000000000E+00 0. -1.
     999901    1    3    3    0    0  0.72459923810E-01  0.29362585738E-01  0.88572743586E-01  0.88789511369E+00  0.88000000000E+00 0. -1.
        -11    1    4    4    0    0 -0.22717259618E-01 -0.18192201639E-01 -0.19679593970E-01  0.35136556816E-01  0.51100000000E-03 0.  1.
         11    1    4    4    0    0 -0.70688526346E-01 -0.20893791405E-01 -0.63240506444E-01  0.97123843893E-01  0.51100000000E-03 0. -1.
</event>
<event>
 8    1  0.1064839E+005  0.1043930E+01  0.7957747E-01            NaN
         13   -1    0    0    0    0  0.00000000000E+00  0.00000000000E+00  0.74505805969E-08  0.10566000000E+00  0.10566000000E+00 0.  1.
     999900   -1    0    0    0    0 -0.00000000000E+00 -0.00000000000E+00 -0.74505805969E-08  0.93827000000E+00  0.93827000000E+00 0.  1.
     999902    2    1    2    0    0  0.45233419212E-02 -0.11916553973E-01 -0.19644471465E-01  0.10205126957E+01  0.10202439865E+01 0.  0.
     999903    2    3    3    0    0  0.46049894174E-02 -0.14950275186E-01 -0.13088734871E+00  0.13350413439E+00  0.21145666028E-01 0.  0.
         14    1    1    2    0    0 -0.45233419212E-02  0.11916553973E-01  0.19644471465E-01  0.23417304283E-01  0.00000000000E+00 0.  1.
     999901    1    3    3    0    0 -0.81647496211E-04  0.30337212130E-02  0.11124287724E+00  0.88700856133E+00  0.88000000000E+00 0. -1.
        -11    1    4    4    0    0 -0.81463991087E-02 -0.66310153543E-02 -0.67347227572E-01  0.68163365276E-01  0.51100000000E-03 0. -1.
         11    1    4    4    0    0  0.12751388526E-01 -0.83192598315E-02 -0.63540121136E-01  0.65340769114E-01  0.51100000000E-03 0.  1.
</event>
<event>
 8    1  0.1064839E+005  0.1043930E+01  0.7957747E-01            NaN
         13   -1    0    0    0    0  0.00000000000E+00  0.00000000000E+00  0.74505805969E-08  0.10566000000E+00  0.10566000000E+00 0.  1.
     999900   -1    0    0    0    0 -0.00000000000E+00 -0.00000000000E+00 -0.74505805969E-08  0.93827000000E+00  0.93827000000E+00 0.  1.
     999902    2    1    2    0    0  0.20836876842E-01  0.10739397848E-01  0.31330894111E-02  0.10202799186E+01  0.10200057774E+01 0.  0.
     999903    2    3    3    0    0  0.10706505654E+00 -0.65934457875E-01 -0.34836775435E-01  0.13193545285E+00  0.19572524871E-01 0.  0.
         14    1    1    2    0    0 -0.20836876842E-01 -0.10739397848E-01 -0.31330894111E-02  0.23650081436E-01  0.00000000000E+00 0.  1.
     999901    1    3    3    0    0 -0.86228179695E-01  0.76673855723E-01  0.37969864846E-01  0.88834446571E+00  0.88000000000E+00 0.  1.
        -11    1    4    4    0    0  0.44693078408E-01 -0.23761603428E-01 -0.47087814475E-02  0.50838162819E-01  0.51100000000E-03 0.  1.
         11    1    4    4    0    0  0.62371978130E-01 -0.42172854446E-01 -0.30127993988E-01  0.81097290033E-01  0.51100000000E-03 0. -1.
</event>
<event>
 8    1  0.1064839E+005  0.1043930E+01  0.7957747E-01            NaN
         13   -1    0    0    0    0  0.00000000000E+00  0.00000000000E+00  0.74505805969E-08  0.10566000000E+00  0.10566000000E+00 0.  1.
     999900   -1    0    0    0    0 -0.00000000000E+00 -0.00000000000E+00 -0.74505805969E-08  0.93827000000E+00  0.93827000000E+00 0.  1.
     999902    2    1    2    0    0  0.10692653819E-01 -0.17526174719E-01  0.10432983170E-01  0.10209007407E+01  0.10206409631E+01 0.  0.
     999903    2    3    3    0    0  0.71708026754E-01 -0.10704794185E+00  0.31549497692E-01  0.13400563433E+00  0.18995690901E-01 0.  0.
         14    1    1    2    0    0 -0.10692653819E-01  0.17526174719E-01 -0.10432983170E-01  0.23029259298E-01  0.00000000000E+00 0. -1.
     999901    1    3    3    0    0 -0.61015372934E-01  0.89521767127E-01 -0.21116514521E-01  0.88689510637E+00  0.88000000000E+00 0. -1.
        -11    1    4    4    0    0  0.66768421956E-01 -0.91047726614E-01  0.23113700394E-01  0.11524849222E+00  0.51100000000E-03 0.  1.
         11    1    4    4    0    0  0.49396047977E-02 -0.16000215232E-01  0.84357972980E-02  0.18757142109E-01  0.51100000000E-03 0. -1.
</event>
<event>
 8    1  0.1064839E+005  0.1043930E+01  0.7957747E-01            NaN
         13   -1    0    0    0    0  0.00000000000E+00  0.00000000000E+00  0.74505805969E-08  0.10566000000E+00  0.10566000000E+00 0.  1.
     999900   -1    0    0    0    0 -0.00000000000E+00 -0.00000000000E+00 -0.74505805969E-08  0.93827000000E+00  0.93827000000E+00 0. -1.
     999902    2    1    2    0    0  0.15207508787E-01 -0.15565411874E-01  0.10448944834E-01  0.10197901819E+01  0.10195044307E+01 0.  0.
     999903    2    3    3    0    0 -0.12321106766E+00 -0.23637893343E-01 -0.19409476758E-01  0.12843369170E+00  0.19461967504E-01 0.  0.
         14    1    1    2    0    0 -0.15207508787E-01  0.15565411874E-01 -0.10448944834E-01  0.24139818111E-01  0.00000000000E+00 0. -1.
     999901    1    3    3    0    0  0.13841857645E+00  0.80724814694E-02  0.29858421592E-01  0.89135649019E+00  0.88000000000E+00 0.  1.
        -11    1    4    4    0    0 -0.60212338604E-01 -0.18907374983E-02 -0.71510887236E-02  0.60667122887E-01  0.51100000000E-03 0. -1.
         11    1    4    4    0    0 -0.62998729059E-01 -0.21747155845E-01 -0.12258388034E-01  0.67766568812E-01  0.51100000000E-03 0.  1.
</event>
<event>
 7    1  0.1064839E+005  0.1043930E+01  0.7957747E-01            NaN
         13   -1    0    0    0    0  0.00000000000E+00  0.00000000000E+00  0.74505805969E-08  0.10566000000E+00  0.10566000000E+00 0. -1.
     999900   -1    0    0    0    0 -0.00000000000E+00 -0.00000000000E+00 -0.74505805969E-08  0.93827000000E+00  0.93827000000E+00 0.  1.
     999902    2    1    2    0    0 -0.10840668463E-01  0.20087099474E-01  0.67078849502E-02  0.10201390904E+01  0.10198616359E+01 0.  0.
         14    1    1    2    0    0  0.10840668463E-01 -0.20087099474E-01 -0.67078849502E-02  0.23790909577E-01  0.00000000000E+00 0. -1.
     999901    1    3    3    0    0 -0.41399046088E-01 -0.99663960973E-01  0.19263607666E-01  0.88680204821E+00  0.88000000000E+00 0. -1.
        -11    1    3    3    0    0  0.24075674944E-01  0.52999651477E-01 -0.27872985113E-01  0.64542742433E-01  0.51100000000E-03 0.  1.
         11    1    3    3    0    0  0.64827026809E-02  0.66751408970E-01  0.15317262397E-01  0.68794299777E-01  0.51100000000E-03 0. -1.
</event>
<event>
 8    1  0.1064839E+005  0.1043930E+01  0.7957747E-01            NaN
         13   -1    0    0    0    0  0.00000000000E+00  0.00000000000E+00  0.74505805969E-08  0.10566000000E+00  0.10566000000E+00 0.  1.
     999900   -1    0    0    0    0 -0.00000000000E+00 -0.00000000000E+00 -0.74505805969E-08  0.93827000000E+00  0.93827000000E+00 0. -1.
     999902    2    1    2    0    0  0.10426306835E-01  0.88601929762E-02  0.19615266777E-01  0.10200141144E+01  0.10197337025E+01 0.  0.
     999903    2    3    3    0    0  0.16319913255E-01  0.12695266097E+00  0.25336195574E-01  0.13208771281E+00  0.20540773415E-01 0.  0.
         14    1    1    2    0    0 -0.10426306835E-01 -0.88601929762E-02 -0.19615266777E-01  0.23915885611E-01  0.00000000000E+00 0. -1.
     999901    1    3    3    0    0 -0.58936064199E-02 -0.11809246800E+00 -0.57209287970E-02  0.88792640158E+00  0.88000000000E+00 0.  1.
        -11    1    4    4    0    0  0.66537209248E-02  0.81777534828E-01  0.25387123809E-01  0.85887160746E-01  0.51100000000E-03 0.  1.
         11    1    4    4    0    0  0.96661923302E-02  0.45175126145E-01 -0.50928234423E-04  0.46200552065E-01  0.51100000000E-03 0. -1.
</event>
<event>
 8    1  0.1064839E+005  0.1043930E+01  0.7957747E-01            NaN
         13   -1    0    0    0    0  0.00000000000E+00  0.00000000000E+00  0.74505805969E-08  0.10566000000E+00  0.10566000000E+00 0. -1.
     999900   -1    0    0    0    0 -0.00000000000E+00 -0.00000000000E+00 -0.74505805969E-08  0.93827000000E+00  0.93827000000E+00 0.  1.
     999902    2    1    2    0    0 -0.22940313687E-01  0.67834037949E-02 -0.26945210277E-02  0.10198565083E+01  0.10195723439E+01 0.  0.
     999903    2    3    3    0    0 -0.12831889168E+00 -0.27359191478E-01 -0.55489175316E-02  0.13290751930E+00  0.20478156129E-01 0.  0.
         14    1    1    2    0    0  0.22940313687E-01 -0.67834037949E-02  0.26945210277E-02  0.24073491701E-01  0.00000000000E+00 0.  1.
     999901    1    3    3    0    0  0.10537857800E+00  0.34142595273E-01  0.28543965038E-02  0.88694898900E+00  0.88000000000E+00 0.  1.
        -11    1    4    4    0    0 -0.42227875122E-01 -0.16333762909E-01 -0.84594131989E-02  0.46063087616E-01  0.51100000000E-03 0.  1.
         11    1    4    4    0    0 -0.86091016562E-01 -0.11025428569E-01  0.29104956673E-02  0.86844431680E-01  0.51100000000E-03 0. -1.
</event>
<event>
 8    1  0.1064839E+005  0.1043930E+01  0.7957747E-01            NaN
         13   -1    0    0    0    0  0.00000000000E+00  0.00000000000E+00  0.74505805969E-08  0.10566000000E+00  0.10566000000E+00 0. -1.
     999900   -1    0    0    0    0 -0.00000000000E+00 -0.00000000000E+00 -0.74505805969E-08  0.93827000000E+00  0.93827000000E+00 0.  1.
     999902    2    1    2    0    0 -0.11924364228E-01 -0.64936241114E-02 -0.21081237055E-01  0.10188545903E+01  0.10185459734E+01 0.  0.
     999903    2    3    3    0    0 -0.34363344260E-01 -0.21169803215E-01  0.11910815577E+00  0.12735475074E+00  0.20086805851E-01 0.  0.
         14    1    1    2    0    0  0.11924364228E-01  0.64936241114E-02  0.21081237055E-01  0.25075409710E-01  0.00000000000E+00 0. -1.
     999901    1    3    3    0    0  0.22438980032E-01  0.14676179104E-01 -0.14018939282E+00  0.89149983955E+00  0.88000000000E+00 0.  1.
        -11    1    4    4    0    0 -0.34713167935E-02  0.37432952431E-02  0.97576432960E-02  0.11024292415E-01  0.51100000000E-03 0. -1.
         11    1    4    4    0    0 -0.30892027467E-01 -0.24913098459E-01  0.10935051247E+00  0.11633045833E+00  0.51100000000E-03 0.  1.
</event>
<event>
 8    1  0.1064839E+005  0.1043930E+01  0.7957747E-01            NaN
         13   -1    0    0    0    0  0.00000000000E+00  0.00000000000E+00  0.74505805969E-08  0.10566000000E+00  0.10566000000E+00 0.  1.
     999900   -1    0    0    0    0 -0.00000000000E+00 -0.00000000000E+00 -0.74505805969E-08  0.93827000000E+00  0.93827000000E+00 0.  1.
     999902    2    1    2    0    0  0.11929464660E-02 -0.18552160067E-01 -0.13337519795E-01  0.10210499825E+01  0.10207935990E+01 0.  0.
     999903    2    3    3    0    0  0.87619939007E-01 -0.65046459284E-01 -0.73609852275E-01  0.13354556061E+00  0.22532439477E-01 0.  0.
         14    1    1    2    0    0 -0.11929464660E-02  0.18552160067E-01  0.13337519795E-01  0.22880017454E-01  0.00000000000E+00 0.  1.
     999901    1    3    3    0    0 -0.86426992541E-01  0.46494299217E-01  0.60272332480E-01  0.88750442194E+00  0.88000000000E+00 0. -1.
        -11    1    4    4    0    0  0.22457367203E-01 -0.19416312648E-01 -0.32422120687E-01  0.43963411712E-01  0.51100000000E-03 0.  1.
         11    1    4    4    0    0  0.65162571804E-01 -0.45630146636E-01 -0.41187731588E-01  0.89582148894E-01  0.51100000000E-03 0. -1.
</event>
<event>
 8    1  0.1064839E+005  0.1043930E+01  0.7957747E-01            NaN
         13   -1    0    0    0    0  0.00000000000E+00  0.00000000000E+00  0.74505805969E-08  0.10566000000E+00  0.10566000000E+00 0.  1.
     999900   -1    0    0    0    0 -0.00000000000E+00 -0.00000000000E+00 -0.74505805969E-08  0.93827000000E+00  0.93827000000E+00 0. -1.
     999902    2    1    2    0    0 -0.35037354044E-02 -0.26055974676E-01  0.88169497531E-03  0.10176247274E+01  0.10172846792E+01 0.  0.
     999903    2    3    3    0    0 -0.97144737029E-01 -0.74711270122E-01  0.40101790844E-01  0.13045270868E+00  0.19770729823E-01 0.  0.
         14    1    1    2    0    0  0.35037354044E-02  0.26055974676E-01 -0.88169497531E-03  0.26305272554E-01  0.00000000000E+00 0.  1.
     999901    1    3    3    0    0  0.93641001624E-01  0.48655295446E-01 -0.39220095868E-01  0.88717201877E+00  0.88000000000E+00 0.  1.
        -11    1    4    4    0    0 -0.68069684145E-01 -0.53221578696E-01  0.37520698034E-01  0.94202347320E-01  0.51100000000E-03 0. -1.
         11    1    4    4    0    0 -0.29075052884E-01 -0.21489691425E-01  0.25810928096E-02  0.36250361361E-01  0.51100000000E-03 0.  1.
</event>
<event>
 8    1  0.1064839E+005  0.1043930E+01  0.7957747E-01            NaN
         13   -1    0    0    0    0  0.00000000000E+00  0.00000000000E+00  0.74505805969E-08  0.10566000000E+00  0.10566000000E+00 0.  1.
     999900   -1    0    0    0    0 -0.00000000000E+00 -0.00000000000E+00 -0.74505805969E-08  0.93827000000E+00  0.93827000000E+00 0.  1.
     999902    2    1    2    0    0  0.11668006228E-01  0.16240486770E-01  0.10541243711E-01  0.10213243901E+01  0.10210741874E+01 0.  0.
     999903    2    3    3    0    0 -0.11561602625E-01  0.57195290419E-02 -0.12781102334E+00  0.13015007771E+00  0.20904577770E-01 0.  0.
         14    1    1    2    0    0 -0.11668006228E-01 -0.16240486770E-01 -0.10541243711E-01  0.22605609897E-01  0.00000000000E+00 0. -1.
     999901    1    3    3    0    0  0.23229608852E-01  0.10520957728E-01  0.13835226705E+00  0.89117431240E+00  0.88000000000E+00 0. -1.
        -11    1    4    4    0    0  0.52613858130E-02 -0.39243053143E-04 -0.52556301642E-01  0.52821488846E-01  0.51100000000E-03 0. -1.
         11    1    4    4    0    0 -0.16822988438E-01  0.57587720951E-02 -0.75254721699E-01  0.77328588859E-01  0.51100000000E-03 0.  1.
</event>
<event>
 7    1  0.1064839E+005  0.1043930E+01  0.7957747E-01            NaN
         13   -1    0    0    0    0  0.00000000000E+00  0.00000000000E+00  0.74505805969E-08  0.10566000000E+00  0.10566000000E+00 0. -1.
     999900   -1    0    0    0    0 -0.00000000000E+00 -0.00000000000E+00 -0.74505805969E-08  0.93827000000E+00  0.93827000000E+00 0.  1.
     999902    2    1    2    0    0 -0.12502259040E-01 -0.33486299502E-02  0.19717242696E-01  0.10203442106E+01  0.10200715752E+01 0.  0.
         14    1    1    2    0    0  0.12502259040E-01  0.33486299502E-02 -0.19717242696E-01  0.23585789433E-01  0.00000000000E+00 0.  1.
     999901    1    3    3    0    0 -0.82808973916E-01 -0.83299861455E-01 -0.48050586262E-01  0.88910351024E+00  0.88000000000E+00 0. -1.
        -11    1    3    3    0    0  0.42264396637E-01  0.42394248855E-01  0.58012944928E-01  0.83362548301E-01  0.51100000000E-03 0.  1.
         11    1    3    3    0    0  0.28042318240E-01  0.37556982650E-01  0.97548840302E-02  0.47878152027E-01  0.51100000000E-03 0. -1.
</event>
<event>
 8    1  0.1064839E+005  0.1043930E+01  0.7957747E-01            NaN
         13   -1    0    0    0    0  0.00000000000E+00  0.00000000000E+00  0.74505805969E-08  0.10566000000E+00  0.10566000000E+00 0. -1.
     999900   -1    0    0    0    0 -0.00000000000E+00 -0.00000000000E+00 -0.74505805969E-08  0.93827000000E+00  0.93827000000E+00 0.  1.
     999902    2    1    2    0    0 -0.14512318210E-01  0.13997878467E-02  0.18821562470E-01  0.10201220602E+01  0.10198442036E+01 0.  0.
     999903    2    3    3    0    0 -0.12292706822E+00  0.22875370107E-01  0.40670375509E-01  0.13293981885E+00  0.19610439370E-01 0.  0.
         14    1    1    2    0    0  0.14512318210E-01 -0.13997878467E-02 -0.18821562470E-01  0.23807939845E-01  0.00000000000E+00 0.  1.
     999901    1    3    3    0    0  0.10841475001E+00 -0.21475582260E-01 -0.21848813039E-01  0.88718224130E+00  0.88000000000E+00 0. -1.
        -11    1    4    4    0    0 -0.56880778179E-01  0.23826316895E-02  0.24126747262E-01  0.61834140364E-01  0.51100000000E-03 0.  1.
         11    1    4    4    0    0 -0.66046290045E-01  0.20492738417E-01  0.16543628246E-01  0.71105678487E-01  0.51100000000E-03 0. -1.
</event>
<event>
 8    1  0.1064839E+005  0.1043930E+01  0.7957747E-01            NaN
         13   -1    0    0    0    0  0.00000000000E+00  0.00000000000E+00  0.74505805969E-08  0.10566000000E+00  0.10566000000E+00 0.  1.
     999900   -1    0    0    0    0 -0.00000000000E+00 -0.00000000000E+00 -0.74505805969E-08  0.93827000000E+00  0.93827000000E+00 0. -1.
     999902    2    1    2    0    0 -0.31256130173E-02 -0.24200886835E-01 -0.64846082062E-02  0.10186811877E+01  0.10183682338E+01 0.  0.
     999903    2    3    3    0    0  0.10969446982E+00 -0.62754468286E-01 -0.25443910997E-01  0.13043898822E+00  0.19898166800E-01 0.  0.
         14    1    1    2    0    0  0.31256130173E-02  0.24200886835E-01  0.64846082062E-02  0.25248812327E-01  0.00000000000E+00 0.  1.
     999901    1    3    3    0    0 -0.11282008283E+00  0.38553581451E-01  0.18959302791E-01  0.88824219946E+00  0.88000000000E+00 0.  1.
        -11    1    4    4    0    0  0.22371511261E-01 -0.11211047598E-01 -0.13213513737E-01  0.28302476405E-01  0.51100000000E-03 0.  1.
         11    1    4    4    0    0  0.87322958555E-01 -0.51543420688E-01 -0.12230397261E-01  0.10213651181E+00  0.51100000000E-03 0. -1.
</event>
<event>
 8    1  0.1064839E+005  0.1043930E+01  0.7957747E-01            NaN
         13   -1    0    0    0    0  0.00000000000E+00  0.00000000000E+00  0.74505805969E-08  0.10566000000E+00  0.10566000000E+00 0.  1.
     999900   -1    0    0    0    0 -0.00000000000E+00 -0.00000000000E+00 -0.74505805969E-08  0.93827000000E+00  0.93827000000E+00 0.  1.
     999902    2    1    2    0    0 -0.49665286812E-02  0.21734287058E-01  0.17519343081E-02  0.10215667508E+01  0.10213219431E+01 0.  0.
     999903    2    3    3    0    0 -0.95834486840E-01  0.58491350654E-01  0.69802018928E-01  0.13351332810E+00  0.18654757176E-01 0.  0.
         14    1    1    2    0    0  0.49665286812E-02 -0.21734287058E-01 -0.17519343081E-02  0.22363249203E-01  0.00000000000E+00 0.  1.
     999901    1    3    3    0    0  0.90867958159E-01 -0.36757063596E-01 -0.68050084620E-01  0.88805342270E+00  0.88000000000E+00 0.  1.
        -11    1    4    4    0    0 -0.84941669409E-02  0.38156371500E-02  0.12540988506E-01  0.15628418749E-01  0.51100000000E-03 0. -1.
         11    1    4    4    0    0 -0.87340319899E-01  0.54675713504E-01  0.57261030422E-01  0.11788490935E+00  0.51100000000E-03 0.  1.
</event>
<event>
 8    1  0.1064839E+005  0.1043930E+01  0.7957747E-01            NaN
         13   -1    0    0    0    0  0.00000000000E+00  0.00000000000E+00  0.74505805969E-08  0.10566000000E+00  0.10566000000E+00 0. -1.
     999900   -1    0    0    0    0 -0.00000000000E+00 -0.00000000000E+00 -0.74505805969E-08  0.93827000000E+00  0.93827000000E+00 0. -1.
     999902    2    1    2    0    0  0.13924024901E-01  0.12111969078E-01  0.14226145569E-01  0.10206284661E+01  0.10203624377E+01 0.  0.
     999903    2    3    3    0    0 -0.84192419972E-01  0.78569928754E-01  0.60065436908E-01  0.13150263823E+00  0.20578869369E-01 0.  0.
         14    1    1    2    0    0 -0.13924024901E-01 -0.12111969078E-01 -0.14226145569E-01  0.23301533901E-01  0.00000000000E+00 0.  1.
     999901    1    3    3    0    0  0.98116444873E-01 -0.66457959676E-01 -0.45839291339E-01  0.88912582787E+00  0.88000000000E+00 0. -1.
        -11    1    4    4    0    0 -0.61426980080E-01  0.46284810193E-01  0.33494633741E-01  0.83891055225E-01  0.51100000000E-03 0.  1.
         11    1    4    4    0    0 -0.22765439892E-01  0.32285118561E-01  0.26570803168E-01  0.47611583002E-01  0.51100000000E-03 0. -1.
</event>
<event>
 8    1  0.1064839E+005  0.1043930E+01  0.7957747E-01            NaN
         13   -1    0    0    0    0  0.00000000000E+00  0.00000000000E+00  0.74505805969E-08  0.10566000000E+00  0.10566000000E+00 0.  1.
     999900   -1    0    0    0    0 -0.00000000000E+00 -0.00000000000E+00 -0.74505805969E-08  0.93827000000E+00  0.93827000000E+00 0. -1.
     999902    2    1    2    0    0 -0.18657463006E-01 -0.14288846561E-01  0.54311579849E-02  0.10198101008E+01  0.10195248266E+01 0.  0.
     999903    2    3    3    0    0 -0.11582592520E+00  0.31430127026E-02 -0.59862078157E-01  0.13188623779E+00  0.19621106986E-01 0.  0.
         14    1    1    2    0    0  0.18657463006E-01  0.14288846561E-01 -0.54311579849E-02  0.24119899231E-01  0.00000000000E+00 0. -1.
     999901    1    3    3    0    0  0.97168462195E-01 -0.17431859264E-01  0.65293236141E-01  0.88792386298E+00  0.88000000000E+00 0.  1.
        -11    1    4    4    0    0 -0.28122998704E-01  0.86941859433E-02 -0.18387856705E-01  0.34711184372E-01  0.51100000000E-03 0.  1.
         11    1    4    4    0    0 -0.87702926497E-01 -0.55511732408E-02 -0.41474221452E-01  0.97175053417E-01  0.51100000000E-03 0. -1.
</event>
<event>
 8    1  0.1064839E+005  0.1043930E+01  0.7957747E-01            NaN
         13   -1    0    0    0    0  0.00000000000E+00  0.00000000000E+00  0.74505805969E-08  0.10566000000E+00  0.10566000000E+00 0. -1.
     999900   -1    0    0    0    0 -0.00000000000E+00 -0.00000000000E+00 -0.74505805969E-08  0.93827000000E+00  0.93827000000E+00 0. -1.
     999902    2    1    2    0    0  0.92974771438E-02 -0.15733205548E-01 -0.15359622614E-01  0.10200575296E+01  0.10197781468E+01 0.  0.
     999903    2    3    3    0    0  0.90539841320E-02  0.58841357534E-01 -0.11582047319E+00  0.13120781940E+00  0.16025912727E-01 0.  0.
         14    1    1    2    0    0 -0.92974771438E-02  0.15733205548E-01  0.15359622614E-01  0.23872470440E-01  0.00000000000E+00 0. -1.
     999901    1    3    3    0    0  0.24349301186E-03 -0.74574563081E-01  0.10046085057E+00  0.88884971016E+00  0.88000000000E+00 0.  1.
        -11    1    4    4    0    0  0.87787616592E-02  0.41582557046E-01 -0.66210214790E-01  0.78678010717E-01  0.51100000000E-03 0. -1.
         11    1    4    4    0    0  0.27522247277E-03  0.17258800488E-01 -0.49610258395E-01  0.52529808687E-01  0.51100000000E-03 0.  1.
</event>
<event>
 8    1  0.1064839E+005  0.1043930E+01  0.7957747E-01            NaN
         13   -1    0    0    0    0  0.00000000000E+00  0.00000000000E+00  0.74505805969E-08  0.10566000000E+00  0.10566000000E+00 0. -1.
     999900   -1    0    0    0    0 -0.00000000000E+00 -0.00000000000E+00 -0.74505805969E-08  0.93827000000E+00  0.93827000000E+00 0. -1.
     999902    2    1    2    0    0 -0.22589175441E-01 -0.22399903391E-02 -0.29351722803E-02  0.10210410586E+01  0.10207844727E+01 0.  0.
     999903    2    3    3    0    0  0.46339025386E-01 -0.94414259171E-01 -0.74850322517E-01  0.13063722797E+00  0.20053851042E-01 0.  0.
         14    1    1    2    0    0  0.22589175441E-01  0.22399903391E-02  0.29351722803E-02  0.22888941438E-01  0.00000000000E+00 0.  1.
     999901    1    3    3    0    0 -0.68928200827E-01  0.92174268832E-01  0.71915150237E-01  0.89040383059E+00  0.88000000000E+00 0.  1.
        -11    1    4    4    0    0  0.35735859870E-01 -0.67066199383E-01 -0.42922847552E-01  0.87278627070E-01  0.51100000000E-03 0. -1.
         11    1    4    4    0    0  0.10603165516E-01 -0.27348059788E-01 -0.31927474965E-01  0.43358600897E-01  0.51100000000E-03 0.  1.
</event>
<event>
 8    1  0.1064839E+005  0.1043930E+01  0.7957747E-01            NaN
         13   -1    0    0    0    0  0.00000000000E+00  0.00000000000E+00  0.74505805969E-08  0.10566000000E+00  0.10566000000E+00 0.  1.
     999900   -1    0    0    0    0 -0.00000000000E+00 -0.00000000000E+00 -0.74505805969E-08  0.93827000000E+00  0.93827000000E+00 0.  1.
     999902    2    1    2    0    0  0.42250502264E-02  0.20663872919E-01 -0.10391444693E-01  0.10204176880E+01  0.10201467684E+01 0.  0.
     999903    2    3    3    0    0  0.98769532151E-01 -0.38908792997E-01 -0.74244925363E-01  0.13105565339E+00  0.19848443004E-01 0.  0.
         14    1    1    2    0    0 -0.42250502264E-02 -0.20663872919E-01  0.10391444693E-01  0.23512312014E-01  0.00000000000E+00 0.  1.
     999901    1    3    3    0    0 -0.94544481924E-01  0.59572665915E-01  0.63853480670E-01  0.88936203460E+00  0.88000000000E+00 0.  1.
        -11    1    4    4    0    0  0.72140491857E-01 -0.20672208929E-01 -0.45030026638E-01  0.87518884861E-01  0.51100000000E-03 0.  1.
         11    1    4    4    0    0  0.26629040294E-01 -0.18236584068E-01 -0.29214898725E-01  0.43536768529E-01  0.51100000000E-03 0. -1.
</event>
<event>
 8    1  0.1064839E+005  0.1043930E+01  0.7957747E-01            NaN
         13   -1    0    0    0    0  0.00000000000E+00  0.00000000000E+00  0.74505805969E-08  0.10566000000E+00  0.10566000000E+00 0. -1.
     999900   -1    0    0    0    0 -0.00000000000E+00 -0.00000000000E+00 -0.74505805969E-08  0.93827000000E+00  0.93827000000E+00 0. -1.
     999902    2    1    2    0    0 -0.21228397418E-01  0.45164246428E-02 -0.73605769737E-02  0.10210122985E+01  0.10207550601E+01 0.  0.
     999903    2    3    3    0    0  0.11336149789E-01  0.99303955751E-01 -0.83881118046E-01  0.13202381770E+00  0.20111254479E-01 0.  0.
         14    1    1    2    0    0  0.21228397418E-01 -0.45164246428E-02  0.73605769737E-02  0.22917701496E-01  0.00000000000E+00 0.  1.
     999901    1    3    3    0    0 -0.32564547207E-01 -0.94787531108E-01  0.76520541072E-01  0.88898848080E+00  0.88000000000E+00 0.  1.
        -11    1    4    4    0    0 -0.25061162924E-02  0.39888532205E-01 -0.42271071143E-01  0.58176285520E-01  0.51100000000E-03 0. -1.
         11    1    4    4    0    0  0.13842266081E-01  0.59415423546E-01 -0.41610046903E-01  0.73847532184E-01  0.51100000000E-03 0.  1.
</event>
<event>
 8    1  0.1064839E+005  0.1043930E+01  0.7957747E-01            NaN
         13   -1    0    0    0    0  0.00000000000E+00  0.00000000000E+00  0.74505805969E-08  0.10566000000E+00  0.10566000000E+00 0.  1.
     999900   -1    0    0    0    0 -0.00000000000E+00 -0.00000000000E+00 -0.74505805969E-08  0.93827000000E+00  0.93827000000E+00 0. -1.
     999902    2    1    2    0    0 -0.57608421524E-02 -0.76963421178E-02  0.21599910500E-01  0.10202873031E+01  0.10200133351E+01 0.  0.
     999903    2    3    3    0    0 -0.92658382990E-01  0.30957930019E-01 -0.82035830043E-01  0.12911633066E+00  0.19929376878E-01 0.  0.
         14    1    1    2    0    0  0.57608421524E-02  0.76963421178E-02 -0.21599910500E-01  0.23642696925E-01  0.00000000000E+00 0. -1.
     999901    1    3    3    0    0  0.86897540838E-01 -0.38654272136E-01  0.10363574054E+00  0.89117097242E+00  0.88000000000E+00 0. -1.
        -11    1    4    4    0    0 -0.29158296796E-01  0.80310625547E-03 -0.20118506049E-01  0.35438209018E-01  0.51100000000E-03 0. -1.
         11    1    4    4    0    0 -0.63500086194E-01  0.30154823763E-01 -0.61917323994E-01  0.93678121642E-01  0.51100000000E-03 0.  1.
</event>
<event>
 8    1  0.1064839E+005  0.1043930E+01  0.7957747E-01            NaN
         13   -1    0    0    0    0  0.00000000000E+00  0.00000000000E+00  0.74505805969E-08  0.10566000000E+00  0.10566000000E+00 0.  1.
     999900   -1    0    0    0    0 -0.00000000000E+00 -0.00000000000E+00 -0.74505805969E-08  0.93827000000E+00  0.93827000000E+00 0. -1.
     999902    2    1    2    0    0  0.21789553168E-01 -0.14863943191E-02  0.84434633629E-02  0.10205144908E+01  0.10202458233E+01 0.  0.
     999903    2    3    3    0    0  0.68659145727E-01  0.13153838138E-01 -0.10930707536E+00  0.13131469076E+00  0.20209144842E-01 0.  0.
         14    1    1    2    0    0 -0.21789553168E-01  0.14863943191E-02 -0.84434633629E-02  0.23415509153E-01  0.00000000000E+00 0. -1.
     999901    1    3    3    0    0 -0.46869592559E-01 -0.14640232457E-01  0.11775053872E+00  0.88919980009E+00  0.88000000000E+00 0. -1.
        -11    1    4    4    0    0  0.17362744805E-01 -0.54384365356E-02 -0.27965038526E-01  0.33366839824E-01  0.51100000000E-03 0.  1.
         11    1    4    4    0    0  0.51296400922E-01  0.18592274674E-01 -0.81342036832E-01  0.97947850931E-01  0.51100000000E-03 0. -1.
</event>
<event>
 8    1  0.1064839E+005  0.1043930E+01  0.7957747E-01            NaN
         13   -1    0    0    0    0  0.00000000000E+00  0.00000000000E+00  0.74505805969E-08  0.10566000000E+00  0.10566000000E+00 0.  1.
     999900   -1    0    0    0    0 -0.00000000000E+00 -0.00000000000E+00 -0.74505805969E-08  0.93827000000E+00  0.93827000000E+00 0. -1.
     999902    2    1    2    0    0  0.15132602767E-01  0.17833173124E-01 -0.51221050199E-02  0.10199872832E+01  0.10197062342E+01 0.  0.
     999903    2    3    3    0    0  0.76351873717E-01  0.10624601018E+00 -0.16291485799E-01  0.13337046403E+00  0.20110814650E-01 0.  0.
         14    1    1    2    0    0 -0.15132602767E-01 -0.17833173124E-01  0.51221050199E-02  0.23942716847E-01  0.00000000000E+00 0.  1.
     999901    1    3    3    0    0 -0.61219270951E-01 -0.88412837055E-01  0.11169380780E-01  0.88661681913E+00  0.88000000000E+00 0. -1.
        -11    1    4    4    0    0  0.46248996531E-01  0.78423800785E-01 -0.68568178072E-02  0.91304650929E-01  0.51100000000E-03 0.  1.
         11    1    4    4    0    0  0.30102877186E-01  0.27822209394E-01 -0.94346679923E-02  0.42065813098E-01  0.51100000000E-03 0. -1.
</event>
<event>
 8    1  0.1064839E+005  0.1043930E+01  0.7957747E-01            NaN
         13   -1    0    0    0    0  0.00000000000E+00  0.00000000000E+00  0.74505805969E-08  0.10566000000E+00  0.10566000000E+00 0.  1.
     999900   -1    0    0    0    0 -0.00000000000E+00 -0.00000000000E+00 -0.74505805969E-08  0.93827000000E+00  0.93827000000E+00 0.  1.
     999902    2    1    2    0    0 -0.11914835027E-01  0.10096919309E-01 -0.17544897640E-01  0.10204409705E+01  0.10201705935E+01 0.  0.
     999903    2    3    3    0    0  0.11552368702E+00  0.40452445602E-01 -0.40186251573E-01  0.13045520333E+00  0.20530529514E-01 0.  0.
         14    1    1    2    0    0  0.11914835027E-01 -0.10096919309E-01  0.17544897640E-01  0.23489029491E-01  0.00000000000E+00 0.  1.
     999901    1    3    3    0    0 -0.12743852205E+00 -0.30355526293E-01  0.22641353933E-01  0.88998576718E+00  0.88000000000E+00 0. -1.
        -11    1    4    4    0    0  0.78766007867E-01  0.23648715372E-01 -0.17423095307E-01  0.84066468375E-01  0.51100000000E-03 0. -1.
         11    1    4    4    0    0  0.36757679152E-01  0.16803730230E-01 -0.22763156266E-01  0.46388734952E-01  0.51100000000E-03 0.  1.
</event>
<event>
 8    1  0.1064839E+005  0.1043930E+01  0.7957747E-01            NaN
         13   -1    0    0    0    0  0.00000000000E+00  0.00000000000E+00  0.74505805969E-08  0.10566000000E+00  0.10566000000E+00 0.  1.
     999900   -1    0    0    0    0 -0.00000000000E+00 -0.00000000000E+00 -0.74505805969E-08  0.93827000000E+00  0.93827000000E+00 0. -1.
     999902    2    1    2    0    0  0.50416066052E-02 -0.10834795060E-01 -0.20562563414E-01  0.10201470314E+01  0.10198697643E+01 0.  0.
     999903    2    3    3    0    0 -0.44040807989E-01 -0.88235244064E-01 -0.87922636110E-01  0.13282674406E+00  0.13693171096E-01 0.  0.
         14    1    1    2    0    0 -0.50416066052E-02  0.10834795060E-01  0.20562563414E-01  0.23782968598E-01  0.00000000000E+00 0.  1.
     999901    1    3    3    0    0  0.49082414594E-01  0.77400449004E-01  0.67360072696E-01  0.88732028734E+00  0.88000000000E+00 0.  1.
        -11    1    4    4    0    0 -0.28465612771E-01 -0.50201508054E-01 -0.43235404939E-01  0.72111329779E-01  0.51100000000E-03 0.  1.
         11    1    4    4    0    0 -0.15575195218E-01 -0.38033736010E-01 -0.44687231172E-01  0.60715414285E-01  0.51100000000E-03 0. -1.
</event>
<event>
 8    1  0.1064839E+005  0.1043930E+01  0.7957747E-01            NaN
         13   -1    0    0    0    0  0.00000000000E+00  0.00000000000E+00  0.74505805969E-08  0.10566000000E+00  0.10566000000E+00 0. -1.
     999900   -1    0    0    0    0 -0.00000000000E+00 -0.00000000000E+00 -0.74505805969E-08  0.93827000000E+00  0.93827000000E+00 0.  1.
     999902    2    1    2    0    0  0.12983688962E-02  0.13068434589E-01 -0.15313004517E-01  0.10237568036E+01  0.10235580272E+01 0.  0.
     999903    2    3    3    0    0 -0.20238699373E-01  0.12620692301E+00 -0.40426954899E-01  0.13589708871E+00  0.22268535396E-01 0.  0.
         14    1    1    2    0    0 -0.12983688962E-02 -0.13068434589E-01  0.15313004517E-01  0.20173196369E-01  0.00000000000E+00 0. -1.
     999901    1    3    3    0    0  0.21537068269E-01 -0.11313848843E+00  0.25113950382E-01  0.88785971492E+00  0.88000000000E+00 0. -1.
        -11    1    4    4    0    0  0.37717743378E-02  0.18489520719E-01 -0.10264359303E-01  0.21487364915E-01  0.51100000000E-03 0.  1.
         11    1    4    4    0    0 -0.24010473711E-01  0.10771740230E+00 -0.30162595596E-01  0.11440972380E+00  0.51100000000E-03 0. -1.
</event>
<event>
 8    1  0.1064839E+005  0.1043930E+01  0.7957747E-01            NaN
         13   -1    0    0    0    0  0.00000000000E+00  0.00000000000E+00  0.74505805969E-08  0.10566000000E+00  0.10566000000E+00 0. -1.
     999900   -1    0    0    0    0 -0.00000000000E+00 -0.00000000000E+00 -0.74505805969E-08  0.93827000000E+00  0.93827000000E+00 0. -1.
     999902    2    1    2    0    0 -0.19247043779E-01  0.13203476679E-01  0.32543584715E-02  0.10203636821E+01  0.10200915020E+01 0.  0.
     999903    2    3    3    0    0  0.64991680616E-01 -0.40791343604E-01  0.10216254052E+00  0.12918781181E+00  0.19090672397E-01 0.  0.
         14    1    1    2    0    0  0.19247043779E-01 -0.13203476679E-01 -0.32543584715E-02  0.23566317907E-01  0.00000000000E+00 0. -1.
     999901    1    3    3    0    0 -0.84238724395E-01  0.53994820283E-01 -0.98908182044E-01  0.89117587029E+00  0.88000000000E+00 0. -1.
        -11    1    4    4    0    0  0.11574604162E-01  0.13083665581E-03  0.11985419011E-01  0.16670332018E-01  0.51100000000E-03 0. -1.
         11    1    4    4    0    0  0.53417076454E-01 -0.40922180260E-01  0.90177121504E-01  0.11251747979E+00  0.51100000000E-03 0.  1.
</event>
<event>
 8    1  0.1064839E+005  0.1043930E+01  0.7957747E-01            NaN
         13   -1    0    0    0    0  0.00000000000E+00  0.00000000000E+00  0.74505805969E-08  0.10566000000E+00  0.10566000000E+00 0.  1.
     999900   -1    0    0    0    0 -0.00000000000E+00 -0.00000000000E+00 -0.74505805969E-08  0.93827000000E+00  0.93827000000E+00 0.  1.
     999902    2    1    2    0    0 -0.20576027085E-01  0.92572738552E-02 -0.76788890264E-02  0.10200965079E+01  0.10198180475E+01 0.  0.
     999903    2    3    3    0    0 -0.88749429046E-01 -0.86237935519E-01 -0.40411929781E-01  0.13170560310E+00  0.19994977869E-01 0.  0.
         14    1    1    2    0    0  0.20576027085E-01 -0.92572738552E-02  0.76788890264E-02  0.23833492117E-01  0.00000000000E+00 0.  1.
     999901    1    3    3    0    0  0.68173401961E-01  0.95495209374E-01  0.32733040754E-01  0.88839090479E+00  0.88000000000E+00 0. -1.
        -11    1    4    4    0    0 -0.24401755931E-01 -0.18031595123E-01 -0.18040195269E-01  0.35302887722E-01  0.51100000000E-03 0. -1.
         11    1    4    4    0    0 -0.64347673115E-01 -0.68206340396E-01 -0.22371734511E-01  0.96402715375E-01  0.51100000000E-03 0.  1.
</event>
<event>
 8    1  0.1064839E+005  0.1043930E+01  0.7957747E-01            NaN
         13   -1    0    0    0    0  0.00000000000E+00  0.00000000000E+00  0.74505805969E-08  0.10566000000E+00  0.10566000000E+00 0. -1.
     999900   -1    0    0    0    0 -0.00000000000E+00 -0.00000000000E+00 -0.74505805969E-08  0.93827000000E+00  0.93827000000E+00 0.  1.
     999902    2    1    2    0    0 -0.21650461356E-02 -0.10659507287E-01  0.25698464775E-01  0.10160243803E+01  0.10156410871E+01 0.  0.
     999903    2    3    3    0    0  0.68375824079E-01 -0.83341473757E-01 -0.61989127224E-01  0.12588517970E+00  0.19579887810E-01 0.  0.
         14    1    1    2    0    0  0.21650461356E-02  0.10659507287E-01 -0.25698464775E-01  0.27905619723E-01  0.00000000000E+00 0.  1.
     999901    1    3    3    0    0 -0.70540870214E-01  0.72681966470E-01  0.87687591999E-01  0.89013920058E+00  0.88000000000E+00 0.  1.
        -11    1    4    4    0    0  0.41255837265E-01 -0.64240691313E-01 -0.44775997998E-01  0.88510234699E-01  0.51100000000E-03 0. -1.
         11    1    4    4    0    0  0.27119986814E-01 -0.19100782444E-01 -0.17213129227E-01  0.37374944997E-01  0.51100000000E-03 0.  1.
</event>
<event>
 8    1  0.1064839E+005  0.1043930E+01  0.7957747E-01            NaN
         13   -1    0    0    0    0  0.00000000000E+00  0.00000000000E+00  0.74505805969E-08  0.10566000000E+00  0.10566000000E+00 0. -1.
     999900   -1    0    0    0    0 -0.00000000000E+00 -0.00000000000E+00 -0.74505805969E-08  0.93827000000E+00  0.93827000000E+00 0.  1.
     999902    2    1    2    0    0 -0.23107261507E-01  0.11995361465E-02  0.34525147352E-02  0.10205354648E+01  0.10202672839E+01 0.  0.
     999903    2    3    3    0    0 -0.86519226739E-01 -0.95103111608E-01 -0.25006700334E-01  0.13255730949E+00  0.20394283655E-01 0.  0.
         14    1    1    2    0    0  0.23107261507E-01 -0.11995361465E-02 -0.34525147352E-02  0.23394535244E-01  0.00000000000E+00 0.  1.
     999901    1    3    3    0    0  0.63411965232E-01  0.96302647754E-01  0.28459215069E-01  0.88797815526E+00  0.88000000000E+00 0.  1.
        -11    1    4    4    0    0 -0.42726559376E-01 -0.36534903867E-01 -0.18279657660E-01  0.59116538142E-01  0.51100000000E-03 0. -1.
         11    1    4    4    0    0 -0.43792667363E-01 -0.58568207741E-01 -0.67270426733E-02  0.73440771353E-01  0.51100000000E-03 0.  1.
</event>
<event>
 8    1  0.1064839E+005  0.1043930E+01  0.7957747E-01            NaN
         13   -1    0    0    0    0  0.00000000000E+00  0.00000000000E+00  0.74505805969E-08  0.10566000000E+00  0.10566000000E+00 0.  1.
     999900   -1    0    0    0    0 -0.00000000000E+00 -0.00000000000E+00 -0.74505805969E-08  0.93827000000E+00  0.93827000000E+00 0. -1.
     999902    2    1    2    0    0 -0.16564169610E-01  0.10402703738E-01  0.10773875521E-01  0.10215992062E+01  0.10213551163E+01 0.  0.
     999903    2    3    3    0    0  0.20305254321E-01  0.60565186332E-01  0.11498951622E+00  0.13326563770E+00  0.21370451621E-01 0.  0.
         14    1    1    2    0    0  0.16564169610E-01 -0.10402703738E-01 -0.10773875521E-01  0.22330793843E-01  0.00000000000E+00 0.  1.
     999901    1    3    3    0    0 -0.36869423932E-01 -0.50162482594E-01 -0.10421564070E+00  0.88833356846E+00  0.88000000000E+00 0. -1.
        -11    1    4    4    0    0  0.12664079834E-01  0.34378009429E-01  0.85874834609E-01  0.93364740617E-01  0.51100000000E-03 0.  1.
         11    1    4    4    0    0  0.76411744874E-02  0.26187176903E-01  0.29114681611E-01  0.39900897083E-01  0.51100000000E-03 0. -1.
</event>
<event>
 8    1  0.1064839E+005  0.1043930E+01  0.7957747E-01            NaN
         13   -1    0    0    0    0  0.00000000000E+00  0.00000000000E+00  0.74505805969E-08  0.10566000000E+00  0.10566000000E+00 0. -1.
     999900   -1    0    0    0    0 -0.00000000000E+00 -0.00000000000E+00 -0.74505805969E-08  0.93827000000E+00  0.93827000000E+00 0. -1.
     999902    2    1    2    0    0  0.92530018326E-02  0.22528877584E-01 -0.13924499547E-02  0.10195351791E+01  0.10192432851E+01 0.  0.
     999903    2    3    3    0    0 -0.66273582131E-01  0.78433357501E-01  0.78146760856E-01  0.13096550724E+00  0.22384561565E-01 0.  0.
         14    1    1    2    0    0 -0.92530018326E-02 -0.22528877584E-01  0.13924499547E-02  0.24394820864E-01  0.00000000000E+00 0.  1.
     999901    1    3    3    0    0  0.75526583964E-01 -0.55904479917E-01 -0.79539210811E-01  0.88856967190E+00  0.88000000000E+00 0. -1.
        -11    1    4    4    0    0 -0.49073572235E-01  0.41375077935E-01  0.45839159487E-01  0.78877133756E-01  0.51100000000E-03 0.  1.
         11    1    4    4    0    0 -0.17200009896E-01  0.37058279566E-01  0.32307601369E-01  0.52088373483E-01  0.51100000000E-03 0. -1.
</event>
<event>
 8    1  0.1064839E+005  0.1043930E+01  0.7957747E-01            NaN
         13   -1    0    0    0    0  0.00000000000E+00  0.00000000000E+00  0.74505805969E-08  0.10566000000E+00  0.10566000000E+00 0. -1.
     999900   -1    0    0    0    0 -0.00000000000E+00 -0.00000000000E+00 -0.74505805969E-08  0.93827000000E+00  0.93827000000E+00 0.  1.
     999902    2    1    2    0    0 -0.16132907150E-01  0.17323481276E-01 -0.23144587260E-02  0.10201449119E+01  0.10198675948E+01 0.  0.
     999903    2    3    3    0    0 -0.20232586209E-01 -0.12490392581E+00 -0.11429760382E-01  0.12866943191E+00  0.20367500067E-01 0.  0.
         14    1    1    2    0    0  0.16132907150E-01 -0.17323481276E-01  0.23144587260E-02  0.23785088097E-01  0.00000000000E+00 0.  1.
     999901    1    3    3    0    0  0.40996790590E-02  0.14222740709E+00  0.91153016564E-02  0.89147547999E+00  0.88000000000E+00 0. -1.
        -11    1    4    4    0    0 -0.63734853335E-02 -0.90510047598E-01 -0.38449874120E-02  0.90817041796E-01  0.51100000000E-03 0.  1.
         11    1    4    4    0    0 -0.13859100875E-01 -0.34393878214E-01 -0.75847729703E-02  0.37852390119E-01  0.51100000000E-03 0. -1.
</event>
<event>
 8    1  0.1064839E+005  0.1043930E+01  0.7957747E-01            NaN
         13   -1    0    0    0    0  0.00000000000E+00  0.00000000000E+00  0.74505805969E-08  0.10566000000E+00  0.10566000000E+00 0. -1.
     999900   -1    0    0    0    0 -0.00000000000E+00 -0.00000000000E+00 -0.74505805969E-08  0.93827000000E+00  0.93827000000E+00 0. -1.
     999902    2    1    2    0    0 -0.99693518568E-02 -0.82734489599E-02  0.22594335934E-01  0.10178850014E+01  0.10175517354E+01 0.  0.
     999903    2    3    3    0    0 -0.93385484037E-01 -0.86092421259E-01 -0.16482994859E-01  0.12966144774E+00  0.20190301695E-01 0.  0.
         14    1    1    2    0    0  0.99693518568E-02  0.82734489599E-02 -0.22594335934E-01  0.26044998568E-01  0.00000000000E+00 0. -1.
     999901    1    3    3    0    0  0.83416132180E-01  0.77818972299E-01  0.39077330793E-01  0.88822355370E+00  0.88000000000E+00 0. -1.
        -11    1    4    4    0    0 -0.73619997596E-01 -0.61338769952E-01 -0.19659173507E-01  0.97821740780E-01  0.51100000000E-03 0. -1.
         11    1    4    4    0    0 -0.19765486441E-01 -0.24753651307E-01  0.31761786478E-02  0.31839706957E-01  0.51100000000E-03 0.  1.
</event>
<event>
 8    1  0.1064839E+005  0.1043930E+01  0.7957747E-01            NaN
         13   -1    0    0    0    0  0.00000000000E+00  0.00000000000E+00  0.74505805969E-08  0.10566000000E+00  0.10566000000E+00 0.  1.
     999900   -1    0    0    0    0 -0.00000000000E+00 -0.00000000000E+00 -0.74505805969E-08  0.93827000000E+00  0.93827000000E+00 0. -1.
     999902    2    1    2    0    0 -0.32164825056E-02 -0.11864564348E-01 -0.20144903008E-01  0.10203306194E+01  0.10200576661E+01 0.  0.
     999903    2    3    3    0    0  0.51257773434E-01 -0.11535584011E+00 -0.33469237632E-01  0.13249311930E+00  0.22358613771E-01 0.  0.
         14    1    1    2    0    0  0.32164825056E-02  0.11864564348E-01  0.20144903008E-01  0.23599380587E-01  0.00000000000E+00 0.  1.
     999901    1    3    3    0    0 -0.54474255939E-01  0.10349127576E+00  0.13324334624E-01  0.88783750012E+00  0.88000000000E+00 0.  1.
        -11    1    4    4    0    0  0.22661862084E-01 -0.29687053554E-01 -0.43810486860E-02  0.37607656806E-01  0.51100000000E-03 0. -1.
         11    1    4    4    0    0  0.28595911349E-01 -0.85668786552E-01 -0.29088188946E-01  0.94885462492E-01  0.51100000000E-03 0.  1.
</event>
<event>
 8    1  0.1064839E+005  0.1043930E+01  0.7957747E-01            NaN
         13   -1    0    0    0    0  0.00000000000E+00  0.00000000000E+00  0.74505805969E-08  0.10566000000E+00  0.10566000000E+00 0.  1.
     999900   -1    0    0    0    0 -0.00000000000E+00 -0.00000000000E+00 -0.74505805969E-08  0.93827000000E+00  0.93827000000E+00 0. -1.
     999902    2    1    2    0    0 -0.14369324538E-01  0.51540777870E-02  0.17467757133E-01  0.10207316262E+01  0.10204679751E+01 0.  0.
     999903    2    3    3    0    0  0.56385354569E-02  0.65909236599E-01 -0.10933013805E+00  0.12934550901E+00  0.20033997690E-01 0.  0.
         14    1    1    2    0    0  0.14369324538E-01 -0.51540777870E-02 -0.17467757133E-01  0.23198373753E-01  0.00000000000E+00 0. -1.
     999901    1    3    3    0    0 -0.20007859995E-01 -0.60755158812E-01  0.12679789518E+00  0.89138611724E+00  0.88000000000E+00 0.  1.
        -11    1    4    4    0    0  0.71042700078E-02  0.30233687055E-01 -0.67784418853E-01  0.74562289702E-01  0.51100000000E-03 0. -1.
         11    1    4    4    0    0 -0.14657345509E-02  0.35675549544E-01 -0.41545719196E-01  0.54783219306E-01  0.51100000000E-03 0.  1.
</event>
<event>
 8    1  0.1064839E+005  0.1043930E+01  0.7957747E-01            NaN
         13   -1    0    0    0    0  0.00000000000E+00  0.00000000000E+00  0.74505805969E-08  0.10566000000E+00  0.10566000000E+00 0. -1.
     999900   -1    0    0    0    0 -0.00000000000E+00 -0.00000000000E+00 -0.74505805969E-08  0.93827000000E+00  0.93827000000E+00 0. -1.
     999902    2    1    2    0    0  0.15996614657E-02  0.20983953898E-01 -0.14700956486E-01  0.10182589393E+01  0.10179352946E+01 0.  0.
     999903    2    3    3    0    0  0.49763184093E-01 -0.16205387988E-02  0.11531216915E+00  0.12711691868E+00  0.19565633769E-01 0.  0.
         14    1    1    2    0    0 -0.15996614657E-02 -0.20983953898E-01  0.14700956486E-01  0.25671060742E-01  0.00000000000E+00 0. -1.
     999901    1    3    3    0    0 -0.48163522627E-01  0.22604492697E-01 -0.13001312563E+00  0.89114202058E+00  0.88000000000E+00 0. -1.
        -11    1    4    4    0    0  0.37794859540E-01 -0.93793574180E-02  0.89859507624E-01  0.97935774795E-01  0.51100000000E-03 0.  1.
         11    1    4    4    0    0  0.11968324553E-01  0.77588186192E-02  0.25452661521E-01  0.29181143886E-01  0.51100000000E-03 0. -1.
</event>
<event>
 8    1  0.1064839E+005  0.1043930E+01  0.7957747E-01            NaN
         13   -1    0    0    0    0  0.00000000000E+00  0.00000000000E+00  0.74505805969E-08  0.10566000000E+00  0.10566000000E+00 0.  1.
     999900   -1    0    0    0    0 -0.00000000000E+00 -0.00000000000E+00 -0.74505805969E-08  0.93827000000E+00  0.93827000000E+00 0. -1.
     999902    2    1    2    0    0 -0.14917186380E-01  0.14112944789E-01 -0.11763663946E-01  0.10202639600E+01  0.10199894444E+01 0.  0.
     999903    2    3    3    0    0  0.75972349679E-01  0.10435143078E+00  0.82777489503E-02  0.13076660174E+00  0.19244842935E-01 0.  0.
         14    1    1    2    0    0  0.14917186380E-01 -0.14112944789E-01  0.11763663946E-01  0.23666040006E-01  0.00000000000E+00 0.  1.
     999901    1    3    3    0    0 -0.90889536059E-01 -0.90238485993E-01 -0.20041412896E-01  0.88949735826E+00  0.88000000000E+00 0. -1.
        -11    1    4    4    0    0  0.32479081664E-01  0.40859176906E-01 -0.58282217299E-02  0.52522303574E-01  0.51100000000E-03 0.  1.
         11    1    4    4    0    0  0.43493268014E-01  0.63492253876E-01  0.14105970680E-01  0.78244298161E-01  0.51100000000E-03 0. -1.
</event>
<event>
 8    1  0.1064839E+005  0.1043930E+01  0.7957747E-01            NaN
         13   -1    0    0    0    0  0.00000000000E+00  0.00000000000E+00  0.74505805969E-08  0.10566000000E+00  0.10566000000E+00 0. -1.
     999900   -1    0    0    0    0 -0.00000000000E+00 -0.00000000000E+00 -0.74505805969E-08  0.93827000000E+00  0.93827000000E+00 0.  1.
     999902    2    1    2    0    0 -0.12118999858E-01  0.13529783344E-01 -0.13405421352E-01  0.10213550024E+01  0.10211054845E+01 0.  0.
     999903    2    3    3    0    0 -0.48108261583E-01  0.33354944546E-01  0.11545672406E+00  0.13102151629E+00  0.20234264055E-01 0.  0.
         14    1    1    2    0    0  0.12118999858E-01 -0.13529783344E-01  0.13405421352E-01  0.22574997597E-01  0.00000000000E+00 0. -1.
     999901    1    3    3    0    0  0.35989261726E-01 -0.19825161201E-01 -0.12886214541E+00  0.89033348611E+00  0.88000000000E+00 0.  1.
        -11    1    4    4    0    0 -0.61125596659E-02  0.11154818764E-02  0.28825102440E-01  0.29491614693E-01  0.51100000000E-03 0. -1.
         11    1    4    4    0    0 -0.41995701917E-01  0.32239462669E-01  0.86631621619E-01  0.10152990160E+00  0.51100000000E-03 0.  1.
</event>
<event>
 8    1  0.1064839E+005  0.1043930E+01  0.7957747E-01            NaN
         13   -1    0    0    0    0  0.00000000000E+00  0.00000000000E+00  0.74505805969E-08  0.10566000000E+00  0.10566000000E+00 0. -1.
     999900   -1    0    0    0    0 -0.00000000000E+00 -0.00000000000E+00 -0.74505805969E-08  0.93827000000E+00  0.93827000000E+00 0.  1.
     999902    2    1    2    0    0  0.56760234823E-02  0.23287799309E-01 -0.30657459972E-02  0.10197651984E+01  0.10194788483E+01 0.  0.
     999903    2    3    3    0    0 -0.19403721616E-01 -0.82315055427E-01 -0.94331746375E-01  0.12841204761E+00  0.20950008010E-01 0.  0.
         14    1    1    2    0    0 -0.56760234823E-02 -0.23287799309E-01  0.30657459972E-02  0.24164801629E-01  0.00000000000E+00 0. -1.
     999901    1    3    3    0    0  0.25079745098E-01  0.10560285474E+00  0.91266000377E-01  0.89135315076E+00  0.88000000000E+00 0.  1.
        -11    1    4    4    0    0 -0.14529086150E-01 -0.62877527107E-01 -0.83792271096E-01  0.10576428308E+00  0.51100000000E-03 0.  1.
         11    1    4    4    0    0 -0.48746354653E-02 -0.19437528319E-01 -0.10539475279E-01  0.22647764530E-01  0.51100000000E-03 0. -1.
</event>
<event>
 8    1  0.1064839E+005  0.1043930E+01  0.7957747E-01            NaN
         13   -1    0    0    0    0  0.00000000000E+00  0.00000000000E+00  0.74505805969E-08  0.10566000000E+00  0.10566000000E+00 0. -1.
     999900   -1    0    0    0    0 -0.00000000000E+00 -0.00000000000E+00 -0.74505805969E-08  0.93827000000E+00  0.93827000000E+00 0.  1.
     999902    2    1    2    0    0 -0.81235274568E-02 -0.21004779570E-01  0.73482237341E-02  0.10202405750E+01  0.10199655102E+01 0.  0.
     999903    2    3    3    0    0 -0.68377574131E-01  0.21006084077E-01  0.10841857299E+00  0.13141512631E+00  0.19964975369E-01 0.  0.
         14    1    1    2    0    0  0.81235274568E-02  0.21004779570E-01 -0.73482237341E-02  0.23689424965E-01  0.00000000000E+00 0.  1.
     999901    1    3    3    0    0  0.60254046674E-01 -0.42010863647E-01 -0.10107034925E+00  0.88882544873E+00  0.88000000000E+00 0.  1.
        -11    1    4    4    0    0 -0.36845134211E-01  0.11878387913E-02  0.58119063545E-01  0.68826314331E-01  0.51100000000E-03 0.  1.
         11    1    4    4    0    0 -0.31532439919E-01  0.19818245285E-01  0.50299509444E-01  0.62588811977E-01  0.51100000000E-03 0. -1.
</event>
<event>
 8    1  0.1064839E+005  0.1043930E+01  0.7957747E-01            NaN
         13   -1    0    0    0    0  0.00000000000E+00  0.00000000000E+00  0.74505805969E-08  0.10566000000E+00  0.10566000000E+00 0.  1.
     999900   -1    0    0    0    0 -0.00000000000E+00 -0.00000000000E+00 -0.74505805969E-08  0.93827000000E+00  0.93827000000E+00 0. -1.
     999902    2    1    2    0    0 -0.15173432891E-01  0.18132782770E-01 -0.39478378779E-02  0.10199588444E+01  0.10196771195E+01 0.  0.
     999903    2    3    3    0    0 -0.12256696478E+00  0.44193314303E-01  0.16199448725E-01  0.13281824949E+00  0.20063782646E-01 0.  0.
         14    1    1    2    0    0  0.15173432891E-01 -0.18132782770E-01  0.39478378779E-02  0.23971155596E-01  0.00000000000E+00 0.  1.
     999901    1    3    3    0    0  0.10739353188E+00 -0.26060531533E-01 -0.20147286603E-01  0.88714059492E+00  0.88000000000E+00 0. -1.
        -11    1    4    4    0    0 -0.87640917039E-01  0.34617553297E-01  0.30314532026E-02  0.94280200282E-01  0.51100000000E-03 0.  1.
         11    1    4    4    0    0 -0.34926047737E-01  0.95757610064E-02  0.13167995522E-01  0.38538049204E-01  0.51100000000E-03 0. -1.
</event>
<event>
 8    1  0.1064839E+005  0.1043930E+01  0.7957747E-01            NaN
         13   -1    0    0    0    0  0.00000000000E+00  0.00000000000E+00  0.74505805969E-08  0.10566000000E+00  0.10566000000E+00 0. -1.
     999900   -1    0    0    0    0 -0.00000000000E+00 -0.00000000000E+00 -0.74505805969E-08  0.93827000000E+00  0.93827000000E+00 0. -1.
     999902    2    1    2    0    0 -0.44998853655E-02  0.18435574776E-01  0.17668207582E-01  0.10180015418E+01  0.10176712898E+01 0.  0.
     999903    2    3    3    0    0 -0.11399705877E+00 -0.52113576364E-01 -0.12423207047E-01  0.12790474541E+00  0.22229115472E-01 0.  0.
         14    1    1    2    0    0  0.44998853655E-02 -0.18435574776E-01 -0.17668207582E-01  0.25928458203E-01  0.00000000000E+00 0.  1.
     999901    1    3    3    0    0  0.10949717340E+00  0.70549151140E-01  0.30091414629E-01  0.89009679639E+00  0.88000000000E+00 0. -1.
        -11    1    4    4    0    0 -0.11112328668E+00 -0.46786108535E-01 -0.89414155667E-02  0.12090299760E+00  0.51100000000E-03 0. -1.
         11    1    4    4    0    0 -0.28737720900E-02 -0.53274678293E-02 -0.34817914804E-02  0.70017478111E-02  0.51100000000E-03 0.  1.
</event>
<event>
 8    1  0.1064839E+005  0.1043930E+01  0.7957747E-01            NaN
         13   -1    0    0    0    0  0.00000000000E+00  0.00000000000E+00  0.74505805969E-08  0.10566000000E+00  0.10566000000E+00 0. -1.
     999900   -1    0    0    0    0 -0.00000000000E+00 -0.00000000000E+00 -0.74505805969E-08  0.93827000000E+00  0.93827000000E+00 0.  1.
     999902    2    1    2    0    0 -0.37476968469E-02 -0.23216270757E-01 -0.53073945702E-02  0.10198217256E+01  0.10195367296E+01 0.  0.
     999903    2    3    3    0    0  0.62401316345E-02 -0.13072230438E+00 -0.17263497778E-01  0.13314238533E+00  0.17366816316E-01 0.  0.
         14    1    1    2    0    0  0.37476968469E-02  0.23216270757E-01  0.53073945702E-02  0.24108274444E-01  0.00000000000E+00 0. -1.
     999901    1    3    3    0    0 -0.99878284814E-02  0.10750603363E+00  0.11956103208E-01  0.88667934023E+00  0.88000000000E+00 0.  1.
        -11    1    4    4    0    0  0.27595047713E-03 -0.24606947180E-01 -0.10137539532E-01  0.26619707492E-01  0.51100000000E-03 0. -1.
         11    1    4    4    0    0  0.59641811574E-02 -0.10611535720E+00 -0.71259582457E-02  0.10652267784E+00  0.51100000000E-03 0.  1.
</event>
<event>
 8    1  0.1064839E+005  0.1043930E+01  0.7957747E-01            NaN
         13   -1    0    0    0    0  0.00000000000E+00  0.00000000000E+00  0.74505805969E-08  0.10566000000E+00  0.10566000000E+00 0.  1.
     999900   -1    0    0    0    0 -0.00000000000E+00 -0.00000000000E+00 -0.74505805969E-08  0.93827000000E+00  0.93827000000E+00 0.  1.
     999902    2    1    2    0    0  0.20529437533E-01 -0.38432181565E-02 -0.11443565115E-01  0.10201143893E+01  0.10198363515E+01 0.  0.
     999903    2    3    3    0    0 -0.24812327594E-01  0.97683457314E-01  0.77321683026E-01  0.12868698855E+00  0.20590991323E-01 0.  0.
         14    1    1    2    0    0 -0.20529437533E-01  0.38432181565E-02  0.11443565115E-01  0.23815610715E-01  0.00000000000E+00 0. -1.
     999901    1    3    3    0    0  0.45341765126E-01 -0.10152667547E+00 -0.88765248141E-01  0.89142740073E+00  0.88000000000E+00 0.  1.
        -11    1    4    4    0    0 -0.15182206533E-02  0.21877883196E-01  0.26897214448E-01  0.34708328008E-01  0.51100000000E-03 0.  1.
         11    1    4    4    0    0 -0.23294106941E-01  0.75805574118E-01  0.50424468578E-01  0.93978660545E-01  0.51100000000E-03 0. -1.
</event>
<event>
 7    1  0.1064839E+005  0.1043930E+01  0.7957747E-01            NaN
         13   -1    0    0    0    0  0.00000000000E+00  0.00000000000E+00  0.74505805969E-08  0.10566000000E+00  0.10566000000E+00 0. -1.
     999900   -1    0    0    0    0 -0.00000000000E+00 -0.00000000000E+00 -0.74505805969E-08  0.93827000000E+00  0.93827000000E+00 0. -1.
     999903    2    1    2    0    0 -0.83689096699E-01  0.33127665952E-01  0.70916400244E-01  0.11637457349E+00  0.20312517661E-01 0.  0.
         14    1    1    2    0    0 -0.14921612539E-01  0.45786666440E-02 -0.37496486999E-01  0.40615332650E-01  0.00000000000E+00 0.  1.
     999901    1    1    2    0    0  0.98610709238E-01 -0.37706332596E-01 -0.33419913245E-01  0.88694009386E+00  0.88000000000E+00 0. -1.
        -11    1    3    3    0    0 -0.35132063035E-01  0.24759506065E-01  0.32098775860E-01  0.53645946039E-01  0.51100000000E-03 0.  1.
         11    1    3    3    0    0 -0.48557033664E-01  0.83681598872E-02  0.38817624384E-01  0.62728627451E-01  0.51100000000E-03 0. -1.
</event>
<event>
 7    1  0.1064839E+005  0.1043930E+01  0.7957747E-01            NaN
         13   -1    0    0    0    0  0.00000000000E+00  0.00000000000E+00  0.74505805969E-08  0.10566000000E+00  0.10566000000E+00 0. -1.
     999900   -1    0    0    0    0 -0.00000000000E+00 -0.00000000000E+00 -0.74505805969E-08  0.93827000000E+00  0.93827000000E+00 0. -1.
     999903    2    1    2    0    0  0.36194608352E-02  0.10192554900E+00 -0.23964515111E-01  0.10742679909E+00  0.23755023515E-01 0.  0.
         14    1    1    2    0    0  0.20145528323E-01  0.23750288973E-01  0.35444147650E-01  0.47182688990E-01  0.00000000000E+00 0. -1.
     999901    1    1    2    0    0 -0.23764989158E-01 -0.12567583797E+00 -0.11479632539E-01  0.88932051192E+00  0.88000000000E+00 0. -1.
        -11    1    3    3    0    0  0.98309016637E-02  0.54165909694E-01 -0.21804135219E-01  0.59213797667E-01  0.51100000000E-03 0. -1.
         11    1    3    3    0    0 -0.62114408285E-02  0.47759639306E-01 -0.21603798926E-02  0.48213001422E-01  0.51100000000E-03 0.  1.
</event>
<event>
 8    1  0.1064839E+005  0.1043930E+01  0.7957747E-01            NaN
         13   -1    0    0    0    0  0.00000000000E+00  0.00000000000E+00  0.74505805969E-08  0.10566000000E+00  0.10566000000E+00 0.  1.
     999900   -1    0    0    0    0 -0.00000000000E+00 -0.00000000000E+00 -0.74505805969E-08  0.93827000000E+00  0.93827000000E+00 0.  1.
     999902    2    1    2    0    0 -0.71809367517E-02  0.36433802598E-03 -0.23041718464E-01  0.10197924901E+01  0.10195067942E+01 0.  0.
     999903    2    3    3    0    0  0.85580800368E-01 -0.38088123329E-01 -0.90088791486E-01  0.13154779314E+00  0.20348292278E-01 0.  0.
         14    1    1    2    0    0  0.71809367517E-02 -0.36433802598E-03  0.23041718464E-01  0.24137509909E-01  0.00000000000E+00 0.  1.
     999901    1    3    3    0    0 -0.92761737120E-01  0.38452461355E-01  0.67047073021E-01  0.88824469695E+00  0.88000000000E+00 0.  1.
        -11    1    4    4    0    0  0.16656173381E-01 -0.10991455352E-01 -0.95376257840E-02  0.22123915319E-01  0.51100000000E-03 0.  1.
         11    1    4    4    0    0  0.68924626987E-01 -0.27096667977E-01 -0.80551165702E-01  0.10942387782E+00  0.51100000000E-03 0. -1.
</event>
<event>
 8    1  0.1064839E+005  0.1043930E+01  0.7957747E-01            NaN
         13   -1    0    0    0    0  0.00000000000E+00  0.00000000000E+00  0.74505805969E-08  0.10566000000E+00  0.10566000000E+00 0.  1.
     999900   -1    0    0    0    0 -0.00000000000E+00 -0.00000000000E+00 -0.74505805969E-08  0.93827000000E+00  0.93827000000E+00 0.  1.
     999902    2    1    2    0    0 -0.23981305073E-01 -0.13565298660E-02  0.69946286850E-03  0.10199001766E+01  0.10196170545E+01 0.  0.
     999903    2    3    3    0    0  0.43675387338E-01  0.91876747398E-01 -0.76847297597E-01  0.12901108578E+00  0.19735169967E-01 0.  0.
         14    1    1    2    0    0  0.23981305073E-01  0.13565298660E-02 -0.69946286850E-03  0.24029823441E-01  0.00000000000E+00 0.  1.
     999901    1    3    3    0    0 -0.67656692412E-01 -0.93233277264E-01  0.77546760466E-01  0.89088909078E+00  0.88000000000E+00 0. -1.
        -11    1    4    4    0    0  0.42548899786E-01  0.77267560732E-01 -0.70971019583E-01  0.11321586265E+00  0.51100000000E-03 0. -1.
         11    1    4    4    0    0  0.11264875527E-02  0.14609186665E-01 -0.58762780145E-02  0.15795223124E-01  0.51100000000E-03 0.  1.
</event>
<event>
 8    1  0.1064839E+005  0.1043930E+01  0.7957747E-01            NaN
         13   -1    0    0    0    0  0.00000000000E+00  0.00000000000E+00  0.74505805969E-08  0.10566000000E+00  0.10566000000E+00 0. -1.
     999900   -1    0    0    0    0 -0.00000000000E+00 -0.00000000000E+00 -0.74505805969E-08  0.93827000000E+00  0.93827000000E+00 0.  1.
     999902    2    1    2    0    0 -0.83025140339E-02 -0.43412880407E-03 -0.22444415114E-01  0.10199952559E+01  0.10197143963E+01 0.  0.
     999903    2    3    3    0    0 -0.10761213710E+00 -0.22592125862E-01 -0.71790093789E-01  0.13275888709E+00  0.19502008449E-01 0.  0.
         14    1    1    2    0    0  0.83025140339E-02  0.43412880407E-03  0.22444415114E-01  0.23934744138E-01  0.00000000000E+00 0. -1.
     999901    1    3    3    0    0  0.99309623065E-01  0.22157997058E-01  0.49345678674E-01  0.88723636877E+00  0.88000000000E+00 0.  1.
        -11    1    4    4    0    0 -0.30563187392E-01 -0.12044914283E-01 -0.29908281508E-01  0.44429211195E-01  0.51100000000E-03 0. -1.
         11    1    4    4    0    0 -0.77048949707E-01 -0.10547211580E-01 -0.41881812281E-01  0.88329675896E-01  0.51100000000E-03 0.  1.
</event>
<event>
 8    1  0.1064839E+005  0.1043930E+01  0.7957747E-01            NaN
         13   -1    0    0    0    0  0.00000000000E+00  0.00000000000E+00  0.74505805969E-08  0.10566000000E+00  0.10566000000E+00 0. -1.
     999900   -1    0    0    0    0 -0.00000000000E+00 -0.00000000000E+00 -0.74505805969E-08  0.93827000000E+00  0.93827000000E+00 0. -1.
     999902    2    1    2    0    0 -0.13872557512E-01 -0.14215431283E-01  0.18461165473E-01  0.10168128289E+01  0.10164511735E+01 0.  0.
     999903    2    3    3    0    0 -0.42440427940E-01  0.24763742670E-01 -0.11360093419E+00  0.12564735750E+00  0.21625293633E-01 0.  0.
         14    1    1    2    0    0  0.13872557512E-01  0.14215431283E-01 -0.18461165473E-01  0.27117171112E-01  0.00000000000E+00 0.  1.
     999901    1    3    3    0    0  0.28567870428E-01 -0.38979173954E-01  0.13206209966E+00  0.89116547139E+00  0.88000000000E+00 0.  1.
        -11    1    4    4    0    0 -0.91105449067E-02  0.17220805151E-01 -0.42896336083E-01  0.47115973182E-01  0.51100000000E-03 0. -1.
         11    1    4    4    0    0 -0.33329883034E-01  0.75429375196E-02 -0.70704598103E-01  0.78531384321E-01  0.51100000000E-03 0.  1.
</event>
<event>
 7    1  0.1064839E+005  0.1043930E+01  0.7957747E-01            NaN
         13   -1    0    0    0    0  0.00000000000E+00  0.00000000000E+00  0.74505805969E-08  0.10566000000E+00  0.10566000000E+00 0.  1.
     999900   -1    0    0    0    0 -0.00000000000E+00 -0.00000000000E+00 -0.74505805969E-08  0.93827000000E+00  0.93827000000E+00 0. -1.
     999902    2    1    2    0    0  0.11090940745E-01  0.16433905417E-01  0.12488239300E-01  0.10204984329E+01  0.10202293925E+01 0.  0.
         14    1    1    2    0    0 -0.11090940745E-01 -0.16433905417E-01 -0.12488239300E-01  0.23431567056E-01  0.00000000000E+00 0.  1.
     999901    1    3    3    0    0 -0.54616443118E-03 -0.10526486761E+00 -0.28512792893E-01  0.88673218618E+00  0.88000000000E+00 0.  1.
        -11    1    3    3    0    0  0.23171670930E-01  0.68220274634E-01  0.17033533698E-01  0.74036035794E-01  0.51100000000E-03 0.  1.
         11    1    3    3    0    0 -0.11534565754E-01  0.53478498393E-01  0.23967498495E-01  0.59730210971E-01  0.51100000000E-03 0. -1.
</event>
<event>
 8    1  0.1064839E+005  0.1043930E+01  0.7957747E-01            NaN
         13   -1    0    0    0    0  0.00000000000E+00  0.00000000000E+00  0.74505805969E-08  0.10566000000E+00  0.10566000000E+00 0.  1.
     999900   -1    0    0    0    0 -0.00000000000E+00 -0.00000000000E+00 -0.74505805969E-08  0.93827000000E+00  0.93827000000E+00 0.  1.
     999902    2    1    2    0    0 -0.18976819117E-01 -0.43673603705E-02 -0.15641101737E-01  0.10189532595E+01  0.10186470967E+01 0.  0.
     999903    2    3    3    0    0 -0.11789204448E-01  0.12406521198E+00 -0.28823271937E-01  0.12950379102E+00  0.20230885231E-01 0.  0.
         14    1    1    2    0    0  0.18976819117E-01  0.43673603705E-02  0.15641101737E-01  0.24976740459E-01  0.00000000000E+00 0.  1.
     999901    1    3    3    0    0 -0.71876146691E-02 -0.12843257235E+00  0.13182170200E-01  0.88944946852E+00  0.88000000000E+00 0. -1.
        -11    1    4    4    0    0  0.32064038803E-02  0.41980594558E-01 -0.32633350296E-02  0.42232236761E-01  0.51100000000E-03 0. -1.
         11    1    4    4    0    0 -0.14995608329E-01  0.82084617423E-01 -0.25559936907E-01  0.87271554257E-01  0.51100000000E-03 0.  1.
</event>
<event>
 8    1  0.1064839E+005  0.1043930E+01  0.7957747E-01            NaN
         13   -1    0    0    0    0  0.00000000000E+00  0.00000000000E+00  0.74505805969E-08  0.10566000000E+00  0.10566000000E+00 0.  1.
     999900   -1    0    0    0    0 -0.00000000000E+00 -0.00000000000E+00 -0.74505805969E-08  0.93827000000E+00  0.93827000000E+00 0.  1.
     999902    2    1    2    0    0 -0.17667414406E-01  0.13836771906E-01  0.73231244321E-02  0.10203244511E+01  0.10200513534E+01 0.  0.
     999903    2    3    3    0    0 -0.76644160133E-02  0.61425825656E-01 -0.11354463000E+00  0.13073252661E+00  0.19150331089E-01 0.  0.
         14    1    1    2    0    0  0.17667414406E-01 -0.13836771906E-01 -0.73231244321E-02  0.23605548924E-01  0.00000000000E+00 0. -1.
     999901    1    3    3    0    0 -0.10002998393E-01 -0.47589053751E-01  0.12086775443E+00  0.88959192447E+00  0.88000000000E+00 0. -1.
        -11    1    4    4    0    0  0.58753933869E-02  0.28298711848E-01 -0.54341353282E-01  0.61551451138E-01  0.51100000000E-03 0.  1.
         11    1    4    4    0    0 -0.13539809400E-01  0.33127113808E-01 -0.59203276721E-01  0.69181075471E-01  0.51100000000E-03 0. -1.
</event>
<event>
 8    1  0.1064839E+005  0.1043930E+01  0.7957747E-01            NaN
         13   -1    0    0    0    0  0.00000000000E+00  0.00000000000E+00  0.74505805969E-08  0.10566000000E+00  0.10566000000E+00 0.  1.
     999900   -1    0    0    0    0 -0.00000000000E+00 -0.00000000000E+00 -0.74505805969E-08  0.93827000000E+00  0.93827000000E+00 0. -1.
     999902    2    1    2    0    0  0.57537525608E-02 -0.56091822296E-02 -0.22955777899E-01  0.10196084800E+01  0.10193183586E+01 0.  0.
     999903    2    3    3    0    0 -0.52343266599E-01  0.74284526401E-01  0.86873872374E-01  0.12729641558E+00  0.19982474769E-01 0.  0.
         14    1    1    2    0    0 -0.57537525608E-02  0.56091822296E-02  0.22955777899E-01  0.24321519951E-01  0.00000000000E+00 0.  1.
     999901    1    3    3    0    0  0.58097019159E-01 -0.79893708631E-01 -0.10982965027E+00  0.89231206447E+00  0.88000000000E+00 0. -1.
        -11    1    4    4    0    0 -0.49440413577E-01  0.57783837112E-01  0.67577229236E-01  0.10173627356E+00  0.51100000000E-03 0.  1.
         11    1    4    4    0    0 -0.29028530212E-02  0.16500689289E-01  0.19296643137E-01  0.25560142019E-01  0.51100000000E-03 0. -1.
</event>
<event>
 8    1  0.1064839E+005  0.1043930E+01  0.7957747E-01            NaN
         13   -1    0    0    0    0  0.00000000000E+00  0.00000000000E+00  0.74505805969E-08  0.10566000000E+00  0.10566000000E+00 0. -1.
     999900   -1    0    0    0    0 -0.00000000000E+00 -0.00000000000E+00 -0.74505805969E-08  0.93827000000E+00  0.93827000000E+00 0. -1.
     999902    2    1    2    0    0 -0.75995223696E-03 -0.19780353902E-01 -0.11634709579E-01  0.10209690245E+01  0.10207108026E+01 0.  0.
     999903    2    3    3    0    0  0.65066763575E-01  0.10949094827E+00 -0.71714418567E-02  0.12908105687E+00  0.19711372077E-01 0.  0.
         14    1    1    2    0    0  0.75995223696E-03  0.19780353902E-01  0.11634709579E-01  0.22960975477E-01  0.00000000000E+00 0. -1.
     999901    1    3    3    0    0 -0.65826715812E-01 -0.12927130217E+00 -0.44632677226E-02  0.89188796765E+00  0.88000000000E+00 0. -1.
        -11    1    4    4    0    0  0.34694585646E-01  0.72020055362E-01 -0.10983005015E-01  0.80693805014E-01  0.51100000000E-03 0. -1.
         11    1    4    4    0    0  0.30372177929E-01  0.37470892911E-01  0.38115631582E-02  0.48387251858E-01  0.51100000000E-03 0.  1.
</event>
<event>
 8    1  0.1064839E+005  0.1043930E+01  0.7957747E-01            NaN
         13   -1    0    0    0    0  0.00000000000E+00  0.00000000000E+00  0.74505805969E-08  0.10566000000E+00  0.10566000000E+00 0.  1.
     999900   -1    0    0    0    0 -0.00000000000E+00 -0.00000000000E+00 -0.74505805969E-08  0.93827000000E+00  0.93827000000E+00 0. -1.
     999902    2    1    2    0    0  0.45286345606E-02 -0.14846008703E-02  0.22806732878E-01  0.10206306516E+01  0.10203646737E+01 0.  0.
     999903    2    3    3    0    0 -0.42555784874E-01 -0.70340659969E-01  0.10277857887E+00  0.13307581073E+00  0.19670583488E-01 0.  0.
         14    1    1    2    0    0 -0.45286345606E-02  0.14846008703E-02 -0.22806732878E-01  0.23299348388E-01  0.00000000000E+00 0. -1.
     999901    1    3    3    0    0  0.47084419435E-01  0.68856059099E-01 -0.79971845993E-01  0.88755484089E+00  0.88000000000E+00 0. -1.
        -11    1    4    4    0    0 -0.16710988440E-01 -0.23741983003E-01  0.22564228385E-01  0.36774235752E-01  0.51100000000E-03 0.  1.
         11    1    4    4    0    0 -0.25844796434E-01 -0.46598676966E-01  0.80214350485E-01  0.96301574974E-01  0.51100000000E-03 0. -1.
</event>
<event>
 8    1  0.1064839E+005  0.1043930E+01  0.7957747E-01            NaN
         13   -1    0    0    0    0  0.00000000000E+00  0.00000000000E+00  0.74505805969E-08  0.10566000000E+00  0.10566000000E+00 0.  1.
     999900   -1    0    0    0    0 -0.00000000000E+00 -0.00000000000E+00 -0.74505805969E-08  0.93827000000E+00  0.93827000000E+00 0.  1.
     999902    2    1    2    0    0  0.11987279740E-01  0.19431345299E-01 -0.42383747235E-02  0.10207085471E+01  0.10204443651E+01 0.  0.
     999903    2    3    3    0    0  0.12491115633E+00  0.40891557891E-01 -0.91554426656E-02  0.13321966253E+00  0.19716487344E-01 0.  0.
         14    1    1    2    0    0 -0.11987279740E-01 -0.19431345299E-01  0.42383747235E-02  0.23221452926E-01  0.00000000000E+00 0.  1.
     999901    1    3    3    0    0 -0.11292387659E+00 -0.21460212592E-01  0.49170679421E-02  0.88748888454E+00  0.88000000000E+00 0. -1.
        -11    1    4    4    0    0  0.23540353340E-01  0.80035723231E-02  0.59769672614E-02  0.25577151208E-01  0.51100000000E-03 0. -1.
         11    1    4    4    0    0  0.10137080299E+00  0.32887985568E-01 -0.15132409927E-01  0.10764251132E+00  0.51100000000E-03 0.  1.
</event>
<event>
 8    1  0.1064839E+005  0.1043930E+01  0.7957747E-01            NaN
         13   -1    0    0    0    0  0.00000000000E+00  0.00000000000E+00  0.74505805969E-08  0.10566000000E+00  0.10566000000E+00 0.  1.
     999900   -1    0    0    0    0 -0.00000000000E+00 -0.00000000000E+00 -0.74505805969E-08  0.93827000000E+00  0.93827000000E+00 0. -1.
     999902    2    1    2    0    0  0.14666093704E-01 -0.17402853297E-01  0.71801631602E-02  0.10200656259E+01  0.10197864349E+01 0.  0.
     999903    2    3    3    0    0  0.97115372955E-01  0.69209252399E-01  0.50584022518E-01  0.13091803664E+00  0.18959765362E-01 0.  0.
         14    1    1    2    0    0 -0.14666093704E-01  0.17402853297E-01 -0.71801631602E-02  0.23864374084E-01  0.00000000000E+00 0.  1.
     999901    1    3    3    0    0 -0.82449279251E-01 -0.86612105697E-01 -0.43403859358E-01  0.88914758927E+00  0.88000000000E+00 0. -1.
        -11    1    4    4    0    0  0.38187260083E-01  0.18015087348E-01  0.23282665491E-01  0.48219849006E-01  0.51100000000E-03 0. -1.
         11    1    4    4    0    0  0.58928112872E-01  0.51194165051E-01  0.27301357027E-01  0.82698187637E-01  0.51100000000E-03 0.  1.
</event>
<event>
 8    1  0.1064839E+005  0.1043930E+01  0.7957747E-01            NaN
         13   -1    0    0    0    0  0.00000000000E+00  0.00000000000E+00  0.74505805969E-08  0.10566000000E+00  0.10566000000E+00 0.  1.
     999900   -1    0    0    0    0 -0.00000000000E+00 -0.00000000000E+00 -0.74505805969E-08  0.93827000000E+00  0.93827000000E+00 0. -1.
     999902    2    1    2    0    0 -0.42735649180E-02 -0.13861629742E-01  0.18509069087E-01  0.10204141803E+01  0.10201431790E+01 0.  0.
     999903    2    3    3    0    0 -0.46413946073E-01  0.51347559354E-03  0.12311922014E+00  0.13310040320E+00  0.20071295873E-01 0.  0.
         14    1    1    2    0    0  0.42735649180E-02  0.13861629742E-01 -0.18509069087E-01  0.23515819668E-01  0.00000000000E+00 0. -1.
     999901    1    3    3    0    0  0.42140381155E-01 -0.14375105335E-01 -0.10461015105E+00  0.88731377713E+00  0.88000000000E+00 0. -1.
        -11    1    4    4    0    0 -0.24720979345E-01  0.48759423608E-02  0.88433673536E-01  0.91954757190E-01  0.51100000000E-03 0. -1.
         11    1    4    4    0    0 -0.21692966729E-01 -0.43624667673E-02  0.34685546603E-01  0.41145646015E-01  0.51100000000E-03 0.  1.
</event>
<event>
 8    1  0.1064839E+005  0.1043930E+01  0.7957747E-01            NaN
         13   -1    0    0    0    0  0.00000000000E+00  0.00000000000E+00  0.74505805969E-08  0.10566000000E+00  0.10566000000E+00 0.  1.
     999900   -1    0    0    0    0 -0.00000000000E+00 -0.00000000000E+00 -0.74505805969E-08  0.93827000000E+00  0.93827000000E+00 0.  1.
     999902    2    1    2    0    0  0.12464966710E-01  0.11078496991E-01  0.16983963234E-01  0.10201274057E+01  0.10198496753E+01 0.  0.
     999903    2    3    3    0    0  0.62589556617E-01 -0.23715986111E-01 -0.10907923879E+00  0.12905217792E+00  0.16621783767E-01 0.  0.
         14    1    1    2    0    0 -0.12464966710E-01 -0.11078496991E-01 -0.16983963234E-01  0.23802594350E-01  0.00000000000E+00 0. -1.
     999901    1    3    3    0    0 -0.50124589906E-01  0.34794483102E-01  0.12606320203E+00  0.89107522773E+00  0.88000000000E+00 0. -1.
        -11    1    4    4    0    0  0.13816187348E-01 -0.11716993323E-02 -0.34027970025E-01  0.36748112567E-01  0.51100000000E-03 0.  1.
         11    1    4    4    0    0  0.48773369269E-01 -0.22544286779E-01 -0.75051268768E-01  0.92304065354E-01  0.51100000000E-03 0. -1.
</event>
<event>
 8    1  0.1064839E+005  0.1043930E+01  0.7957747E-01            NaN
         13   -1    0    0    0    0  0.00000000000E+00  0.00000000000E+00  0.74505805969E-08  0.10566000000E+00  0.10566000000E+00 0. -1.
     999900   -1    0    0    0    0 -0.00000000000E+00 -0.00000000000E+00 -0.74505805969E-08  0.93827000000E+00  0.93827000000E+00 0. -1.
     999902    2    1    2    0    0 -0.19261578732E-01 -0.89224758306E-02 -0.98963398511E-02  0.10205087162E+01  0.10202399146E+01 0.  0.
     999903    2    3    3    0    0 -0.46711507087E-01 -0.79904526182E-01  0.91199161749E-01  0.13145739575E+00  0.19926404450E-01 0.  0.
         14    1    1    2    0    0  0.19261578732E-01  0.89224758306E-02  0.98963398511E-02  0.23421283753E-01  0.00000000000E+00 0. -1.
     999901    1    3    3    0    0  0.27449928355E-01  0.70982050351E-01 -0.10109550160E+00  0.88905132050E+00  0.88000000000E+00 0.  1.
        -11    1    4    4    0    0 -0.26295045520E-01 -0.37391809626E-01  0.57664335586E-01  0.73586775752E-01  0.51100000000E-03 0.  1.
         11    1    4    4    0    0 -0.20416461567E-01 -0.42512716555E-01  0.33534826163E-01  0.57870619995E-01  0.51100000000E-03 0. -1.
</event>
<event>
 8    1  0.1064839E+005  0.1043930E+01  0.7957747E-01            NaN
         13   -1    0    0    0    0  0.00000000000E+00  0.00000000000E+00  0.74505805969E-08  0.10566000000E+00  0.10566000000E+00 0.  1.
     999900   -1    0    0    0    0 -0.00000000000E+00 -0.00000000000E+00 -0.74505805969E-08  0.93827000000E+00  0.93827000000E+00 0. -1.
     999902    2    1    2    0    0  0.15452736710E-01  0.16942864222E-01  0.40420048680E-03  0.10209950682E+01  0.10207374384E+01 0.  0.
     999903    2    3    3    0    0 -0.10778909428E+00 -0.65850390325E-01  0.12913666194E-01  0.12847069392E+00  0.19575333179E-01 0.  0.
         14    1    1    2    0    0 -0.15452736710E-01 -0.16942864222E-01 -0.40420048680E-03  0.22934931827E-01  0.00000000000E+00 0.  1.
     999901    1    3    3    0    0  0.12324183099E+00  0.82793254547E-01 -0.12509465707E-01  0.89252437425E+00  0.88000000000E+00 0.  1.
        -11    1    4    4    0    0 -0.54429323895E-01 -0.25940200345E-01  0.13684937215E-01  0.61830283205E-01  0.51100000000E-03 0.  1.
         11    1    4    4    0    0 -0.53359770388E-01 -0.39910189980E-01 -0.77127102191E-03  0.66640410713E-01  0.51100000000E-03 0. -1.
</event>
<event>
 8    1  0.1064839E+005  0.1043930E+01  0.7957747E-01            NaN
         13   -1    0    0    0    0  0.00000000000E+00  0.00000000000E+00  0.74505805969E-08  0.10566000000E+00  0.10566000000E+00 0.  1.
     999900   -1    0    0    0    0 -0.00000000000E+00 -0.00000000000E+00 -0.74505805969E-08  0.93827000000E+00  0.93827000000E+00 0. -1.
     999902    2    1    2    0    0 -0.43947208305E-02 -0.12134006922E-01 -0.18028137501E-01  0.10217588152E+01  0.10215182401E+01 0.  0.
     999903    2    3    3    0    0  0.62198776453E-01  0.35503808304E-01 -0.11048942988E+00  0.13313451553E+00  0.19689512762E-01 0.  0.
         14    1    1    2    0    0  0.43947208305E-02  0.12134006922E-01  0.18028137501E-01  0.22171184833E-01  0.00000000000E+00 0.  1.
     999901    1    3    3    0    0 -0.66593497284E-01 -0.47637815226E-01  0.92461292381E-01  0.88862429964E+00  0.88000000000E+00 0.  1.
        -11    1    4    4    0    0  0.18457884892E-01  0.12081183899E-01 -0.19284122641E-01  0.29305068267E-01  0.51100000000E-03 0.  1.
         11    1    4    4    0    0  0.43740891561E-01  0.23422624405E-01 -0.91205307241E-01  0.10382944726E+00  0.51100000000E-03 0. -1.
</event>
<event>
 8    1  0.1064839E+005  0.1043930E+01  0.7957747E-01            NaN
         13   -1    0    0    0    0  0.00000000000E+00  0.00000000000E+00  0.74505805969E-08  0.10566000000E+00  0.10566000000E+00 0. -1.
     999900   -1    0    0    0    0 -0.00000000000E+00 -0.00000000000E+00 -0.74505805969E-08  0.93827000000E+00  0.93827000000E+00 0. -1.
     999902    2    1    2    0    0 -0.37606347484E-02 -0.14428550123E-01 -0.19198676835E-01  0.10196212644E+01  0.10193314516E+01 0.  0.
     999903    2    3    3    0    0 -0.16848751771E-01  0.54972276398E-01  0.11159768140E+00  0.12715532063E+00  0.20213892801E-01 0.  0.
         14    1    1    2    0    0  0.37606347484E-02  0.14428550123E-01  0.19198676835E-01  0.24308735561E-01  0.00000000000E+00 0. -1.
     999901    1    3    3    0    0  0.13088117023E-01 -0.69400826521E-01 -0.13079635824E+00  0.89246594381E+00  0.88000000000E+00 0. -1.
        -11    1    4    4    0    0 -0.15278174395E-01  0.25493729160E-01  0.41084711662E-01  0.50710625047E-01  0.51100000000E-03 0.  1.
         11    1    4    4    0    0 -0.15705773766E-02  0.29478547238E-01  0.70512969739E-01  0.76444695584E-01  0.51100000000E-03 0. -1.
</event>
<event>
 8    1  0.1064839E+005  0.1043930E+01  0.7957747E-01            NaN
         13   -1    0    0    0    0  0.00000000000E+00  0.00000000000E+00  0.74505805969E-08  0.10566000000E+00  0.10566000000E+00 0. -1.
     999900   -1    0    0    0    0 -0.00000000000E+00 -0.00000000000E+00 -0.74505805969E-08  0.93827000000E+00  0.93827000000E+00 0. -1.
     999902    2    1    2    0    0  0.16954322413E-01  0.16371361966E-01  0.36337212066E-02  0.10200831035E+01  0.10198043262E+01 0.  0.
     999903    2    3    3    0    0 -0.78295371149E-01  0.58193981820E-01 -0.84828994571E-01  0.12955107843E+00  0.84153989505E-02 0.  0.
         14    1    1    2    0    0 -0.16954322413E-01 -0.16371361966E-01 -0.36337212066E-02  0.23846896463E-01  0.00000000000E+00 0. -1.
     999901    1    3    3    0    0  0.95249693562E-01 -0.41822619854E-01  0.88462715777E-01  0.89053202511E+00  0.88000000000E+00 0.  1.
        -11    1    4    4    0    0 -0.43598051017E-01  0.37434926448E-01 -0.50820323490E-01  0.76714602073E-01  0.51100000000E-03 0.  1.
         11    1    4    4    0    0 -0.34697320132E-01  0.20759055372E-01 -0.34008671081E-01  0.52836476359E-01  0.51100000000E-03 0. -1.
</event>
<event>
 8    1  0.1064839E+005  0.1043930E+01  0.7957747E-01            NaN
         13   -1    0    0    0    0  0.00000000000E+00  0.00000000000E+00  0.74505805969E-08  0.10566000000E+00  0.10566000000E+00 0. -1.
     999900   -1    0    0    0    0 -0.00000000000E+00 -0.00000000000E+00 -0.74505805969E-08  0.93827000000E+00  0.93827000000E+00 0. -1.
     999902    2    1    2    0    0 -0.63417600635E-02  0.18479619906E-01 -0.27306224046E-02  0.10242025934E+01  0.10240125887E+01 0.  0.
     999903    2    3    3    0    0  0.13132131461E-02  0.32876030002E-02 -0.13308685814E+00  0.13443737482E+00  0.18675199502E-01 0.  0.
         14    1    1    2    0    0  0.63417600635E-02 -0.18479619906E-01  0.27306224046E-02  0.19727406603E-01  0.00000000000E+00 0.  1.
     999901    1    3    3    0    0 -0.76549732096E-02  0.15192016905E-01  0.13035623574E+00  0.88976521858E+00  0.88000000000E+00 0.  1.
        -11    1    4    4    0    0  0.36221554988E-02 -0.71093920824E-02 -0.70089848106E-01  0.70544393078E-01  0.51100000000E-03 0.  1.
         11    1    4    4    0    0 -0.23089423527E-02  0.10396995083E-01 -0.62997010036E-01  0.63892981743E-01  0.51100000000E-03 0. -1.
</event>
<event>
 8    1  0.1064839E+005  0.1043930E+01  0.7957747E-01            NaN
         13   -1    0    0    0    0  0.00000000000E+00  0.00000000000E+00  0.74505805969E-08  0.10566000000E+00  0.10566000000E+00 0.  1.
     999900   -1    0    0    0    0 -0.00000000000E+00 -0.00000000000E+00 -0.74505805969E-08  0.93827000000E+00  0.93827000000E+00 0. -1.
     999902    2    1    2    0    0  0.10953389634E-01 -0.46121356322E-02  0.21886946715E-01  0.10190244389E+01  0.10187200401E+01 0.  0.
     999903    2    3    3    0    0 -0.15396234527E-01  0.10531012804E+00 -0.66694615023E-01  0.12738331159E+00  0.21238391949E-01 0.  0.
         14    1    1    2    0    0 -0.10953389634E-01  0.46121356322E-02 -0.21886946715E-01  0.24905561147E-01  0.00000000000E+00 0. -1.
     999901    1    3    3    0    0  0.26349624161E-01 -0.10992226368E+00  0.88581561738E-01  0.89164112726E+00  0.88000000000E+00 0.  1.
        -11    1    4    4    0    0 -0.12248172856E-02  0.39346825314E-01 -0.14037388307E-01  0.41796916527E-01  0.51100000000E-03 0.  1.
         11    1    4    4    0    0 -0.14171417242E-01  0.65963302730E-01 -0.52657226715E-01  0.85586395064E-01  0.51100000000E-03 0. -1.
</event>
<event>
 8    1  0.1064839E+005  0.1043930E+01  0.7957747E-01            NaN
         13   -1    0    0    0    0  0.00000000000E+00  0.00000000000E+00  0.74505805969E-08  0.10566000000E+00  0.10566000000E+00 0.  1.
     999900   -1    0    0    0    0 -0.00000000000E+00 -0.00000000000E+00 -0.74505805969E-08  0.93827000000E+00  0.93827000000E+00 0. -1.
     999902    2    1    2    0    0  0.18025284124E-01 -0.13703984972E-01  0.58755843840E-02  0.10205369975E+01  0.10202688522E+01 0.  0.
     999903    2    3    3    0    0  0.99682362315E-03  0.19255823662E-01 -0.12679694823E+00  0.12981913068E+00  0.20093785267E-01 0.  0.
         14    1    1    2    0    0 -0.18025284124E-01  0.13703984972E-01 -0.58755843840E-02  0.23393002452E-01  0.00000000000E+00 0. -1.
     999901    1    3    3    0    0  0.17028460501E-01 -0.32959808634E-01  0.13267253262E+00  0.89071786687E+00  0.88000000000E+00 0.  1.
        -11    1    4    4    0    0  0.97058384707E-03  0.22742121134E-02 -0.79896359541E-01  0.79936246238E-01  0.51100000000E-03 0. -1.
         11    1    4    4    0    0  0.26239776077E-04  0.16981611549E-01 -0.46900588692E-01  0.49882884439E-01  0.51100000000E-03 0.  1.
</event>
<event>
 7    1  0.1064839E+005  0.1043930E+01  0.7957747E-01            NaN
         13   -1    0    0    0    0  0.00000000000E+00  0.00000000000E+00  0.74505805969E-08  0.10566000000E+00  0.10566000000E+00 0.  1.
     999900   -1    0    0    0    0 -0.00000000000E+00 -0.00000000000E+00 -0.74505805969E-08  0.93827000000E+00  0.93827000000E+00 0. -1.
     999903    2    1    2    0    0  0.12576733086E-01 -0.10587108803E+00 -0.37270945280E-01  0.11470591777E+00  0.20036534474E-01 0.  0.
         14    1    1    2    0    0  0.19163825289E-01  0.29964644220E-01 -0.24563177520E-01  0.43225938889E-01  0.00000000000E+00 0. -1.
     999901    1    1    2    0    0 -0.31740558375E-01  0.75906443812E-01  0.61834122800E-01  0.88599814334E+00  0.88000000000E+00 0.  1.
        -11    1    3    3    0    0 -0.26875588282E-02 -0.34705660487E-01 -0.19005296041E-01  0.39663184957E-01  0.51100000000E-03 0. -1.
         11    1    3    3    0    0  0.15264291915E-01 -0.71165427545E-01 -0.18265649239E-01  0.75042732815E-01  0.51100000000E-03 0.  1.
</event>
<event>
 8    1  0.1064839E+005  0.1043930E+01  0.7957747E-01            NaN
         13   -1    0    0    0    0  0.00000000000E+00  0.00000000000E+00  0.74505805969E-08  0.10566000000E+00  0.10566000000E+00 0. -1.
     999900   -1    0    0    0    0 -0.00000000000E+00 -0.00000000000E+00 -0.74505805969E-08  0.93827000000E+00  0.93827000000E+00 0.  1.
     999902    2    1    2    0    0 -0.13314195039E-01 -0.12078958213E-01 -0.13716866622E-01  0.10213175819E+01  0.10210672268E+01 0.  0.
     999903    2    3    3    0    0  0.18053920744E-01 -0.69044192693E-01 -0.11021059086E+00  0.13365771720E+00  0.24999328600E-01 0.  0.
         14    1    1    2    0    0  0.13314195039E-01  0.12078958213E-01  0.13716866622E-01  0.22612418070E-01  0.00000000000E+00 0. -1.
     999901    1    3    3    0    0 -0.31368115784E-01  0.56965234481E-01  0.96493724243E-01  0.88765986473E+00  0.88000000000E+00 0.  1.
        -11    1    4    4    0    0 -0.54505406422E-02 -0.23942930402E-01 -0.31484204909E-01  0.39931047936E-01  0.51100000000E-03 0.  1.
         11    1    4    4    0    0  0.23504461387E-01 -0.45101262292E-01 -0.78726385956E-01  0.93726669268E-01  0.51100000000E-03 0. -1.
</event>
<event>
 8    1  0.1064839E+005  0.1043930E+01  0.7957747E-01            NaN
         13   -1    0    0    0    0  0.00000000000E+00  0.00000000000E+00  0.74505805969E-08  0.10566000000E+00  0.10566000000E+00 0. -1.
     999900   -1    0    0    0    0 -0.00000000000E+00 -0.00000000000E+00 -0.74505805969E-08  0.93827000000E+00  0.93827000000E+00 0.  1.
     999902    2    1    2    0    0 -0.14406925648E-01  0.43681799533E-02 -0.17941113244E-01  0.10205094098E+01  0.10202406242E+01 0.  0.
     999903    2    3    3    0    0  0.30024677715E-01  0.26155797406E-01 -0.12524386886E+00  0.13261147136E+00  0.17724802934E-01 0.  0.
         14    1    1    2    0    0  0.14406925648E-01 -0.43681799533E-02  0.17941113244E-01  0.23420590239E-01  0.00000000000E+00 0. -1.
     999901    1    3    3    0    0 -0.44431603363E-01 -0.21787617453E-01  0.10730275562E+00  0.88789793840E+00  0.88000000000E+00 0. -1.
        -11    1    4    4    0    0  0.53436406232E-02  0.12585819133E-01 -0.60096027915E-01  0.61634008717E-01  0.51100000000E-03 0. -1.
         11    1    4    4    0    0  0.24681037092E-01  0.13569978274E-01 -0.65147840948E-01  0.70977462644E-01  0.51100000000E-03 0.  1.
</event>
<event>
 8    1  0.1064839E+005  0.1043930E+01  0.7957747E-01            NaN
         13   -1    0    0    0    0  0.00000000000E+00  0.00000000000E+00  0.74505805969E-08  0.10566000000E+00  0.10566000000E+00 0. -1.
     999900   -1    0    0    0    0 -0.00000000000E+00 -0.00000000000E+00 -0.74505805969E-08  0.93827000000E+00  0.93827000000E+00 0.  1.
     999902    2    1    2    0    0 -0.14625604318E-01  0.17363156165E-01  0.10221426318E-01  0.10190329108E+01  0.10187287216E+01 0.  0.
     999903    2    3    3    0    0 -0.97553635574E-02 -0.64242619287E-01  0.11034594918E+00  0.12959030901E+00  0.19878089388E-01 0.  0.
         14    1    1    2    0    0  0.14625604318E-01 -0.17363156165E-01 -0.10221426318E-01  0.24897089180E-01  0.00000000000E+00 0.  1.
     999901    1    3    3    0    0 -0.48702407609E-02  0.81605775452E-01 -0.10012452287E+00  0.88944260181E+00  0.88000000000E+00 0.  1.
        -11    1    4    4    0    0 -0.11711769939E-01 -0.46528494478E-01  0.93342166035E-01  0.10495278669E+00  0.51100000000E-03 0.  1.
         11    1    4    4    0    0  0.19564063815E-02 -0.17714124809E-01  0.17003783148E-01  0.24637522319E-01  0.51100000000E-03 0. -1.
</event>
<event>
 8    1  0.1064839E+005  0.1043930E+01  0.7957747E-01            NaN
         13   -1    0    0    0    0  0.00000000000E+00  0.00000000000E+00  0.74505805969E-08  0.10566000000E+00  0.10566000000E+00 0.  1.
     999900   -1    0    0    0    0 -0.00000000000E+00 -0.00000000000E+00 -0.74505805969E-08  0.93827000000E+00  0.93827000000E+00 0.  1.
     999902    2    1    2    0    0  0.62471515196E-02  0.22362274524E-01 -0.41564211305E-02  0.10203424172E+01  0.10200697399E+01 0.  0.
     999903    2    3    3    0    0  0.35125770849E-01  0.10269936789E+00  0.74635152761E-01  0.13270728085E+00  0.16119442360E-01 0.  0.
         14    1    1    2    0    0 -0.62471515196E-02 -0.22362274524E-01  0.41564211305E-02  0.23587582763E-01  0.00000000000E+00 0.  1.
     999901    1    3    3    0    0 -0.28878619329E-01 -0.80337093363E-01 -0.78791573891E-01  0.88763513638E+00  0.88000000000E+00 0.  1.
        -11    1    4    4    0    0  0.18321167545E-01  0.43461979201E-01  0.41256039900E-01  0.62665227723E-01  0.51100000000E-03 0. -1.
         11    1    4    4    0    0  0.16804603304E-01  0.59237388686E-01  0.33379112861E-01  0.70042053132E-01  0.51100000000E-03 0.  1.
</event>
<event>
 8    1  0.1064839E+005  0.1043930E+01  0.7957747E-01            NaN
         13   -1    0    0    0    0  0.00000000000E+00  0.00000000000E+00  0.74505805969E-08  0.10566000000E+00  0.10566000000E+00 0.  1.
     999900   -1    0    0    0    0 -0.00000000000E+00 -0.00000000000E+00 -0.74505805969E-08  0.93827000000E+00  0.93827000000E+00 0.  1.
     999902    2    1    2    0    0 -0.10571081858E-02 -0.21817174703E-01  0.12585467269E-01  0.10187208632E+01  0.10184089044E+01 0.  0.
     999903    2    3    3    0    0 -0.76923289294E-01 -0.77300293801E-01  0.71198693275E-01  0.13177691676E+00  0.20084173088E-01 0.  0.
         14    1    1    2    0    0  0.10571081858E-02  0.21817174703E-01 -0.12585467269E-01  0.25209136759E-01  0.00000000000E+00 0. -1.
     999901    1    3    3    0    0  0.75866181108E-01  0.55483119098E-01 -0.58613226007E-01  0.88694394648E+00  0.88000000000E+00 0.  1.
        -11    1    4    4    0    0 -0.34581055405E-01 -0.44034884769E-01  0.45304658426E-01  0.72025645888E-01  0.51100000000E-03 0. -1.
         11    1    4    4    0    0 -0.42342233889E-01 -0.33265409031E-01  0.25894034850E-01  0.59751270870E-01  0.51100000000E-03 0.  1.
</event>
<event>
 8    1  0.1064839E+005  0.1043930E+01  0.7957747E-01            NaN
         13   -1    0    0    0    0  0.00000000000E+00  0.00000000000E+00  0.74505805969E-08  0.10566000000E+00  0.10566000000E+00 0. -1.
     999900   -1    0    0    0    0 -0.00000000000E+00 -0.00000000000E+00 -0.74505805969E-08  0.93827000000E+00  0.93827000000E+00 0.  1.
     999902    2    1    2    0    0 -0.21462849357E-01  0.33611215018E-02 -0.10435872771E-01  0.10198289942E+01  0.10195441721E+01 0.  0.
     999903    2    3    3    0    0  0.31596002778E-01  0.99684447820E-01  0.71147684215E-01  0.12923969393E+00  0.26563301534E-01 0.  0.
         14    1    1    2    0    0  0.21462849357E-01 -0.33611215018E-02  0.10435872771E-01  0.24101005804E-01  0.00000000000E+00 0. -1.
     999901    1    3    3    0    0 -0.53058852135E-01 -0.96323326319E-01 -0.81583556986E-01  0.89058930027E+00  0.88000000000E+00 0.  1.
        -11    1    4    4    0    0  0.91035530040E-02  0.38808323994E-01  0.42582862404E-01  0.58331140740E-01  0.51100000000E-03 0.  1.
         11    1    4    4    0    0  0.22492449774E-01  0.60876123827E-01  0.28564821811E-01  0.70908553187E-01  0.51100000000E-03 0. -1.
</event>
<event>
 8    1  0.1064839E+005  0.1043930E+01  0.7957747E-01            NaN
         13   -1    0    0    0    0  0.00000000000E+00  0.00000000000E+00  0.74505805969E-08  0.10566000000E+00  0.10566000000E+00 0.  1.
     999900   -1    0    0    0    0 -0.00000000000E+00 -0.00000000000E+00 -0.74505805969E-08  0.93827000000E+00  0.93827000000E+00 0. -1.
     999902    2    1    2    0    0 -0.14230558154E-01  0.34714730985E-03  0.19513381005E-01  0.10197762977E+01  0.10194902138E+01 0.  0.
     999903    2    3    3    0    0 -0.10227168308E+00 -0.54118839917E-01 -0.56402032042E-01  0.13046143030E+00  0.21228508702E-01 0.  0.
         14    1    1    2    0    0  0.14230558154E-01 -0.34714730985E-03 -0.19513381005E-01  0.24153702301E-01  0.00000000000E+00 0. -1.
     999901    1    3    3    0    0  0.88041124931E-01  0.54465987227E-01  0.75915413047E-01  0.88931486740E+00  0.88000000000E+00 0. -1.
        -11    1    4    4    0    0 -0.74783986243E-01 -0.46020791723E-01 -0.50164948723E-01  0.10113031727E+00  0.51100000000E-03 0. -1.
         11    1    4    4    0    0 -0.27487696842E-01 -0.80980481941E-02 -0.62370833184E-02  0.29331113029E-01  0.51100000000E-03 0.  1.
</event>
<event>
 8    1  0.1064839E+005  0.1043930E+01  0.7957747E-01            NaN
         13   -1    0    0    0    0  0.00000000000E+00  0.00000000000E+00  0.74505805969E-08  0.10566000000E+00  0.10566000000E+00 0.  1.
     999900   -1    0    0    0    0 -0.00000000000E+00 -0.00000000000E+00 -0.74505805969E-08  0.93827000000E+00  0.93827000000E+00 0.  1.
     999902    2    1    2    0    0  0.18395267826E-01 -0.11560921069E-01  0.88545989006E-02  0.10204684422E+01  0.10201987045E+01 0.  0.
     999903    2    3    3    0    0  0.55520709042E-01  0.11113435405E+00  0.31444994046E-01  0.13089396250E+00  0.26665483052E-01 0.  0.
         14    1    1    2    0    0 -0.18395267826E-01  0.11560921069E-01 -0.88545989006E-02  0.23461557835E-01  0.00000000000E+00 0. -1.
     999901    1    3    3    0    0 -0.37125441216E-01 -0.12269527511E+00 -0.22590395145E-01  0.88957447967E+00  0.88000000000E+00 0. -1.
        -11    1    4    4    0    0  0.46022056699E-01  0.76556825019E-01  0.32394819792E-01  0.95019275046E-01  0.51100000000E-03 0.  1.
         11    1    4    4    0    0  0.94986523428E-02  0.34577529026E-01 -0.94982574642E-03  0.35874687453E-01  0.51100000000E-03 0. -1.
</event>
<event>
 8    1  0.1064839E+005  0.1043930E+01  0.7957747E-01            NaN
         13   -1    0    0    0    0  0.00000000000E+00  0.00000000000E+00  0.74505805969E-08  0.10566000000E+00  0.10566000000E+00 0. -1.
     999900   -1    0    0    0    0 -0.00000000000E+00 -0.00000000000E+00 -0.74505805969E-08  0.93827000000E+00  0.93827000000E+00 0. -1.
     999902    2    1    2    0    0 -0.84003285035E-02 -0.15435469433E-01  0.15279841565E-01  0.10206428191E+01  0.10203771221E+01 0.  0.
     999903    2    3    3    0    0  0.68171693207E-02  0.39035106326E-01 -0.12039833929E+00  0.12845047179E+00  0.20821870119E-01 0.  0.
         14    1    1    2    0    0  0.84003285035E-02  0.15435469433E-01 -0.15279841565E-01  0.23287180891E-01  0.00000000000E+00 0. -1.
     999901    1    3    3    0    0 -0.15217497824E-01 -0.54470575759E-01  0.13567818085E+00  0.89219234732E+00  0.88000000000E+00 0.  1.
        -11    1    4    4    0    0  0.96863759819E-02  0.11363503186E-01 -0.25473137304E-01  0.29531287297E-01  0.51100000000E-03 0.  1.
         11    1    4    4    0    0 -0.28692066612E-02  0.27671603141E-01 -0.94925201983E-01  0.98919184488E-01  0.51100000000E-03 0. -1.
</event>
<event>
 8    1  0.1064839E+005  0.1043930E+01  0.7957747E-01            NaN
         13   -1    0    0    0    0  0.00000000000E+00  0.00000000000E+00  0.74505805969E-08  0.10566000000E+00  0.10566000000E+00 0.  1.
     999900   -1    0    0    0    0 -0.00000000000E+00 -0.00000000000E+00 -0.74505805969E-08  0.93827000000E+00  0.93827000000E+00 0.  1.
     999902    2    1    2    0    0 -0.63575713861E-02 -0.12322479896E-01 -0.18219471146E-01  0.10210343377E+01  0.10207775994E+01 0.  0.
     999903    2    3    3    0    0  0.93546853654E-02  0.45703605659E-01 -0.12285448284E+00  0.13279879048E+00  0.19130214074E-01 0.  0.
         14    1    1    2    0    0  0.63575713861E-02  0.12322479896E-01  0.18219471146E-01  0.22895662331E-01  0.00000000000E+00 0.  1.
     999901    1    3    3    0    0 -0.15712256751E-01 -0.58026085556E-01  0.10463501169E+00  0.88823554719E+00  0.88000000000E+00 0. -1.
        -11    1    4    4    0    0 -0.58584348572E-02  0.11911431956E-01 -0.29311004276E-01  0.32180732790E-01  0.51100000000E-03 0. -1.
         11    1    4    4    0    0  0.15213120223E-01  0.33792173703E-01 -0.93543478565E-01  0.10061805769E+00  0.51100000000E-03 0.  1.
</event>
<event>
 8    1  0.2058944E+005  0.1043930E+01  0.7957747E-01            NaN
         13   -1    0    0    0    0  0.00000000000E+00  0.00000000000E+00  0.74505805969E-08  0.10566000000E+00  0.10566000000E+00 0. -1.
     999900   -1    0    0    0    0 -0.00000000000E+00 -0.00000000000E+00 -0.74505805969E-08  0.93827000000E+00  0.93827000000E+00 0.  1.
     999902    2    1    2    0    0 -0.99369702726E-02  0.22495005289E-01 -0.81313729893E-02  0.10180284968E+01  0.10176989400E+01 0.  0.
     999903    2    3    3    0    0 -0.71530679205E-02 -0.69796063615E-01 -0.10502032278E+00  0.12790892051E+00  0.20217983903E-01 0.  0.
         14    1    1    2    0    0  0.99369702726E-02 -0.22495005289E-01  0.81313729893E-02  0.25901503197E-01  0.00000000000E+00 0.  1.
     999901    1    3    3    0    0 -0.27839023521E-02  0.92291068904E-01  0.96888949786E-01  0.89011957629E+00  0.88000000000E+00 0. -1.
        -11    1    4    4    0    0  0.25091346641E-02 -0.48690079297E-01 -0.60533304882E-01  0.77727483554E-01  0.51100000000E-03 0. -1.
         11    1    4    4    0    0 -0.96622025846E-02 -0.21105984318E-01 -0.44487017893E-01  0.50181436955E-01  0.51100000000E-03 0.  1.
</event>
<event>
 8    1  0.1064839E+005  0.1043930E+01  0.7957747E-01            NaN
         13   -1    0    0    0    0  0.00000000000E+00  0.00000000000E+00  0.74505805969E-08  0.10566000000E+00  0.10566000000E+00 0.  1.
     999900   -1    0    0    0    0 -0.00000000000E+00 -0.00000000000E+00 -0.74505805969E-08  0.93827000000E+00  0.93827000000E+00 0. -1.
     999902    2    1    2    0    0  0.22556295642E-02  0.20159479709E-02 -0.24206447471E-01  0.10195352463E+01  0.10192433538E+01 0.  0.
     999903    2    3    3    0    0 -0.79815749682E-01 -0.72099207731E-01  0.67209491878E-01  0.12791557310E+00  0.16626135758E-01 0.  0.
         14    1    1    2    0    0 -0.22556295642E-02 -0.20159479709E-02  0.24206447471E-01  0.24394753742E-01  0.00000000000E+00 0.  1.
     999901    1    3    3    0    0  0.82071379246E-01  0.74115155702E-01 -0.91415939349E-01  0.89161967316E+00  0.88000000000E+00 0. -1.
        -11    1    4    4    0    0 -0.63914214037E-01 -0.65746670704E-01  0.57264321682E-01  0.10810696149E+00  0.51100000000E-03 0. -1.
         11    1    4    4    0    0 -0.15901535645E-01 -0.63525370267E-02  0.99451701961E-02  0.19808611606E-01  0.51100000000E-03 0.  1.
</event>
<event>
 8    1  0.1325520E+005  0.1043930E+01  0.7957747E-01            NaN
         13   -1    0    0    0    0  0.00000000000E+00  0.00000000000E+00  0.74505805969E-08  0.10566000000E+00  0.10566000000E+00 0.  1.
     999900   -1    0    0    0    0 -0.00000000000E+00 -0.00000000000E+00 -0.74505805969E-08  0.93827000000E+00  0.93827000000E+00 0. -1.
     999902    2    1    2    0    0  0.83991081420E-02  0.67758429915E-03 -0.21894700164E-01  0.10204697776E+01  0.10202000711E+01 0.  0.
     999903    2    3    3    0    0  0.17179116218E-01  0.12825522023E+00 -0.82374341868E-03  0.13097715431E+00  0.20243834813E-01 0.  0.
         14    1    1    2    0    0 -0.83991081420E-02 -0.67758429915E-03  0.21894700164E-01  0.23460222364E-01  0.00000000000E+00 0.  1.
     999901    1    3    3    0    0 -0.87800080765E-02 -0.12757763593E+00 -0.21070956746E-01  0.88949262333E+00  0.88000000000E+00 0. -1.
        -11    1    4    4    0    0  0.20924162291E-01  0.92605814743E-01 -0.36916339935E-02  0.95013403130E-01  0.51100000000E-03 0.  1.
         11    1    4    4    0    0 -0.37450460729E-02  0.35649405487E-01  0.28678905748E-02  0.35963751182E-01  0.51100000000E-03 0. -1.
</event>
<event>
 8    1  0.1064839E+005  0.1043930E+01  0.7957747E-01            NaN
         13   -1    0    0    0    0  0.00000000000E+00  0.00000000000E+00  0.74505805969E-08  0.10566000000E+00  0.10566000000E+00 0.  1.
     999900   -1    0    0    0    0 -0.00000000000E+00 -0.00000000000E+00 -0.74505805969E-08  0.93827000000E+00  0.93827000000E+00 0.  1.
     999902    2    1    2    0    0 -0.20407295290E-01 -0.84651915396E-02 -0.83681630426E-02  0.10203049429E+01  0.10200313884E+01 0.  0.
     999903    2    3    3    0    0 -0.71676768289E-01 -0.32879950667E-01 -0.10618015763E+00  0.13306662905E+00  0.14623666616E-01 0.  0.
         14    1    1    2    0    0  0.20407295290E-01  0.84651915396E-02  0.83681630426E-02  0.23625057070E-01  0.00000000000E+00 0. -1.
     999901    1    3    3    0    0  0.51269472998E-01  0.24414759128E-01  0.97811994586E-01  0.88723831388E+00  0.88000000000E+00 0. -1.
        -11    1    4    4    0    0 -0.57449580629E-01 -0.20372392612E-01 -0.85655856707E-01  0.10513170599E+00  0.51100000000E-03 0.  1.
         11    1    4    4    0    0 -0.14227187660E-01 -0.12507558055E-01 -0.20524300922E-01  0.27934923063E-01  0.51100000000E-03 0. -1.
</event>
<event>
 8    1  0.1064839E+005  0.1043930E+01  0.7957747E-01            NaN
         13   -1    0    0    0    0  0.00000000000E+00  0.00000000000E+00  0.74505805969E-08  0.10566000000E+00  0.10566000000E+00 0. -1.
     999900   -1    0    0    0    0 -0.00000000000E+00 -0.00000000000E+00 -0.74505805969E-08  0.93827000000E+00  0.93827000000E+00 0.  1.
     999902    2    1    2    0    0  0.51901279869E-02  0.62079841984E-02 -0.22385113235E-01  0.10201272735E+01  0.10198495400E+01 0.  0.
     999903    2    3    3    0    0 -0.10093372112E+00 -0.71696192823E-02  0.76025730920E-01  0.12820467263E+00  0.20432983647E-01 0.  0.
         14    1    1    2    0    0 -0.51901279869E-02 -0.62079841984E-02  0.22385113235E-01  0.23802726543E-01  0.00000000000E+00 0. -1.
     999901    1    3    3    0    0  0.10612384911E+00  0.13377603481E-01 -0.98410844155E-01  0.89192260083E+00  0.88000000000E+00 0.  1.
        -11    1    4    4    0    0 -0.43917574882E-01 -0.88724869960E-02  0.23198881867E-01  0.50457146668E-01  0.51100000000E-03 0.  1.
         11    1    4    4    0    0 -0.57016146243E-01  0.17028677137E-02  0.52826849053E-01  0.77747525959E-01  0.51100000000E-03 0. -1.
</event>
<event>
 8    1  0.1064839E+005  0.1043930E+01  0.7957747E-01            NaN
         13   -1    0    0    0    0  0.00000000000E+00  0.00000000000E+00  0.74505805969E-08  0.10566000000E+00  0.10566000000E+00 0.  1.
     999900   -1    0    0    0    0 -0.00000000000E+00 -0.00000000000E+00 -0.74505805969E-08  0.93827000000E+00  0.93827000000E+00 0.  1.
     999902    2    1    2    0    0  0.21941738179E-01  0.28791888151E-03  0.96479914572E-02  0.10199590486E+01  0.10196773285E+01 0.  0.
     999903    2    3    3    0    0 -0.68235589887E-01 -0.10662026042E+00 -0.13585827891E-01  0.12861112570E+00  0.18228309723E-01 0.  0.
         14    1    1    2    0    0 -0.21941738179E-01 -0.28791888151E-03 -0.96479914572E-02  0.23970951394E-01  0.00000000000E+00 0. -1.
     999901    1    3    3    0    0  0.90177328066E-01  0.10690817931E+00  0.23233819348E-01  0.89134792290E+00  0.88000000000E+00 0.  1.
        -11    1    4    4    0    0 -0.36690418752E-01 -0.61567957860E-01 -0.16446929385E-01  0.73536133094E-01  0.51100000000E-03 0. -1.
         11    1    4    4    0    0 -0.31545171136E-01 -0.45052302563E-01  0.28611014943E-02  0.55074992610E-01  0.51100000000E-03 0.  1.
</event>
<event>
 8    1  0.1064839E+005  0.1043930E+01  0.7957747E-01            NaN
         13   -1    0    0    0    0  0.00000000000E+00  0.00000000000E+00  0.74505805969E-08  0.10566000000E+00  0.10566000000E+00 0. -1.
     999900   -1    0    0    0    0 -0.00000000000E+00 -0.00000000000E+00 -0.74505805969E-08  0.93827000000E+00  0.93827000000E+00 0. -1.
     999902    2    1    2    0    0 -0.54228384766E-02  0.27810491196E-02  0.23680367987E-01  0.10194779809E+01  0.10191846998E+01 0.  0.
     999903    2    3    3    0    0 -0.88836294420E-01  0.83946453068E-01  0.44437138438E-01  0.13157231530E+00  0.19942935923E-01 0.  0.
         14    1    1    2    0    0  0.54228384766E-02 -0.27810491196E-02 -0.23680367987E-01  0.24452019126E-01  0.00000000000E+00 0.  1.
     999901    1    3    3    0    0  0.83413455943E-01 -0.81165403948E-01 -0.20756770451E-01  0.88790566557E+00  0.88000000000E+00 0. -1.
        -11    1    4    4    0    0 -0.38680904017E-01  0.48041408384E-01  0.16454137795E-01  0.63837207227E-01  0.51100000000E-03 0.  1.
         11    1    4    4    0    0 -0.50155390403E-01  0.35905044684E-01  0.27983000643E-01  0.67735108078E-01  0.51100000000E-03 0. -1.
</event>
<event>
 8    1  0.1064839E+005  0.1043930E+01  0.7957747E-01            NaN
         13   -1    0    0    0    0  0.00000000000E+00  0.00000000000E+00  0.74505805969E-08  0.10566000000E+00  0.10566000000E+00 0. -1.
     999900   -1    0    0    0    0 -0.00000000000E+00 -0.00000000000E+00 -0.74505805969E-08  0.93827000000E+00  0.93827000000E+00 0.  1.
     999902    2    1    2    0    0 -0.10744177011E-01 -0.56830815753E-02 -0.20551372872E-01  0.10200533653E+01  0.10197738840E+01 0.  0.
     999903    2    3    3    0    0 -0.64142899827E-01  0.99432326378E-01  0.48486006851E-01  0.12951036672E+00  0.20516897927E-01 0.  0.
         14    1    1    2    0    0  0.10744177011E-01  0.56830815753E-02  0.20551372872E-01  0.23876634662E-01  0.00000000000E+00 0. -1.
     999901    1    3    3    0    0  0.53398722816E-01 -0.10511540795E+00 -0.69037379723E-01  0.89054299862E+00  0.88000000000E+00 0.  1.
        -11    1    4    4    0    0 -0.26554921053E-01  0.39710098683E-01  0.30522980014E-01  0.56691879485E-01  0.51100000000E-03 0. -1.
         11    1    4    4    0    0 -0.37587978774E-01  0.59722227696E-01  0.17963026837E-01  0.72818487236E-01  0.51100000000E-03 0.  1.
</event>
<event>
 8    1  0.1064839E+005  0.1043930E+01  0.7957747E-01            NaN
         13   -1    0    0    0    0  0.00000000000E+00  0.00000000000E+00  0.74505805969E-08  0.10566000000E+00  0.10566000000E+00 0. -1.
     999900   -1    0    0    0    0 -0.00000000000E+00 -0.00000000000E+00 -0.74505805969E-08  0.93827000000E+00  0.93827000000E+00 0.  1.
     999902    2    1    2    0    0 -0.21268919284E-01 -0.10912049591E-02  0.95694373404E-02  0.10205819425E+01  0.10203148385E+01 0.  0.
     999903    2    3    3    0    0 -0.17009581772E-01 -0.83282098457E-01 -0.96555395232E-01  0.13039321817E+00  0.21312278141E-01 0.  0.
         14    1    1    2    0    0  0.21268919284E-01  0.10912049591E-02 -0.95694373404E-02  0.23348057452E-01  0.00000000000E+00 0. -1.
     999901    1    3    3    0    0 -0.42593375111E-02  0.82190893498E-01  0.10612483257E+00  0.89018872438E+00  0.88000000000E+00 0. -1.
        -11    1    4    4    0    0  0.31994014754E-02 -0.36824142208E-01 -0.40931516984E-01  0.55153457034E-01  0.51100000000E-03 0.  1.
         11    1    4    4    0    0 -0.20208983248E-01 -0.46457956249E-01 -0.55623878248E-01  0.75239761132E-01  0.51100000000E-03 0. -1.
</event>
<event>
 8    1  0.1064839E+005  0.1043930E+01  0.7957747E-01            NaN
         13   -1    0    0    0    0  0.00000000000E+00  0.00000000000E+00  0.74505805969E-08  0.10566000000E+00  0.10566000000E+00 0.  1.
     999900   -1    0    0    0    0 -0.00000000000E+00 -0.00000000000E+00 -0.74505805969E-08  0.93827000000E+00  0.93827000000E+00 0. -1.
     999902    2    1    2    0    0 -0.20200528560E-01 -0.67184439811E-02  0.93823796627E-02  0.10206656949E+01  0.10204005257E+01 0.  0.
     999903    2    3    3    0    0  0.68060938174E-01  0.77505767737E-01 -0.73796474219E-01  0.12836388156E+00  0.19797250964E-01 0.  0.
         14    1    1    2    0    0  0.20200528560E-01  0.67184439811E-02 -0.93823796627E-02  0.23264305099E-01  0.00000000000E+00 0. -1.
     999901    1    3    3    0    0 -0.88261466734E-01 -0.84224211718E-01  0.83178853881E-01  0.89230181334E+00  0.88000000000E+00 0.  1.
        -11    1    4    4    0    0  0.18322246752E-01  0.25284498699E-01 -0.33298206705E-01  0.45651312043E-01  0.51100000000E-03 0.  1.
         11    1    4    4    0    0  0.49738691422E-01  0.52221269038E-01 -0.40498267514E-01  0.82712569522E-01  0.51100000000E-03 0. -1.
</event>
<event>
 8    1  0.1064839E+005  0.1043930E+01  0.7957747E-01            NaN
         13   -1    0    0    0    0  0.00000000000E+00  0.00000000000E+00  0.74505805969E-08  0.10566000000E+00  0.10566000000E+00 0.  1.
     999900   -1    0    0    0    0 -0.00000000000E+00 -0.00000000000E+00 -0.74505805969E-08  0.93827000000E+00  0.93827000000E+00 0.  1.
     999902    2    1    2    0    0  0.89458318954E-02 -0.22403621875E-01 -0.47623599404E-02  0.10193407696E+01  0.10190441473E+01 0.  0.
     999903    2    3    3    0    0  0.12142968717E+00 -0.42851356666E-01 -0.14017089707E-01  0.13189703750E+00  0.24878544992E-01 0.  0.
         14    1    1    2    0    0 -0.89458318954E-02  0.22403621875E-01  0.47623599404E-02  0.24589230440E-01  0.00000000000E+00 0.  1.
     999901    1    3    3    0    0 -0.11248385528E+00  0.20447734791E-01  0.92547297669E-02  0.88744373206E+00  0.88000000000E+00 0. -1.
        -11    1    4    4    0    0  0.53954470541E-01 -0.32207481344E-01 -0.66013590148E-02  0.63184221193E-01  0.51100000000E-03 0. -1.
         11    1    4    4    0    0  0.67475216634E-01 -0.10643875322E-01 -0.74157306925E-02  0.68712816304E-01  0.51100000000E-03 0.  1.
</event>
<event>
 8    1  0.1064839E+005  0.1043930E+01  0.7957747E-01            NaN
         13   -1    0    0    0    0  0.00000000000E+00  0.00000000000E+00  0.74505805969E-08  0.10566000000E+00  0.10566000000E+00 0. -1.
     999900   -1    0    0    0    0 -0.00000000000E+00 -0.00000000000E+00 -0.74505805969E-08  0.93827000000E+00  0.93827000000E+00 0.  1.
     999902    2    1    2    0    0 -0.40631618246E-02 -0.85207831576E-04 -0.22242262618E-01  0.10213194982E+01  0.10210691860E+01 0.  0.
     999903    2    3    3    0    0  0.13615465964E-01 -0.64299332566E-01  0.10886102814E+00  0.12911769339E+00  0.22380129923E-01 0.  0.
         14    1    1    2    0    0  0.40631618246E-02  0.85207831576E-04  0.22242262618E-01  0.22610501780E-01  0.00000000000E+00 0. -1.
     999901    1    3    3    0    0 -0.17678627788E-01  0.64214124735E-01 -0.13110329076E+00  0.89220180483E+00  0.88000000000E+00 0.  1.
        -11    1    4    4    0    0  0.75196335214E-02 -0.60769847120E-01  0.88941143541E-01  0.10798290301E+00  0.51100000000E-03 0. -1.
         11    1    4    4    0    0  0.60958324422E-02 -0.35294854465E-02  0.19919884604E-01  0.21134790378E-01  0.51100000000E-03 0.  1.
</event>
<event>
 8    1  0.1064839E+005  0.1043930E+01  0.7957747E-01            NaN
         13   -1    0    0    0    0  0.00000000000E+00  0.00000000000E+00  0.74505805969E-08  0.10566000000E+00  0.10566000000E+00 0. -1.
     999900   -1    0    0    0    0 -0.00000000000E+00 -0.00000000000E+00 -0.74505805969E-08  0.93827000000E+00  0.93827000000E+00 0.  1.
     999902    2    1    2    0    0  0.22446372855E-01  0.55975403021E-02 -0.85557727912E-02  0.10192647743E+01  0.10189662932E+01 0.  0.
     999903    2    3    3    0    0 -0.52915295708E-01 -0.12665766589E-01 -0.11606599278E+00  0.12933703740E+00  0.17213494691E-01 0.  0.
         14    1    1    2    0    0 -0.22446372855E-01 -0.55975403021E-02  0.85557727912E-02  0.24665225720E-01  0.00000000000E+00 0. -1.
     999901    1    3    3    0    0  0.75361668563E-01  0.18263306891E-01  0.10751021999E+00  0.88992773688E+00  0.88000000000E+00 0. -1.
        -11    1    4    4    0    0 -0.33392646087E-01 -0.51650445819E-02 -0.52675395632E-01  0.62583583504E-01  0.51100000000E-03 0. -1.
         11    1    4    4    0    0 -0.19522649621E-01 -0.75007220073E-02 -0.63390597150E-01  0.66753453895E-01  0.51100000000E-03 0.  1.
</event>
<event>
 7    1  0.1064839E+005  0.1043930E+01  0.7957747E-01            NaN
         13   -1    0    0    0    0  0.00000000000E+00  0.00000000000E+00  0.74505805969E-08  0.10566000000E+00  0.10566000000E+00 0.  1.
     999900   -1    0    0    0    0 -0.00000000000E+00 -0.00000000000E+00 -0.74505805969E-08  0.93827000000E+00  0.93827000000E+00 0.  1.
     999903    2    1    2    0    0  0.33495295372E-01 -0.10392712765E+00  0.37874283766E-01  0.11732406155E+00  0.20191368812E-01 0.  0.
         14    1    1    2    0    0  0.93086250684E-02  0.41481897415E-01 -0.40844470378E-02  0.42709261541E-01  0.00000000000E+00 0. -1.
     999901    1    1    2    0    0 -0.42803920440E-01  0.62445230234E-01 -0.33789836728E-01  0.88389667691E+00  0.88000000000E+00 0.  1.
        -11    1    3    3    0    0  0.31894493846E-01 -0.70924013384E-01  0.23096900564E-01  0.81124610007E-01  0.51100000000E-03 0. -1.
         11    1    3    3    0    0  0.16008015256E-02 -0.33003114265E-01  0.14777383202E-01  0.36199451543E-01  0.51100000000E-03 0.  1.
</event>
<event>
 8    1  0.1064839E+005  0.1043930E+01  0.7957747E-01            NaN
         13   -1    0    0    0    0  0.00000000000E+00  0.00000000000E+00  0.74505805969E-08  0.10566000000E+00  0.10566000000E+00 0. -1.
     999900   -1    0    0    0    0 -0.00000000000E+00 -0.00000000000E+00 -0.74505805969E-08  0.93827000000E+00  0.93827000000E+00 0. -1.
     999902    2    1    2    0    0 -0.11368361463E-01  0.52639231405E-02 -0.20464707569E-01  0.10199351509E+01  0.10196528621E+01 0.  0.
     999903    2    3    3    0    0  0.53782164941E-01  0.13911844477E-01  0.11296869285E+00  0.12745330232E+00  0.19908742423E-01 0.  0.
         14    1    1    2    0    0  0.11368361463E-01 -0.52639231405E-02  0.20464707569E-01  0.23994849136E-01  0.00000000000E+00 0. -1.
     999901    1    3    3    0    0 -0.65150526404E-01 -0.86479213367E-02 -0.13343340042E+00  0.89248184854E+00  0.88000000000E+00 0. -1.
        -11    1    4    4    0    0  0.49087594340E-01  0.69527520662E-02  0.10366797088E+00  0.11491406349E+00  0.51100000000E-03 0. -1.
         11    1    4    4    0    0  0.46945706008E-02  0.69590924110E-02  0.93007219692E-02  0.12539238831E-01  0.51100000000E-03 0.  1.
</event>
<event>
 8    1  0.1064839E+005  0.1043930E+01  0.7957747E-01            NaN
         13   -1    0    0    0    0  0.00000000000E+00  0.00000000000E+00  0.74505805969E-08  0.10566000000E+00  0.10566000000E+00 0.  1.
     999900   -1    0    0    0    0 -0.00000000000E+00 -0.00000000000E+00 -0.74505805969E-08  0.93827000000E+00  0.93827000000E+00 0.  1.
     999902    2    1    2    0    0 -0.21698921598E-01 -0.11169293172E-01  0.20262037925E-03  0.10195243170E+01  0.10192321598E+01 0.  0.
     999903    2    3    3    0    0 -0.10931869979E+00 -0.65785185412E-01 -0.31259843467E-01  0.13292970396E+00  0.20368103443E-01 0.  0.
         14    1    1    2    0    0  0.21698921598E-01  0.11169293172E-01 -0.20262037925E-03  0.24405683017E-01  0.00000000000E+00 0. -1.
     999901    1    3    3    0    0  0.87619778189E-01  0.54615892239E-01  0.31462463846E-01  0.88659461303E+00  0.88000000000E+00 0.  1.
        -11    1    4    4    0    0 -0.44583228989E-01 -0.27032174515E-01 -0.23136240763E-01  0.57043400352E-01  0.51100000000E-03 0.  1.
         11    1    4    4    0    0 -0.64735470799E-01 -0.38753010897E-01 -0.81236027044E-02  0.75886303606E-01  0.51100000000E-03 0. -1.
</event>
<event>
 8    1  0.1064839E+005  0.1043930E+01  0.7957747E-01            NaN
         13   -1    0    0    0    0  0.00000000000E+00  0.00000000000E+00  0.74505805969E-08  0.10566000000E+00  0.10566000000E+00 0. -1.
     999900   -1    0    0    0    0 -0.00000000000E+00 -0.00000000000E+00 -0.74505805969E-08  0.93827000000E+00  0.93827000000E+00 0.  1.
     999902    2    1    2    0    0  0.10307002287E-01  0.19677206322E-01  0.68354475099E-02  0.10206888708E+01  0.10204242357E+01 0.  0.
     999903    2    3    3    0    0 -0.11046571139E+00 -0.60161239177E-01  0.18943359278E-01  0.12877697643E+00  0.20065161481E-01 0.  0.
         14    1    1    2    0    0 -0.10307002287E-01 -0.19677206322E-01 -0.68354475099E-02  0.23241129221E-01  0.00000000000E+00 0.  1.
     999901    1    3    3    0    0  0.12077271368E+00  0.79838445499E-01 -0.12107911768E-01  0.89191189435E+00  0.88000000000E+00 0. -1.
        -11    1    4    4    0    0 -0.46881945229E-01 -0.18701336366E-01 -0.25865874585E-03  0.50477567252E-01  0.51100000000E-03 0. -1.
         11    1    4    4    0    0 -0.63583766165E-01 -0.41459902812E-01  0.19202018024E-01  0.78299409181E-01  0.51100000000E-03 0.  1.
</event>
<event>
 8    1  0.1064839E+005  0.1043930E+01  0.7957747E-01            NaN
         13   -1    0    0    0    0  0.00000000000E+00  0.00000000000E+00  0.74505805969E-08  0.10566000000E+00  0.10566000000E+00 0.  1.
     999900   -1    0    0    0    0 -0.00000000000E+00 -0.00000000000E+00 -0.74505805969E-08  0.93827000000E+00  0.93827000000E+00 0.  1.
     999902    2    1    2    0    0  0.12878954834E-01 -0.14937206536E-01 -0.12770534107E-01  0.10204337416E+01  0.10201631962E+01 0.  0.
     999903    2    3    3    0    0  0.12025275649E+00  0.67672297612E-02 -0.52161178069E-01  0.13276722841E+00  0.19995689513E-01 0.  0.
         14    1    1    2    0    0 -0.12878954834E-01  0.14937206536E-01  0.12770534107E-01  0.23496258385E-01  0.00000000000E+00 0.  1.
     999901    1    3    3    0    0 -0.10737380166E+00 -0.21704436297E-01  0.39390643963E-01  0.88766651321E+00  0.88000000000E+00 0. -1.
        -11    1    4    4    0    0  0.27021887138E-01 -0.14097993868E-02 -0.35191057304E-02  0.27291301636E-01  0.51100000000E-03 0.  1.
         11    1    4    4    0    0  0.93230869354E-01  0.81770291479E-02 -0.48642072339E-01  0.10547592677E+00  0.51100000000E-03 0. -1.
</event>
<event>
 8    1  0.1064839E+005  0.1043930E+01  0.7957747E-01            NaN
         13   -1    0    0    0    0  0.00000000000E+00  0.00000000000E+00  0.74505805969E-08  0.10566000000E+00  0.10566000000E+00 0. -1.
     999900   -1    0    0    0    0 -0.00000000000E+00 -0.00000000000E+00 -0.74505805969E-08  0.93827000000E+00  0.93827000000E+00 0.  1.
     999902    2    1    2    0    0 -0.15564675672E-01 -0.53489312376E-02 -0.16551151329E-01  0.10205888174E+01  0.10203218725E+01 0.  0.
     999903    2    3    3    0    0 -0.63357627732E-01 -0.56347592043E-01 -0.10147736873E+00  0.13374187906E+00  0.19999843198E-01 0.  0.
         14    1    1    2    0    0  0.15564675672E-01  0.53489312376E-02  0.16551151329E-01  0.23341182585E-01  0.00000000000E+00 0. -1.
     999901    1    3    3    0    0  0.47792952060E-01  0.50998660805E-01  0.84926217404E-01  0.88684693836E+00  0.88000000000E+00 0. -1.
        -11    1    4    4    0    0 -0.27397059385E-01 -0.22406336156E-01 -0.27803518925E-01  0.45010438217E-01  0.51100000000E-03 0. -1.
         11    1    4    4    0    0 -0.35960568347E-01 -0.33941255887E-01 -0.73673849809E-01  0.88731440840E-01  0.51100000000E-03 0.  1.
</event>
<event>
 8    1  0.1064839E+005  0.1043930E+01  0.7957747E-01            NaN
         13   -1    0    0    0    0  0.00000000000E+00  0.00000000000E+00  0.74505805969E-08  0.10566000000E+00  0.10566000000E+00 0.  1.
     999900   -1    0    0    0    0 -0.00000000000E+00 -0.00000000000E+00 -0.74505805969E-08  0.93827000000E+00  0.93827000000E+00 0.  1.
     999902    2    1    2    0    0 -0.21447177111E-01 -0.16774679378E-02  0.41343450511E-02  0.10220236513E+01  0.10217888508E+01 0.  0.
     999903    2    3    3    0    0  0.17291393989E-01 -0.12829249971E+00  0.17090952646E-01  0.13202369801E+00  0.19498676497E-01 0.  0.
         14    1    1    2    0    0  0.21447177111E-01  0.16774679378E-02 -0.41343450511E-02  0.21906348708E-01  0.00000000000E+00 0.  1.
     999901    1    3    3    0    0 -0.38738571100E-01  0.12661503178E+00 -0.12956607595E-01  0.88999995328E+00  0.88000000000E+00 0. -1.
        -11    1    4    4    0    0  0.20449166024E-01 -0.11066915273E+00  0.10890041027E-01  0.11306937636E+00  0.51100000000E-03 0.  1.
         11    1    4    4    0    0 -0.31577720345E-02 -0.17623346985E-01  0.62009116187E-02  0.18954321647E-01  0.51100000000E-03 0. -1.
</event>
<event>
 8    1  0.1064839E+005  0.1043930E+01  0.7957747E-01            NaN
         13   -1    0    0    0    0  0.00000000000E+00  0.00000000000E+00  0.74505805969E-08  0.10566000000E+00  0.10566000000E+00 0. -1.
     999900   -1    0    0    0    0 -0.00000000000E+00 -0.00000000000E+00 -0.74505805969E-08  0.93827000000E+00  0.93827000000E+00 0.  1.
     999902    2    1    2    0    0  0.23100738966E-01 -0.12327913862E-02 -0.63070644577E-02  0.10199520314E+01  0.10196701444E+01 0.  0.
     999903    2    3    3    0    0  0.10990876770E+00  0.51415209214E-02 -0.72352734626E-01  0.13319485143E+00  0.19989441853E-01 0.  0.
         14    1    1    2    0    0 -0.23100738966E-01  0.12327913862E-02  0.63070644577E-02  0.23977968585E-01  0.00000000000E+00 0.  1.
     999901    1    3    3    0    0 -0.86808028729E-01 -0.63743123076E-02  0.66045670168E-01  0.88675717999E+00  0.88000000000E+00 0. -1.
        -11    1    4    4    0    0  0.94511057779E-01  0.10790493582E-01 -0.58143746743E-01  0.11148870436E+00  0.51100000000E-03 0.  1.
         11    1    4    4    0    0  0.15397709916E-01 -0.56489726601E-02 -0.14208987883E-01  0.21706147066E-01  0.51100000000E-03 0. -1.
</event>
<event>
 8    1  0.1064839E+005  0.1043930E+01  0.7957747E-01            NaN
         13   -1    0    0    0    0  0.00000000000E+00  0.00000000000E+00  0.74505805969E-08  0.10566000000E+00  0.10566000000E+00 0. -1.
     999900   -1    0    0    0    0 -0.00000000000E+00 -0.00000000000E+00 -0.74505805969E-08  0.93827000000E+00  0.93827000000E+00 0. -1.
     999902    2    1    2    0    0  0.11887748056E-01 -0.23273781137E-01 -0.35842187676E-02  0.10175513331E+01  0.10172093597E+01 0.  0.
     999903    2    3    3    0    0  0.94549400683E-01 -0.89190916478E-01 -0.15184942828E-01  0.13114702675E+00  0.86227249349E-02 0.  0.
         14    1    1    2    0    0 -0.11887748056E-01  0.23273781137E-01  0.35842187676E-02  0.26378666882E-01  0.00000000000E+00 0. -1.
     999901    1    3    3    0    0 -0.82661652627E-01  0.65917135341E-01  0.11600724061E-01  0.88640430637E+00  0.88000000000E+00 0.  1.
        -11    1    4    4    0    0  0.31114496757E-01 -0.24133194206E-01 -0.35830761493E-02  0.39542667167E-01  0.51100000000E-03 0. -1.
         11    1    4    4    0    0  0.63434903927E-01 -0.65057722272E-01 -0.11601866679E-01  0.91604359585E-01  0.51100000000E-03 0.  1.
</event>
<event>
 8    1  0.1064839E+005  0.1043930E+01  0.7957747E-01            NaN
         13   -1    0    0    0    0  0.00000000000E+00  0.00000000000E+00  0.74505805969E-08  0.10566000000E+00  0.10566000000E+00 0. -1.
     999900   -1    0    0    0    0 -0.00000000000E+00 -0.00000000000E+00 -0.74505805969E-08  0.93827000000E+00  0.93827000000E+00 0. -1.
     999902    2    1    2    0    0  0.22351546430E-01 -0.75664827658E-02  0.16162718443E-02  0.10202771857E+01  0.10200029804E+01 0.  0.
     999903    2    3    3    0    0  0.19311502643E-01  0.80972197075E-01  0.98669010539E-01  0.13052015495E+00  0.19248542126E-01 0.  0.
         14    1    1    2    0    0 -0.22351546430E-01  0.75664827658E-02 -0.16162718443E-02  0.23652814292E-01  0.00000000000E+00 0. -1.
     999901    1    3    3    0    0  0.30400437879E-02 -0.88538679840E-01 -0.97052738695E-01  0.88975703076E+00  0.88000000000E+00 0. -1.
        -11    1    4    4    0    0  0.48962333971E-02  0.49575746712E-01  0.68164439621E-01  0.84429732401E-01  0.51100000000E-03 0.  1.
         11    1    4    4    0    0  0.14415269245E-01  0.31396450363E-01  0.30504570918E-01  0.46090422549E-01  0.51100000000E-03 0. -1.
</event>
<event>
 8    1  0.1064839E+005  0.1043930E+01  0.7957747E-01            NaN
         13   -1    0    0    0    0  0.00000000000E+00  0.00000000000E+00  0.74505805969E-08  0.10566000000E+00  0.10566000000E+00 0. -1.
     999900   -1    0    0    0    0 -0.00000000000E+00 -0.00000000000E+00 -0.74505805969E-08  0.93827000000E+00  0.93827000000E+00 0. -1.
     999902    2    1    2    0    0 -0.20657143950E-01 -0.30999537692E-02 -0.12534973556E-01  0.10195691118E+01  0.10192780391E+01 0.  0.
     999903    2    3    3    0    0 -0.10332033217E+00  0.26367267503E-01  0.69596483620E-01  0.13139846604E+00  0.32427804581E-01 0.  0.
         14    1    1    2    0    0  0.20657143950E-01  0.30999537692E-02  0.12534973556E-01  0.24360888152E-01  0.00000000000E+00 0. -1.
     999901    1    3    3    0    0  0.82663188221E-01 -0.29467221272E-01 -0.82131457175E-01  0.88817064581E+00  0.88000000000E+00 0. -1.
        -11    1    4    4    0    0 -0.58203280753E-01  0.25132098374E-01  0.55082064733E-01  0.83985351314E-01  0.51100000000E-03 0.  1.
         11    1    4    4    0    0 -0.45117051418E-01  0.12351691292E-02  0.14514418887E-01  0.47413114726E-01  0.51100000000E-03 0. -1.
</event>
<event>
 8    1  0.1064839E+005  0.1043930E+01  0.7957747E-01            NaN
         13   -1    0    0    0    0  0.00000000000E+00  0.00000000000E+00  0.74505805969E-08  0.10566000000E+00  0.10566000000E+00 0.  1.
     999900   -1    0    0    0    0 -0.00000000000E+00 -0.00000000000E+00 -0.74505805969E-08  0.93827000000E+00  0.93827000000E+00 0. -1.
     999902    2    1    2    0    0  0.12572057780E-01  0.17448381692E-01  0.14103276810E-01  0.10182122031E+01  0.10178873638E+01 0.  0.
     999903    2    3    3    0    0  0.18893300295E-01 -0.12371519365E+00  0.44924418480E-02  0.12688763749E+00  0.20442225403E-01 0.  0.
         14    1    1    2    0    0 -0.12572057780E-01 -0.17448381692E-01 -0.14103276810E-01  0.25717796897E-01  0.00000000000E+00 0. -1.
     999901    1    3    3    0    0 -0.63212425157E-02  0.14116357534E+00  0.96108349618E-02  0.89132456561E+00  0.88000000000E+00 0. -1.
        -11    1    4    4    0    0  0.82240100334E-02 -0.13584748130E-01  0.33335965664E-02  0.16234337370E-01  0.51100000000E-03 0. -1.
         11    1    4    4    0    0  0.10669290262E-01 -0.11013044552E+00  0.11588452816E-02  0.11065330012E+00  0.51100000000E-03 0.  1.
</event>
<event>
 8    1  0.1064839E+005  0.1043930E+01  0.7957747E-01            NaN
         13   -1    0    0    0    0  0.00000000000E+00  0.00000000000E+00  0.74505805969E-08  0.10566000000E+00  0.10566000000E+00 0. -1.
     999900   -1    0    0    0    0 -0.00000000000E+00 -0.00000000000E+00 -0.74505805969E-08  0.93827000000E+00  0.93827000000E+00 0.  1.
     999902    2    1    2    0    0  0.87122437120E-02  0.81677482112E-02  0.20525446233E-01  0.10201832267E+01  0.10199068128E+01 0.  0.
     999903    2    3    3    0    0 -0.93513863850E-01 -0.16229751927E-01 -0.83328477036E-01  0.12786542875E+00  0.19942046135E-01 0.  0.
         14    1    1    2    0    0 -0.87122437120E-02 -0.81677482112E-02 -0.20525446233E-01  0.23746773347E-01  0.00000000000E+00 0.  1.
     999901    1    3    3    0    0  0.10222610756E+00  0.24397500138E-01  0.10385392327E+00  0.89231779791E+00  0.88000000000E+00 0. -1.
        -11    1    4    4    0    0 -0.21658677438E-01 -0.12532162712E-01 -0.21008846461E-01  0.32676997433E-01  0.51100000000E-03 0. -1.
         11    1    4    4    0    0 -0.71855186411E-01 -0.36975892149E-02 -0.62319630575E-01  0.95188431315E-01  0.51100000000E-03 0.  1.
</event>
<event>
 8    1  0.1064839E+005  0.1043930E+01  0.7957747E-01            NaN
         13   -1    0    0    0    0  0.00000000000E+00  0.00000000000E+00  0.74505805969E-08  0.10566000000E+00  0.10566000000E+00 0. -1.
     999900   -1    0    0    0    0 -0.00000000000E+00 -0.00000000000E+00 -0.74505805969E-08  0.93827000000E+00  0.93827000000E+00 0. -1.
     999902    2    1    2    0    0  0.91912865704E-02  0.50042906052E-02  0.17868761171E-01  0.10232221440E+01  0.10230125809E+01 0.  0.
     999903    2    3    3    0    0  0.98829309492E-01  0.11239577554E-02 -0.86065109965E-01  0.13257503001E+00  0.20010990303E-01 0.  0.
         14    1    1    2    0    0 -0.91912865704E-02 -0.50042906052E-02 -0.17868761171E-01  0.20707855974E-01  0.00000000000E+00 0.  1.
     999901    1    3    3    0    0 -0.89638022922E-01  0.38803328498E-02  0.10393387114E+00  0.89064711402E+00  0.88000000000E+00 0. -1.
        -11    1    4    4    0    0  0.51620691381E-01  0.98951007293E-02 -0.40224547671E-01  0.66188247850E-01  0.51100000000E-03 0.  1.
         11    1    4    4    0    0  0.47208618112E-01 -0.87711429739E-02 -0.45840562294E-01  0.66386782160E-01  0.51100000000E-03 0. -1.
</event>
<event>
 8    1  0.1064839E+005  0.1043930E+01  0.7957747E-01            NaN
         13   -1    0    0    0    0  0.00000000000E+00  0.00000000000E+00  0.74505805969E-08  0.10566000000E+00  0.10566000000E+00 0. -1.
     999900   -1    0    0    0    0 -0.00000000000E+00 -0.00000000000E+00 -0.74505805969E-08  0.93827000000E+00  0.93827000000E+00 0.  1.
     999902    2    1    2    0    0  0.96601890778E-03  0.22579359586E-01  0.81223417825E-02  0.10199147318E+01  0.10196319566E+01 0.  0.
     999903    2    3    3    0    0  0.12291965771E+00 -0.27515963173E-01  0.24402196452E-01  0.12994435865E+00  0.20583942109E-01 0.  0.
         14    1    1    2    0    0 -0.96601890778E-03 -0.22579359586E-01 -0.81223417825E-02  0.24015268224E-01  0.00000000000E+00 0.  1.
     999901    1    3    3    0    0 -0.12195363880E+00  0.50095322759E-01 -0.16279854670E-01  0.88997037313E+00  0.88000000000E+00 0. -1.
        -11    1    4    4    0    0  0.64857466330E-01 -0.13106235772E-01  0.24419686551E-02  0.66215471657E-01  0.51100000000E-03 0.  1.
         11    1    4    4    0    0  0.58062191376E-01 -0.14409727401E-01  0.21960227797E-01  0.63728886991E-01  0.51100000000E-03 0. -1.
</event>
<event>
 8    1  0.1064839E+005  0.1043930E+01  0.7957747E-01            NaN
         13   -1    0    0    0    0  0.00000000000E+00  0.00000000000E+00  0.74505805969E-08  0.10566000000E+00  0.10566000000E+00 0. -1.
     999900   -1    0    0    0    0 -0.00000000000E+00 -0.00000000000E+00 -0.74505805969E-08  0.93827000000E+00  0.93827000000E+00 0.  1.
     999902    2    1    2    0    0 -0.78895202563E-03 -0.14724852909E-01  0.18496486651E-01  0.10202749000E+01  0.10200006411E+01 0.  0.
     999903    2    3    3    0    0  0.82223375184E-01 -0.66841529457E-01 -0.72880284852E-01  0.13013058089E+00  0.19848392261E-01 0.  0.
         14    1    1    2    0    0  0.78895202563E-03  0.14724852909E-01 -0.18496486651E-01  0.23655100020E-01  0.00000000000E+00 0.  1.
     999901    1    3    3    0    0 -0.83012327209E-01  0.52116676548E-01  0.91376771503E-01  0.89014431909E+00  0.88000000000E+00 0. -1.
        -11    1    4    4    0    0  0.33008112787E-01 -0.16745677214E-01 -0.31589554659E-01  0.48663274650E-01  0.51100000000E-03 0. -1.
         11    1    4    4    0    0  0.49215262397E-01 -0.50095852243E-01 -0.41290730192E-01  0.81467306238E-01  0.51100000000E-03 0.  1.
</event>
<event>
 8    1  0.1064839E+005  0.1043930E+01  0.7957747E-01            NaN
         13   -1    0    0    0    0  0.00000000000E+00  0.00000000000E+00  0.74505805969E-08  0.10566000000E+00  0.10566000000E+00 0.  1.
     999900   -1    0    0    0    0 -0.00000000000E+00 -0.00000000000E+00 -0.74505805969E-08  0.93827000000E+00  0.93827000000E+00 0. -1.
     999902    2    1    2    0    0  0.14753924988E-01 -0.14733152433E-01 -0.14063514518E-01  0.10187799200E+01  0.10184694393E+01 0.  0.
     999903    2    3    3    0    0 -0.12363106014E+00 -0.13285113874E-01  0.22199642387E-01  0.12722649061E+00  0.15251967346E-01 0.  0.
         14    1    1    2    0    0 -0.14753924988E-01  0.14733152433E-01  0.14063514518E-01  0.25150079995E-01  0.00000000000E+00 0.  1.
     999901    1    3    3    0    0  0.13838498513E+00 -0.14480385597E-02 -0.36263156905E-01  0.89155342940E+00  0.88000000000E+00 0. -1.
        -11    1    4    4    0    0 -0.21507416881E-01 -0.41504977510E-02 -0.15979723511E-02  0.21968392046E-01  0.51100000000E-03 0. -1.
         11    1    4    4    0    0 -0.10212364326E+00 -0.91346161226E-02  0.23797614738E-01  0.10525809856E+00  0.51100000000E-03 0.  1.
</event>
<event>
 8    1  0.1064839E+005  0.1043930E+01  0.7957747E-01            NaN
         13   -1    0    0    0    0  0.00000000000E+00  0.00000000000E+00  0.74505805969E-08  0.10566000000E+00  0.10566000000E+00 0. -1.
     999900   -1    0    0    0    0 -0.00000000000E+00 -0.00000000000E+00 -0.74505805969E-08  0.93827000000E+00  0.93827000000E+00 0.  1.
     999902    2    1    2    0    0  0.23289182489E-02 -0.23058538757E-01  0.35736875414E-02  0.10204802385E+01  0.10202107753E+01 0.  0.
     999903    2    3    3    0    0  0.78921159881E-02  0.12547874803E+00  0.14090088900E-01  0.12795300118E+00  0.19137351023E-01 0.  0.
         14    1    1    2    0    0 -0.23289182489E-02  0.23058538757E-01 -0.35736875414E-02  0.23449761459E-01  0.00000000000E+00 0.  1.
     999901    1    3    3    0    0 -0.55631977392E-02 -0.14853728679E+00 -0.10516401359E-01  0.89252723736E+00  0.88000000000E+00 0.  1.
        -11    1    4    4    0    0  0.79986740642E-03  0.10193810569E+00  0.16401439745E-01  0.10325350128E+00  0.51100000000E-03 0.  1.
         11    1    4    4    0    0  0.70922485817E-02  0.23540642336E-01 -0.23113508448E-02  0.24699499899E-01  0.51100000000E-03 0. -1.
</event>
<event>
 8    1  0.1064839E+005  0.1043930E+01  0.7957747E-01            NaN
         13   -1    0    0    0    0  0.00000000000E+00  0.00000000000E+00  0.74505805969E-08  0.10566000000E+00  0.10566000000E+00 0. -1.
     999900   -1    0    0    0    0 -0.00000000000E+00 -0.00000000000E+00 -0.74505805969E-08  0.93827000000E+00  0.93827000000E+00 0.  1.
     999902    2    1    2    0    0  0.33190233939E-02 -0.39835219311E-02  0.23939352634E-01  0.10194355727E+01  0.10191412610E+01 0.  0.
     999903    2    3    3    0    0 -0.11360587954E+00 -0.36368142526E-01 -0.43763920531E-01  0.12853494427E+00  0.19416835530E-01 0.  0.
         14    1    1    2    0    0 -0.33190233939E-02  0.39835219311E-02 -0.23939352634E-01  0.24494427281E-01  0.00000000000E+00 0.  1.
     999901    1    3    3    0    0  0.11692490293E+00  0.32384620595E-01  0.67703273165E-01  0.89090062845E+00  0.88000000000E+00 0. -1.
        -11    1    4    4    0    0 -0.65965985829E-01 -0.21015238498E-01 -0.35489025586E-01  0.77800280163E-01  0.51100000000E-03 0.  1.
         11    1    4    4    0    0 -0.47639893707E-01 -0.15352904028E-01 -0.82748949456E-02  0.50734664105E-01  0.51100000000E-03 0. -1.
</event>
<event>
 8    1  0.1064839E+005  0.1043930E+01  0.7957747E-01            NaN
         13   -1    0    0    0    0  0.00000000000E+00  0.00000000000E+00  0.74505805969E-08  0.10566000000E+00  0.10566000000E+00 0.  1.
     999900   -1    0    0    0    0 -0.00000000000E+00 -0.00000000000E+00 -0.74505805969E-08  0.93827000000E+00  0.93827000000E+00 0. -1.
     999902    2    1    2    0    0 -0.90721203066E-02 -0.22309011171E-02 -0.22394577945E-01  0.10196648520E+01  0.10193760901E+01 0.  0.
     999903    2    3    3    0    0  0.99235597481E-01  0.37677734076E-01  0.66100467252E-01  0.12772615795E+00  0.26026605654E-01 0.  0.
         14    1    1    2    0    0  0.90721203066E-02  0.22309011171E-02  0.22394577945E-01  0.24265148011E-01  0.00000000000E+00 0.  1.
     999901    1    3    3    0    0 -0.10830771779E+00 -0.39908635193E-01 -0.88495045197E-01  0.89193869404E+00  0.88000000000E+00 0.  1.
        -11    1    4    4    0    0  0.64495749706E-01  0.33839170969E-01  0.54242260508E-01  0.90814509678E-01  0.51100000000E-03 0. -1.
         11    1    4    4    0    0  0.34739847776E-01  0.38385631071E-02  0.11858206744E-01  0.36911648275E-01  0.51100000000E-03 0.  1.
</event>
<event>
 8    1  0.1064839E+005  0.1043930E+01  0.7957747E-01            NaN
         13   -1    0    0    0    0  0.00000000000E+00  0.00000000000E+00  0.74505805969E-08  0.10566000000E+00  0.10566000000E+00 0.  1.
     999900   -1    0    0    0    0 -0.00000000000E+00 -0.00000000000E+00 -0.74505805969E-08  0.93827000000E+00  0.93827000000E+00 0.  1.
     999902    2    1    2    0    0 -0.12509655327E-01  0.76809123603E-03  0.11592844570E-01  0.10268573468E+01  0.10267154110E+01 0.  0.
     999903    2    3    3    0    0  0.49070130050E-01  0.81254203278E-01  0.96520605908E-01  0.13697937271E+00  0.20904496416E-01 0.  0.
         14    1    1    2    0    0  0.12509655327E-01 -0.76809123603E-03 -0.11592844570E-01  0.17072653156E-01  0.00000000000E+00 0. -1.
     999901    1    3    3    0    0 -0.61579785377E-01 -0.80486112042E-01 -0.84927761338E-01  0.88987797413E+00  0.88000000000E+00 0.  1.
        -11    1    4    4    0    0  0.42754257633E-01  0.77135018724E-01  0.94272998277E-01  0.12909452732E+00  0.51100000000E-03 0.  1.
         11    1    4    4    0    0  0.63158724171E-02  0.41191845534E-02  0.22476076317E-02  0.78848453910E-02  0.51100000000E-03 0. -1.
</event>
<event>
 8    1  0.1064839E+005  0.1043930E+01  0.7957747E-01            NaN
         13   -1    0    0    0    0  0.00000000000E+00  0.00000000000E+00  0.74505805969E-08  0.10566000000E+00  0.10566000000E+00 0.  1.
     999900   -1    0    0    0    0 -0.00000000000E+00 -0.00000000000E+00 -0.74505805969E-08  0.93827000000E+00  0.93827000000E+00 0. -1.
     999902    2    1    2    0    0 -0.11455553845E-01  0.99427021593E-02  0.17014921559E-01  0.10211353823E+01  0.10208809306E+01 0.  0.
     999903    2    3    3    0    0  0.90387060049E-01 -0.24528530792E-02  0.94045294377E-01  0.13183270822E+00  0.18960708076E-01 0.  0.
         14    1    1    2    0    0  0.11455553845E-01 -0.99427021593E-02 -0.17014921559E-01  0.22794617693E-01  0.00000000000E+00 0.  1.
     999901    1    3    3    0    0 -0.10184261389E+00  0.12395555239E-01 -0.77030372819E-01  0.88930267408E+00  0.88000000000E+00 0. -1.
        -11    1    4    4    0    0  0.12803501394E-01  0.49361139187E-02  0.20500424229E-01  0.24674346661E-01  0.51100000000E-03 0.  1.
         11    1    4    4    0    0  0.77583558655E-01 -0.73889669979E-02  0.73544870148E-01  0.10715836156E+00  0.51100000000E-03 0. -1.
</event>
<event>
 8    1  0.1064839E+005  0.1043930E+01  0.7957747E-01            NaN
         13   -1    0    0    0    0  0.00000000000E+00  0.00000000000E+00  0.74505805969E-08  0.10566000000E+00  0.10566000000E+00 0.  1.
     999900   -1    0    0    0    0 -0.00000000000E+00 -0.00000000000E+00 -0.74505805969E-08  0.93827000000E+00  0.93827000000E+00 0.  1.
     999902    2    1    2    0    0  0.16551685166E-01 -0.29404621737E-02  0.16411448731E-01  0.10204365914E+01  0.10201661123E+01 0.  0.
     999903    2    3    3    0    0  0.14673123196E-01  0.37685410108E-01  0.12484793052E+00  0.13284858949E+00  0.20645854216E-01 0.  0.
         14    1    1    2    0    0 -0.16551685166E-01  0.29404621737E-02 -0.16411448731E-01  0.23493408631E-01  0.00000000000E+00 0.  1.
     999901    1    3    3    0    0  0.18785619703E-02 -0.40625872281E-01 -0.10843648179E+00  0.88758800188E+00  0.88000000000E+00 0.  1.
        -11    1    4    4    0    0  0.51935352923E-03  0.78996696000E-02  0.55420334232E-01  0.55985257660E-01  0.51100000000E-03 0. -1.
         11    1    4    4    0    0  0.14153769667E-01  0.29785740508E-01  0.69427596285E-01  0.76863331832E-01  0.51100000000E-03 0.  1.
</event>
<event>
 8    1  0.1064839E+005  0.1043930E+01  0.7957747E-01            NaN
         13   -1    0    0    0    0  0.00000000000E+00  0.00000000000E+00  0.74505805969E-08  0.10566000000E+00  0.10566000000E+00 0. -1.
     999900   -1    0    0    0    0 -0.00000000000E+00 -0.00000000000E+00 -0.74505805969E-08  0.93827000000E+00  0.93827000000E+00 0.  1.
     999902    2    1    2    0    0  0.15458353428E-01 -0.16100220438E-01 -0.13740442507E-02  0.10215678492E+01  0.10213230658E+01 0.  0.
     999903    2    3    3    0    0 -0.97529977839E-01  0.79383523345E-01  0.19416847546E-01  0.12897848704E+00  0.21085440368E-01 0.  0.
         14    1    1    2    0    0 -0.15458353428E-01  0.16100220438E-01  0.13740442507E-02  0.22362150757E-01  0.00000000000E+00 0.  1.
     999901    1    3    3    0    0  0.11298833127E+00 -0.95483743783E-01 -0.20790891797E-01  0.89258936220E+00  0.88000000000E+00 0. -1.
        -11    1    4    4    0    0 -0.67750584592E-01  0.43430967660E-01  0.77089899420E-02  0.80846028421E-01  0.51100000000E-03 0.  1.
         11    1    4    4    0    0 -0.29779393247E-01  0.35952555685E-01  0.11707857604E-01  0.48132458623E-01  0.51100000000E-03 0. -1.
</event>
<event>
 8    1  0.1064839E+005  0.1043930E+01  0.7957747E-01            NaN
         13   -1    0    0    0    0  0.00000000000E+00  0.00000000000E+00  0.74505805969E-08  0.10566000000E+00  0.10566000000E+00 0.  1.
     999900   -1    0    0    0    0 -0.00000000000E+00 -0.00000000000E+00 -0.74505805969E-08  0.93827000000E+00  0.93827000000E+00 0.  1.
     999902    2    1    2    0    0  0.74716746045E-02 -0.79091974231E-02 -0.20879068634E-01  0.10203860659E+01  0.10201144086E+01 0.  0.
     999903    2    3    3    0    0 -0.43982764894E-01  0.12724527554E-01  0.11758468050E+00  0.12783605623E+00  0.20481771774E-01 0.  0.
         14    1    1    2    0    0 -0.74716746045E-02  0.79091974231E-02  0.20879068634E-01  0.23543934087E-01  0.00000000000E+00 0.  1.
     999901    1    3    3    0    0  0.51454439499E-01 -0.20633724977E-01 -0.13846374914E+00  0.89255000968E+00  0.88000000000E+00 0.  1.
        -11    1    4    4    0    0 -0.10222285099E-01  0.12373840946E-01  0.45067800554E-01  0.47843231708E-01  0.51100000000E-03 0. -1.
         11    1    4    4    0    0 -0.33760479795E-01  0.35068660784E-03  0.72516879950E-01  0.79992824527E-01  0.51100000000E-03 0.  1.
</event>
<event>
 8    1  0.1064839E+005  0.1043930E+01  0.7957747E-01            NaN
         13   -1    0    0    0    0  0.00000000000E+00  0.00000000000E+00  0.74505805969E-08  0.10566000000E+00  0.10566000000E+00 0. -1.
     999900   -1    0    0    0    0 -0.00000000000E+00 -0.00000000000E+00 -0.74505805969E-08  0.93827000000E+00  0.93827000000E+00 0.  1.
     999902    2    1    2    0    0  0.21275345753E-01 -0.74414723665E-02  0.67632905558E-02  0.10203979379E+01  0.10201265577E+01 0.  0.
     999903    2    3    3    0    0  0.69938974625E-01 -0.10980644095E+00  0.17537530356E-01  0.13306326607E+00  0.21197951812E-01 0.  0.
         14    1    1    2    0    0 -0.21275345753E-01  0.74414723665E-02 -0.67632905558E-02  0.23532062107E-01  0.00000000000E+00 0.  1.
     999901    1    3    3    0    0 -0.48663628872E-01  0.10236496859E+00 -0.10774239800E-01  0.88733467182E+00  0.88000000000E+00 0. -1.
        -11    1    4    4    0    0  0.77428446718E-02 -0.63622351866E-02 -0.33231660981E-02  0.10570441528E-01  0.51100000000E-03 0.  1.
         11    1    4    4    0    0  0.62196129953E-01 -0.10344420577E+00  0.20860696454E-01  0.12249282455E+00  0.51100000000E-03 0. -1.
</event>
<event>
 8    1  0.1064839E+005  0.1043930E+01  0.7957747E-01            NaN
         13   -1    0    0    0    0  0.00000000000E+00  0.00000000000E+00  0.74505805969E-08  0.10566000000E+00  0.10566000000E+00 0.  1.
     999900   -1    0    0    0    0 -0.00000000000E+00 -0.00000000000E+00 -0.74505805969E-08  0.93827000000E+00  0.93827000000E+00 0.  1.
     999902    2    1    2    0    0  0.22869653003E-01  0.31948119514E-02  0.30521279833E-02  0.10206374403E+01  0.10203716192E+01 0.  0.
     999903    2    3    3    0    0 -0.11810040028E+00 -0.21854815636E-01 -0.39501781295E-01  0.12805081988E+00  0.20280143849E-01 0.  0.
         14    1    1    2    0    0 -0.22869653003E-01 -0.31948119514E-02 -0.30521279833E-02  0.23292559695E-01  0.00000000000E+00 0. -1.
     999901    1    3    3    0    0  0.14097005328E+00  0.25049627587E-01  0.42553909278E-01  0.89258662042E+00  0.88000000000E+00 0.  1.
        -11    1    4    4    0    0 -0.47859868812E-01 -0.12375167727E-01 -0.26144155314E-01  0.55923964426E-01  0.51100000000E-03 0. -1.
         11    1    4    4    0    0 -0.70240531466E-01 -0.94796479093E-02 -0.13357625980E-01  0.72126855456E-01  0.51100000000E-03 0.  1.
</event>
<event>
 8    1  0.1064839E+005  0.1043930E+01  0.7957747E-01            NaN
         13   -1    0    0    0    0  0.00000000000E+00  0.00000000000E+00  0.74505805969E-08  0.10566000000E+00  0.10566000000E+00 0.  1.
     999900   -1    0    0    0    0 -0.00000000000E+00 -0.00000000000E+00 -0.74505805969E-08  0.93827000000E+00  0.93827000000E+00 0. -1.
     999902    2    1    2    0    0 -0.27432835568E-01 -0.18565843361E-02  0.14630955672E-01  0.10127840173E+01  0.10123049904E+01 0.  0.
     999903    2    3    3    0    0 -0.91836998746E-01 -0.27533665435E-01 -0.78131097828E-01  0.12519627108E+00  0.19429379112E-01 0.  0.
         14    1    1    2    0    0  0.27432835568E-01  0.18565843361E-02 -0.14630955672E-01  0.31145982671E-01  0.00000000000E+00 0. -1.
     999901    1    3    3    0    0  0.64404163178E-01  0.25677081098E-01  0.92762053500E-01  0.88758774625E+00  0.88000000000E+00 0.  1.
        -11    1    4    4    0    0 -0.41149417481E-01 -0.88578433201E-02 -0.45946838553E-01  0.62314597337E-01  0.51100000000E-03 0. -1.
         11    1    4    4    0    0 -0.50687581264E-01 -0.18675822114E-01 -0.32184259275E-01  0.62881673739E-01  0.51100000000E-03 0.  1.
</event>
<event>
 8    1  0.1064839E+005  0.1043930E+01  0.7957747E-01            NaN
         13   -1    0    0    0    0  0.00000000000E+00  0.00000000000E+00  0.74505805969E-08  0.10566000000E+00  0.10566000000E+00 0.  1.
     999900   -1    0    0    0    0 -0.00000000000E+00 -0.00000000000E+00 -0.74505805969E-08  0.93827000000E+00  0.93827000000E+00 0.  1.
     999902    2    1    2    0    0 -0.17425559620E-01  0.92465602916E-02 -0.12466576559E-01  0.10205940934E+01  0.10203272705E+01 0.  0.
     999903    2    3    3    0    0 -0.56168614951E-02 -0.12766545453E+00  0.12304715949E-01  0.12958457489E+00  0.17627779318E-01 0.  0.
         14    1    1    2    0    0  0.17425559620E-01 -0.92465602916E-02  0.12466576559E-01  0.23335906590E-01  0.00000000000E+00 0.  1.
     999901    1    3    3    0    0 -0.11808698125E-01  0.13691201482E+00 -0.24771292508E-01  0.89100951852E+00  0.88000000000E+00 0. -1.
        -11    1    4    4    0    0 -0.72824404025E-02 -0.46767418933E-01  0.11289209261E-01  0.48661409542E-01  0.51100000000E-03 0.  1.
         11    1    4    4    0    0  0.16655789074E-02 -0.80898035592E-01  0.10155066879E-02  0.80923165352E-01  0.51100000000E-03 0. -1.
</event>
<event>
 8    1  0.1064839E+005  0.1043930E+01  0.7957747E-01            NaN
         13   -1    0    0    0    0  0.00000000000E+00  0.00000000000E+00  0.74505805969E-08  0.10566000000E+00  0.10566000000E+00 0.  1.
     999900   -1    0    0    0    0 -0.00000000000E+00 -0.00000000000E+00 -0.74505805969E-08  0.93827000000E+00  0.93827000000E+00 0. -1.
     999902    2    1    2    0    0  0.88743817586E-02 -0.22180069515E-01  0.15495820634E-02  0.10199902561E+01  0.10197092777E+01 0.  0.
     999903    2    3    3    0    0 -0.55727776376E-01 -0.11757077624E+00  0.14516015349E-01  0.13238620348E+00  0.19670274114E-01 0.  0.
         14    1    1    2    0    0 -0.88743817586E-02  0.22180069515E-01 -0.15495820634E-02  0.23939743938E-01  0.00000000000E+00 0.  1.
     999901    1    3    3    0    0  0.64602158135E-01  0.95390706730E-01 -0.12966433285E-01  0.88760405258E+00  0.88000000000E+00 0.  1.
        -11    1    4    4    0    0 -0.49196496371E-02 -0.22393959208E-01  0.80377432746E-02  0.24301415587E-01  0.51100000000E-03 0.  1.
         11    1    4    4    0    0 -0.50808126739E-01 -0.95176817037E-01  0.64782720743E-02  0.10808478789E+00  0.51100000000E-03 0. -1.
</event>
<event>
 8    1  0.1064839E+005  0.1043930E+01  0.7957747E-01            NaN
         13   -1    0    0    0    0  0.00000000000E+00  0.00000000000E+00  0.74505805969E-08  0.10566000000E+00  0.10566000000E+00 0. -1.
     999900   -1    0    0    0    0 -0.00000000000E+00 -0.00000000000E+00 -0.74505805969E-08  0.93827000000E+00  0.93827000000E+00 0.  1.
     999902    2    1    2    0    0 -0.53118686331E-03  0.24399147012E-01  0.62184527129E-03  0.10195171504E+01  0.10192248195E+01 0.  0.
     999903    2    3    3    0    0 -0.65618967938E-01  0.10548781124E+00  0.41609335912E-01  0.13244795067E+00  0.19431817381E-01 0.  0.
         14    1    1    2    0    0  0.53118686331E-03 -0.24399147012E-01 -0.62184527129E-03  0.24412849607E-01  0.00000000000E+00 0. -1.
     999901    1    3    3    0    0  0.65087781075E-01 -0.81088664232E-01 -0.40987490641E-01  0.88706919973E+00  0.88000000000E+00 0.  1.
        -11    1    4    4    0    0 -0.22697888683E-01  0.30175603255E-01  0.21522623384E-01  0.43465453188E-01  0.51100000000E-03 0.  1.
         11    1    4    4    0    0 -0.42921079255E-01  0.75312207989E-01  0.20086712528E-01  0.88982497480E-01  0.51100000000E-03 0. -1.
</event>
<event>
 8    1  0.1064839E+005  0.1043930E+01  0.7957747E-01            NaN
         13   -1    0    0    0    0  0.00000000000E+00  0.00000000000E+00  0.74505805969E-08  0.10566000000E+00  0.10566000000E+00 0.  1.
     999900   -1    0    0    0    0 -0.00000000000E+00 -0.00000000000E+00 -0.74505805969E-08  0.93827000000E+00  0.93827000000E+00 0.  1.
     999902    2    1    2    0    0  0.60299098762E-02 -0.16041568504E-01  0.16683093615E-01  0.10200131159E+01  0.10197326803E+01 0.  0.
     999903    2    3    3    0    0  0.15116606622E-01  0.79917729602E-02  0.12999263757E+00  0.13237624063E+00  0.18248370603E-01 0.  0.
         14    1    1    2    0    0 -0.60299098762E-02  0.16041568504E-01 -0.16683093615E-01  0.23916884114E-01  0.00000000000E+00 0. -1.
     999901    1    3    3    0    0 -0.90866967457E-02 -0.24033341464E-01 -0.11330954396E+00  0.88763687525E+00  0.88000000000E+00 0.  1.
        -11    1    4    4    0    0  0.14781085810E-01  0.95617489164E-02  0.64478665134E-01  0.66840608305E-01  0.51100000000E-03 0.  1.
         11    1    4    4    0    0  0.33552081201E-03 -0.15699759562E-02  0.65513972439E-01  0.65535632326E-01  0.51100000000E-03 0. -1.
</event>
<event>
 8    1  0.1064839E+005  0.1043930E+01  0.7957747E-01            NaN
         13   -1    0    0    0    0  0.00000000000E+00  0.00000000000E+00  0.74505805969E-08  0.10566000000E+00  0.10566000000E+00 0.  1.
     999900   -1    0    0    0    0 -0.00000000000E+00 -0.00000000000E+00 -0.74505805969E-08  0.93827000000E+00  0.93827000000E+00 0.  1.
     999902    2    1    2    0    0  0.64545211459E-02  0.22809881135E-01 -0.21689316531E-03  0.10202234911E+01  0.10199480248E+01 0.  0.
     999903    2    3    3    0    0 -0.85217745831E-01  0.63877327931E-01 -0.74995268311E-01  0.13135784036E+00  0.16976887990E-01 0.  0.
         14    1    1    2    0    0 -0.64545211459E-02 -0.22809881135E-01  0.21689316531E-03  0.23706508880E-01  0.00000000000E+00 0.  1.
     999901    1    3    3    0    0  0.91672266977E-01 -0.41067446796E-01  0.74778375146E-01  0.88886565076E+00  0.88000000000E+00 0. -1.
        -11    1    4    4    0    0 -0.50002006758E-01  0.29489527593E-01 -0.33833479575E-01  0.67192249395E-01  0.51100000000E-03 0. -1.
         11    1    4    4    0    0 -0.35215739073E-01  0.34387800338E-01 -0.41161788735E-01  0.64165590961E-01  0.51100000000E-03 0.  1.
</event>
<event>
 8    1  0.1064839E+005  0.1043930E+01  0.7957747E-01            NaN
         13   -1    0    0    0    0  0.00000000000E+00  0.00000000000E+00  0.74505805969E-08  0.10566000000E+00  0.10566000000E+00 0.  1.
     999900   -1    0    0    0    0 -0.00000000000E+00 -0.00000000000E+00 -0.74505805969E-08  0.93827000000E+00  0.93827000000E+00 0.  1.
     999902    2    1    2    0    0  0.65907332346E-02  0.16724603274E-02  0.22738536331E-01  0.10201965653E+01  0.10199204655E+01 0.  0.
     999903    2    3    3    0    0 -0.33731355957E-01 -0.76404810118E-01  0.10095180057E+00  0.13236817775E+00  0.18830004217E-01 0.  0.
         14    1    1    2    0    0 -0.65907332346E-02 -0.16724603274E-02 -0.22738536331E-01  0.23733434698E-01  0.00000000000E+00 0. -1.
     999901    1    3    3    0    0  0.40322089192E-01  0.78077270446E-01 -0.78213264240E-01  0.88782838755E+00  0.88000000000E+00 0. -1.
        -11    1    4    4    0    0 -0.23434289770E-01 -0.50191230426E-01  0.52484372401E-01  0.76309868406E-01  0.51100000000E-03 0. -1.
         11    1    4    4    0    0 -0.10297066187E-01 -0.26213579692E-01  0.48467428169E-01  0.56058309346E-01  0.51100000000E-03 0.  1.
</event>
<event>
 8    1  0.1064839E+005  0.1043930E+01  0.7957747E-01            NaN
         13   -1    0    0    0    0  0.00000000000E+00  0.00000000000E+00  0.74505805969E-08  0.10566000000E+00  0.10566000000E+00 0.  1.
     999900   -1    0    0    0    0 -0.00000000000E+00 -0.00000000000E+00 -0.74505805969E-08  0.93827000000E+00  0.93827000000E+00 0.  1.
     999902    2    1    2    0    0  0.46816240979E-02  0.12289824557E-01  0.19261449631E-01  0.10206070321E+01  0.10203405084E+01 0.  0.
     999903    2    3    3    0    0 -0.48336070811E-01 -0.11387036421E+00 -0.29162117078E-01  0.12871459963E+00  0.20351498708E-01 0.  0.
         14    1    1    2    0    0 -0.46816240979E-02 -0.12289824557E-01 -0.19261449631E-01  0.23322967944E-01  0.00000000000E+00 0. -1.
     999901    1    3    3    0    0  0.53017694909E-01  0.12616018876E+00  0.48423566709E-01  0.89189243242E+00  0.88000000000E+00 0. -1.
        -11    1    4    4    0    0  0.20022270261E-02 -0.40406373611E-02 -0.13920368870E-02  0.47470570928E-02  0.51100000000E-03 0.  1.
         11    1    4    4    0    0 -0.50338297837E-01 -0.10982972685E+00 -0.27770080191E-01  0.12396754254E+00  0.51100000000E-03 0. -1.
</event>
<event>
 8    1  0.1064839E+005  0.1043930E+01  0.7957747E-01            NaN
         13   -1    0    0    0    0  0.00000000000E+00  0.00000000000E+00  0.74505805969E-08  0.10566000000E+00  0.10566000000E+00 0.  1.
     999900   -1    0    0    0    0 -0.00000000000E+00 -0.00000000000E+00 -0.74505805969E-08  0.93827000000E+00  0.93827000000E+00 0. -1.
     999902    2    1    2    0    0 -0.17095912073E-01 -0.15349891541E-01 -0.71440696876E-02  0.10198690958E+01  0.10195852321E+01 0.  0.
     999903    2    3    3    0    0 -0.50940092652E-01 -0.52479165777E-01  0.10680423681E+00  0.13110128127E+00  0.20771255877E-01 0.  0.
         14    1    1    2    0    0  0.17095912073E-01  0.15349891541E-01  0.71440696876E-02  0.24060904215E-01  0.00000000000E+00 0.  1.
     999901    1    3    3    0    0  0.33844180579E-01  0.37129274236E-01 -0.11394830649E+00  0.88876781451E+00  0.88000000000E+00 0. -1.
        -11    1    4    4    0    0 -0.16968140226E-01 -0.14640569654E-01  0.50378587868E-01  0.55140976589E-01  0.51100000000E-03 0. -1.
         11    1    4    4    0    0 -0.33971952426E-01 -0.37838596123E-01  0.56425648939E-01  0.75960304682E-01  0.51100000000E-03 0.  1.
</event>
<event>
 8    1  0.1064839E+005  0.1043930E+01  0.7957747E-01            NaN
         13   -1    0    0    0    0  0.00000000000E+00  0.00000000000E+00  0.74505805969E-08  0.10566000000E+00  0.10566000000E+00 0.  1.
     999900   -1    0    0    0    0 -0.00000000000E+00 -0.00000000000E+00 -0.74505805969E-08  0.93827000000E+00  0.93827000000E+00 0.  1.
     999902    2    1    2    0    0 -0.17118746588E-01 -0.12291137834E-01 -0.10300419554E-01  0.10204731844E+01  0.10202035571E+01 0.  0.
     999903    2    3    3    0    0  0.10307263816E+00  0.66839381214E-01  0.29382405307E-01  0.12790255159E+00  0.20106350775E-01 0.  0.
         14    1    1    2    0    0  0.17118746588E-01  0.12291137834E-01  0.10300419554E-01  0.23456815577E-01  0.00000000000E+00 0. -1.
     999901    1    3    3    0    0 -0.12019138475E+00 -0.79130519049E-01 -0.39682824862E-01  0.89257063284E+00  0.88000000000E+00 0.  1.
        -11    1    4    4    0    0  0.72271048771E-01  0.37057608048E-01  0.14245938190E-01  0.82459557848E-01  0.51100000000E-03 0. -1.
         11    1    4    4    0    0  0.30801589394E-01  0.29781773166E-01  0.15136467118E-01  0.45442993738E-01  0.51100000000E-03 0.  1.
</event>
<event>
 8    1  0.1064839E+005  0.1043930E+01  0.7957747E-01            NaN
         13   -1    0    0    0    0  0.00000000000E+00  0.00000000000E+00  0.74505805969E-08  0.10566000000E+00  0.10566000000E+00 0.  1.
     999900   -1    0    0    0    0 -0.00000000000E+00 -0.00000000000E+00 -0.74505805969E-08  0.93827000000E+00  0.93827000000E+00 0. -1.
     999902    2    1    2    0    0  0.10301291408E-01 -0.16205693144E-01  0.31453508638E-02  0.10244714716E+01  0.10242866600E+01 0.  0.
     999903    2    3    3    0    0  0.32963970020E-01 -0.87080008018E-01 -0.94562365502E-01  0.13594259569E+00  0.29475366626E-01 0.  0.
         14    1    1    2    0    0 -0.10301291408E-01  0.16205693144E-01 -0.31453508638E-02  0.19458528387E-01  0.00000000000E+00 0. -1.
     999901    1    3    3    0    0 -0.22662678612E-01  0.70874314874E-01  0.97707716366E-01  0.88852887592E+00  0.88000000000E+00 0.  1.
        -11    1    4    4    0    0  0.34181286291E-01 -0.50302794340E-01 -0.56921274005E-01  0.83300804356E-01  0.51100000000E-03 0. -1.
         11    1    4    4    0    0 -0.12173162712E-02 -0.36777213678E-01 -0.37641091497E-01  0.52641791334E-01  0.51100000000E-03 0.  1.
</event>
<event>
 8    1  0.1064839E+005  0.1043930E+01  0.7957747E-01            NaN
         13   -1    0    0    0    0  0.00000000000E+00  0.00000000000E+00  0.74505805969E-08  0.10566000000E+00  0.10566000000E+00 0.  1.
     999900   -1    0    0    0    0 -0.00000000000E+00 -0.00000000000E+00 -0.74505805969E-08  0.93827000000E+00  0.93827000000E+00 0.  1.
     999902    2    1    2    0    0  0.16464972471E-01 -0.10998132690E-01 -0.13327652468E-01  0.10200620181E+01  0.10197827416E+01 0.  0.
     999903    2    3    3    0    0  0.15745969158E-01  0.11548926839E+00 -0.54102855636E-01  0.13008325608E+00  0.20219492237E-01 0.  0.
         14    1    1    2    0    0 -0.16464972471E-01  0.10998132690E-01  0.13327652468E-01  0.23867981931E-01  0.00000000000E+00 0.  1.
     999901    1    3    3    0    0  0.71900331337E-03 -0.12648740108E+00  0.40775203168E-01  0.88997876199E+00  0.88000000000E+00 0. -1.
        -11    1    4    4    0    0 -0.42541294034E-02  0.31434603286E-01 -0.11471837549E-01  0.33735679605E-01  0.51100000000E-03 0.  1.
         11    1    4    4    0    0  0.20000098561E-01  0.84054665105E-01 -0.42631018088E-01  0.96347576475E-01  0.51100000000E-03 0. -1.
</event>
<event>
 8    1  0.1064839E+005  0.1043930E+01  0.7957747E-01            NaN
         13   -1    0    0    0    0  0.00000000000E+00  0.00000000000E+00  0.74505805969E-08  0.10566000000E+00  0.10566000000E+00 0.  1.
     999900   -1    0    0    0    0 -0.00000000000E+00 -0.00000000000E+00 -0.74505805969E-08  0.93827000000E+00  0.93827000000E+00 0. -1.
     999902    2    1    2    0    0 -0.11643359139E-01 -0.16385511528E-02  0.20927243393E-01  0.10199257883E+01  0.10196432766E+01 0.  0.
     999903    2    3    3    0    0  0.37003041777E-01  0.96437005718E-01  0.78481206423E-01  0.13127639411E+00  0.20121399488E-01 0.  0.
         14    1    1    2    0    0  0.11643359139E-01  0.16385511528E-02 -0.20927243393E-01  0.24004211671E-01  0.00000000000E+00 0. -1.
     999901    1    3    3    0    0 -0.48646400916E-01 -0.98075556871E-01 -0.57553963030E-01  0.88864939421E+00  0.88000000000E+00 0. -1.
        -11    1    4    4    0    0  0.29620854533E-02  0.25739575778E-01  0.27023697875E-01  0.37441168242E-01  0.51100000000E-03 0. -1.
         11    1    4    4    0    0  0.34040956324E-01  0.70697429940E-01  0.51457508549E-01  0.93835225872E-01  0.51100000000E-03 0.  1.
</event>
<event>
 8    1  0.1064839E+005  0.1043930E+01  0.7957747E-01            NaN
         13   -1    0    0    0    0  0.00000000000E+00  0.00000000000E+00  0.74505805969E-08  0.10566000000E+00  0.10566000000E+00 0. -1.
     999900   -1    0    0    0    0 -0.00000000000E+00 -0.00000000000E+00 -0.74505805969E-08  0.93827000000E+00  0.93827000000E+00 0.  1.
     999902    2    1    2    0    0 -0.74613362249E-02 -0.68474199525E-02 -0.12244326146E-01  0.10280403109E+01  0.10279175057E+01 0.  0.
     999903    2    3    3    0    0  0.11435130938E+00 -0.64663629770E-01  0.31984429254E-01  0.13667213914E+00  0.19966545277E-01 0.  0.
         14    1    1    2    0    0  0.74613362249E-02  0.68474199525E-02  0.12244326146E-01  0.15889689142E-01  0.00000000000E+00 0. -1.
     999901    1    3    3    0    0 -0.12181264561E+00  0.57816209817E-01 -0.44228755400E-01  0.89136817172E+00  0.88000000000E+00 0. -1.
        -11    1    4    4    0    0  0.74740620537E-01 -0.32103025115E-01  0.23713872601E-01  0.84731183484E-01  0.51100000000E-03 0.  1.
         11    1    4    4    0    0  0.39610688844E-01 -0.32560604654E-01  0.82705566523E-02  0.51940955656E-01  0.51100000000E-03 0. -1.
</event>
<event>
 8    1  0.1064839E+005  0.1043930E+01  0.7957747E-01            NaN
         13   -1    0    0    0    0  0.00000000000E+00  0.00000000000E+00  0.74505805969E-08  0.10566000000E+00  0.10566000000E+00 0.  1.
     999900   -1    0    0    0    0 -0.00000000000E+00 -0.00000000000E+00 -0.74505805969E-08  0.93827000000E+00  0.93827000000E+00 0.  1.
     999902    2    1    2    0    0  0.21406605169E-01  0.17091601097E-01 -0.15876214955E-02  0.10164912297E+01  0.10161208265E+01 0.  0.
     999903    2    3    3    0    0  0.72295915295E-01  0.10001045014E+00 -0.37278588255E-01  0.13041047576E+00  0.19708108521E-01 0.  0.
         14    1    1    2    0    0 -0.21406605169E-01 -0.17091601097E-01  0.15876214955E-02  0.27438770288E-01  0.00000000000E+00 0. -1.
     999901    1    3    3    0    0 -0.50889310126E-01 -0.82918849039E-01  0.35690966760E-01  0.88608075395E+00  0.88000000000E+00 0.  1.
        -11    1    4    4    0    0  0.13608958348E-01  0.23336559467E-01 -0.31951864959E-03  0.27021509363E-01  0.51100000000E-03 0.  1.
         11    1    4    4    0    0  0.58686956947E-01  0.76673890669E-01 -0.36959069606E-01  0.10338896640E+00  0.51100000000E-03 0. -1.
</event>
<event>
 8    1  0.1064839E+005  0.1043930E+01  0.7957747E-01            NaN
         13   -1    0    0    0    0  0.00000000000E+00  0.00000000000E+00  0.74505805969E-08  0.10566000000E+00  0.10566000000E+00 0.  1.
     999900   -1    0    0    0    0 -0.00000000000E+00 -0.00000000000E+00 -0.74505805969E-08  0.93827000000E+00  0.93827000000E+00 0. -1.
     999902    2    1    2    0    0 -0.77484863108E-02 -0.10053125643E-01  0.20556373283E-01  0.10197707604E+01  0.10194845437E+01 0.  0.
     999903    2    3    3    0    0  0.82764360215E-01 -0.76280114601E-01  0.64549147784E-01  0.13156247759E+00  0.21760005156E-01 0.  0.
         14    1    1    2    0    0  0.77484863108E-02  0.10053125643E-01 -0.20556373283E-01  0.24159239596E-01  0.00000000000E+00 0. -1.
     999901    1    3    3    0    0 -0.90512846526E-01  0.66226988958E-01 -0.43992774500E-01  0.88820828281E+00  0.88000000000E+00 0.  1.
        -11    1    4    4    0    0  0.44427429167E-01 -0.44487922810E-01  0.23865824038E-01  0.67251843219E-01  0.51100000000E-03 0. -1.
         11    1    4    4    0    0  0.38336931048E-01 -0.31792191791E-01  0.40683323746E-01  0.64310634370E-01  0.51100000000E-03 0.  1.
</event>
<event>
 8    1  0.1064839E+005  0.1043930E+01  0.7957747E-01            NaN
         13   -1    0    0    0    0  0.00000000000E+00  0.00000000000E+00  0.74505805969E-08  0.10566000000E+00  0.10566000000E+00 0.  1.
     999900   -1    0    0    0    0 -0.00000000000E+00 -0.00000000000E+00 -0.74505805969E-08  0.93827000000E+00  0.93827000000E+00 0. -1.
     999902    2    1    2    0    0 -0.36945651053E-02  0.11136052793E-01  0.19060362034E-01  0.10215478892E+01  0.10213026638E+01 0.  0.
     999903    2    3    3    0    0  0.20539335610E-01  0.11033533043E+00  0.70677325192E-01  0.13414037880E+00  0.20065081108E-01 0.  0.
         14    1    1    2    0    0  0.36945651053E-02 -0.11136052793E-01 -0.19060362034E-01  0.22382110802E-01  0.00000000000E+00 0. -1.
     999901    1    3    3    0    0 -0.24233900715E-01 -0.99199277636E-01 -0.51616963158E-01  0.88740751040E+00  0.88000000000E+00 0.  1.
        -11    1    4    4    0    0 -0.15467692478E-02  0.38989614611E-01  0.19703282659E-01  0.43715706687E-01  0.51100000000E-03 0.  1.
         11    1    4    4    0    0  0.22086104857E-01  0.71345715817E-01  0.50974042533E-01  0.90424672111E-01  0.51100000000E-03 0. -1.
</event>
<event>
 8    1  0.1064839E+005  0.1043930E+01  0.7957747E-01            NaN
         13   -1    0    0    0    0  0.00000000000E+00  0.00000000000E+00  0.74505805969E-08  0.10566000000E+00  0.10566000000E+00 0. -1.
     999900   -1    0    0    0    0 -0.00000000000E+00 -0.00000000000E+00 -0.74505805969E-08  0.93827000000E+00  0.93827000000E+00 0. -1.
     999902    2    1    2    0    0 -0.10986394491E-01 -0.13149947967E-01  0.15720735419E-01  0.10206756774E+01  0.10204107384E+01 0.  0.
     999903    2    3    3    0    0  0.80791900620E-01  0.74001541058E-01 -0.63354280088E-01  0.12811111643E+00  0.19877979365E-01 0.  0.
         14    1    1    2    0    0  0.10986394491E-01  0.13149947967E-01 -0.15720735419E-01  0.23254322557E-01  0.00000000000E+00 0.  1.
     999901    1    3    3    0    0 -0.91778295112E-01 -0.87151489025E-01  0.79075015507E-01  0.89256456101E+00  0.88000000000E+00 0.  1.
        -11    1    4    4    0    0  0.18892482510E-01  0.82654146967E-02 -0.75597504706E-02  0.21969386056E-01  0.51100000000E-03 0.  1.
         11    1    4    4    0    0  0.61899418110E-01  0.65736126361E-01 -0.55794529617E-01  0.10614173038E+00  0.51100000000E-03 0. -1.
</event>
<event>
 8    1  0.1064839E+005  0.1043930E+01  0.7957747E-01            NaN
         13   -1    0    0    0    0  0.00000000000E+00  0.00000000000E+00  0.74505805969E-08  0.10566000000E+00  0.10566000000E+00 0.  1.
     999900   -1    0    0    0    0 -0.00000000000E+00 -0.00000000000E+00 -0.74505805969E-08  0.93827000000E+00  0.93827000000E+00 0. -1.
     999902    2    1    2    0    0  0.11430679941E-01 -0.22060654304E-01 -0.87501247732E-03  0.10190684120E+01  0.10187651004E+01 0.  0.
     999903    2    3    3    0    0 -0.11371309308E+00 -0.13891525177E-01  0.54446122594E-01  0.12845731471E+00  0.20328783205E-01 0.  0.
         14    1    1    2    0    0 -0.11430679941E-01  0.22060654304E-01  0.87501247732E-03  0.24861588024E-01  0.00000000000E+00 0.  1.
     999901    1    3    3    0    0  0.12514377302E+00 -0.81691291275E-02 -0.55321135072E-01  0.89061109727E+00  0.88000000000E+00 0.  1.
        -11    1    4    4    0    0 -0.35573587287E-01  0.42970364134E-02  0.20994032882E-01  0.41532579646E-01  0.51100000000E-03 0.  1.
         11    1    4    4    0    0 -0.78139505791E-01 -0.18188561590E-01  0.33452089712E-01  0.86924735059E-01  0.51100000000E-03 0. -1.
</event>
<event>
 8    1  0.1064839E+005  0.1043930E+01  0.7957747E-01            NaN
         13   -1    0    0    0    0  0.00000000000E+00  0.00000000000E+00  0.74505805969E-08  0.10566000000E+00  0.10566000000E+00 0. -1.
     999900   -1    0    0    0    0 -0.00000000000E+00 -0.00000000000E+00 -0.74505805969E-08  0.93827000000E+00  0.93827000000E+00 0. -1.
     999902    2    1    2    0    0  0.12198256423E-02 -0.21751253088E-01  0.80663152726E-02  0.10206991923E+01  0.10204347949E+01 0.  0.
     999903    2    3    3    0    0  0.16980570508E-01 -0.64379692187E-01  0.11371682166E+00  0.13321532515E+00  0.19537727233E-01 0.  0.
         14    1    1    2    0    0 -0.12198256423E-02  0.21751253088E-01 -0.80663152726E-02  0.23230807725E-01  0.00000000000E+00 0.  1.
     999901    1    3    3    0    0 -0.15760744865E-01  0.42628439099E-01 -0.10565050639E+00  0.88748386712E+00  0.88000000000E+00 0. -1.
        -11    1    4    4    0    0  0.95075392129E-02 -0.11334068822E-01  0.16143415206E-01  0.21902634395E-01  0.51100000000E-03 0.  1.
         11    1    4    4    0    0  0.74730312948E-02 -0.53045623365E-01  0.97573406459E-01  0.11131269076E+00  0.51100000000E-03 0. -1.
</event>
<event>
 8    1  0.1064839E+005  0.1043930E+01  0.7957747E-01            NaN
         13   -1    0    0    0    0  0.00000000000E+00  0.00000000000E+00  0.74505805969E-08  0.10566000000E+00  0.10566000000E+00 0. -1.
     999900   -1    0    0    0    0 -0.00000000000E+00 -0.00000000000E+00 -0.74505805969E-08  0.93827000000E+00  0.93827000000E+00 0. -1.
     999902    2    1    2    0    0  0.11214142615E-01  0.20430784362E-01 -0.43394347963E-02  0.10202233630E+01  0.10199478936E+01 0.  0.
     999903    2    3    3    0    0  0.61805324119E-01 -0.27213705607E-01 -0.11060270040E+00  0.13111068920E+00  0.19914106128E-01 0.  0.
         14    1    1    2    0    0 -0.11214142615E-01 -0.20430784362E-01  0.43394347963E-02  0.23706637016E-01  0.00000000000E+00 0. -1.
     999901    1    3    3    0    0 -0.50591181504E-01  0.47644489970E-01  0.10626326561E+00  0.88911267379E+00  0.88000000000E+00 0.  1.
        -11    1    4    4    0    0  0.17284164322E-01 -0.15583339148E-01 -0.48698480422E-01  0.53975790052E-01  0.51100000000E-03 0. -1.
         11    1    4    4    0    0  0.44521159797E-01 -0.11630366460E-01 -0.61904219982E-01  0.77134899146E-01  0.51100000000E-03 0.  1.
</event>
<event>
 8    1  0.1064839E+005  0.1043930E+01  0.7957747E-01            NaN
         13   -1    0    0    0    0  0.00000000000E+00  0.00000000000E+00  0.74505805969E-08  0.10566000000E+00  0.10566000000E+00 0. -1.
     999900   -1    0    0    0    0 -0.00000000000E+00 -0.00000000000E+00 -0.74505805969E-08  0.93827000000E+00  0.93827000000E+00 0.  1.
     999902    2    1    2    0    0  0.15520349694E-02  0.21268370964E-01 -0.25829213099E-02  0.10224492203E+01  0.10222235490E+01 0.  0.
     999903    2    3    3    0    0  0.51406261794E-02  0.46792437776E-01  0.12301114188E+00  0.13315836531E+00  0.19581903748E-01 0.  0.
         14    1    1    2    0    0 -0.15520349694E-02 -0.21268370964E-01  0.25829213099E-02  0.21480779746E-01  0.00000000000E+00 0. -1.
     999901    1    3    3    0    0 -0.35885912100E-02 -0.25524066812E-01 -0.12559406319E+00  0.88929085494E+00  0.88000000000E+00 0.  1.
        -11    1    4    4    0    0 -0.44057520109E-02  0.55564663573E-02  0.32066888978E-01  0.32845569852E-01  0.51100000000E-03 0. -1.
         11    1    4    4    0    0  0.95463781903E-02  0.41235971418E-01  0.90944252907E-01  0.10031279546E+00  0.51100000000E-03 0.  1.
</event>
<event>
 8    1  0.1064839E+005  0.1043930E+01  0.7957747E-01            NaN
         13   -1    0    0    0    0  0.00000000000E+00  0.00000000000E+00  0.74505805969E-08  0.10566000000E+00  0.10566000000E+00 0. -1.
     999900   -1    0    0    0    0 -0.00000000000E+00 -0.00000000000E+00 -0.74505805969E-08  0.93827000000E+00  0.93827000000E+00 0.  1.
     999902    2    1    2    0    0  0.38164248095E-02 -0.19385686792E-02 -0.23102470650E-01  0.10204343132E+01  0.10201637811E+01 0.  0.
     999903    2    3    3    0    0  0.79663376472E-01  0.49301459527E-01  0.86481162198E-01  0.12892611183E+00  0.19132784281E-01 0.  0.
         14    1    1    2    0    0 -0.38164248095E-02  0.19385686792E-02  0.23102470650E-01  0.23495686774E-01  0.00000000000E+00 0. -1.
     999901    1    3    3    0    0 -0.75846951662E-01 -0.51240028206E-01 -0.10958363285E+00  0.89150820140E+00  0.88000000000E+00 0.  1.
        -11    1    4    4    0    0  0.28043601608E-01  0.97659592700E-02  0.19232988981E-01  0.35383421793E-01  0.51100000000E-03 0. -1.
         11    1    4    4    0    0  0.51619774864E-01  0.39535500257E-01  0.67248173217E-01  0.93542690038E-01  0.51100000000E-03 0.  1.
</event>
<event>
 8    1  0.1064839E+005  0.1043930E+01  0.7957747E-01            NaN
         13   -1    0    0    0    0  0.00000000000E+00  0.00000000000E+00  0.74505805969E-08  0.10566000000E+00  0.10566000000E+00 0. -1.
     999900   -1    0    0    0    0 -0.00000000000E+00 -0.00000000000E+00 -0.74505805969E-08  0.93827000000E+00  0.93827000000E+00 0. -1.
     999902    2    1    2    0    0  0.12803647437E-01  0.10873227273E-01 -0.16628209880E-01  0.10202940565E+01  0.10200202469E+01 0.  0.
     999903    2    3    3    0    0 -0.91974293447E-01 -0.52183970448E-01  0.68627877481E-01  0.12775653492E+00  0.20724604244E-01 0.  0.
         14    1    1    2    0    0 -0.12803647437E-01 -0.10873227273E-01  0.16628209880E-01  0.23635943451E-01  0.00000000000E+00 0. -1.
     999901    1    3    3    0    0  0.10477794088E+00  0.63057197721E-01 -0.85256087360E-01  0.89253752163E+00  0.88000000000E+00 0. -1.
        -11    1    4    4    0    0 -0.28067878210E-01 -0.24264848189E-01  0.31913975189E-01  0.48942329105E-01  0.51100000000E-03 0.  1.
         11    1    4    4    0    0 -0.63906415237E-01 -0.27919122259E-01  0.36713902292E-01  0.78814205817E-01  0.51100000000E-03 0. -1.
</event>
<event>
 8    1  0.1064839E+005  0.1043930E+01  0.7957747E-01            NaN
         13   -1    0    0    0    0  0.00000000000E+00  0.00000000000E+00  0.74505805969E-08  0.10566000000E+00  0.10566000000E+00 0. -1.
     999900   -1    0    0    0    0 -0.00000000000E+00 -0.00000000000E+00 -0.74505805969E-08  0.93827000000E+00  0.93827000000E+00 0.  1.
     999902    2    1    2    0    0  0.74402779387E-02 -0.23117440902E-01  0.60170418963E-02  0.10189104356E+01  0.10186032089E+01 0.  0.
     999903    2    3    3    0    0  0.18654995254E-01  0.12374374301E+00 -0.34606250057E-03  0.12664676026E+00  0.19461740543E-01 0.  0.
         14    1    1    2    0    0 -0.74402779387E-02  0.23117440902E-01 -0.60170418963E-02  0.25019564402E-01  0.00000000000E+00 0.  1.
     999901    1    3    3    0    0 -0.11214717316E-01 -0.14686118391E+00  0.63631043969E-02  0.89226367533E+00  0.88000000000E+00 0. -1.
        -11    1    4    4    0    0  0.31126278867E-03  0.13617196449E-01  0.58438967341E-02  0.14830278948E-01  0.51100000000E-03 0.  1.
         11    1    4    4    0    0  0.18343732466E-01  0.11012654656E+00 -0.61899592347E-02  0.11181648132E+00  0.51100000000E-03 0. -1.
</event>
<event>
 8    1  0.1064839E+005  0.1043930E+01  0.7957747E-01            NaN
         13   -1    0    0    0    0  0.00000000000E+00  0.00000000000E+00  0.74505805969E-08  0.10566000000E+00  0.10566000000E+00 0. -1.
     999900   -1    0    0    0    0 -0.00000000000E+00 -0.00000000000E+00 -0.74505805969E-08  0.93827000000E+00  0.93827000000E+00 0. -1.
     999902    2    1    2    0    0  0.22223979530E-02 -0.11209816763E-01  0.19457976813E-01  0.10213642759E+01  0.10211149652E+01 0.  0.
     999903    2    3    3    0    0 -0.98668730780E-01  0.44926275202E-01 -0.67995221729E-01  0.12952441208E+00  0.19983355835E-01 0.  0.
         14    1    1    2    0    0 -0.22223979530E-02  0.11209816763E-01 -0.19457976813E-01  0.22565724145E-01  0.00000000000E+00 0.  1.
     999901    1    3    3    0    0  0.10089112873E+00 -0.56136091965E-01  0.87453198542E-01  0.89183986377E+00  0.88000000000E+00 0.  1.
        -11    1    4    4    0    0 -0.20424812447E-01  0.18728242260E-01 -0.17881806671E-01  0.32983937795E-01  0.51100000000E-03 0.  1.
         11    1    4    4    0    0 -0.78243918333E-01  0.26198032942E-01 -0.50113415058E-01  0.96540474288E-01  0.51100000000E-03 0. -1.
</event>
<event>
 8    1  0.1064839E+005  0.1043930E+01  0.7957747E-01            NaN
         13   -1    0    0    0    0  0.00000000000E+00  0.00000000000E+00  0.74505805969E-08  0.10566000000E+00  0.10566000000E+00 0. -1.
     999900   -1    0    0    0    0 -0.00000000000E+00 -0.00000000000E+00 -0.74505805969E-08  0.93827000000E+00  0.93827000000E+00 0.  1.
     999902    2    1    2    0    0 -0.11805677396E-01  0.16104963960E-01 -0.10695908404E-01  0.10212772664E+01  0.10210260078E+01 0.  0.
     999903    2    3    3    0    0  0.78407433384E-01 -0.85566361274E-01  0.51618379418E-01  0.12866394911E+00  0.20509191022E-01 0.  0.
         14    1    1    2    0    0  0.11805677396E-01 -0.16104963960E-01  0.10695908404E-01  0.22652733599E-01  0.00000000000E+00 0.  1.
     999901    1    3    3    0    0 -0.90213110780E-01  0.10167132523E+00 -0.62314287823E-01  0.89261331729E+00  0.88000000000E+00 0.  1.
        -11    1    4    4    0    0  0.39178016477E-01 -0.38281922147E-01  0.35034835961E-01  0.65024021640E-01  0.51100000000E-03 0. -1.
         11    1    4    4    0    0  0.39229416906E-01 -0.47284439127E-01  0.16583543457E-01  0.63639927474E-01  0.51100000000E-03 0.  1.
</event>
<event>
 8    1  0.1064839E+005  0.1043930E+01  0.7957747E-01            NaN
         13   -1    0    0    0    0  0.00000000000E+00  0.00000000000E+00  0.74505805969E-08  0.10566000000E+00  0.10566000000E+00 0.  1.
     999900   -1    0    0    0    0 -0.00000000000E+00 -0.00000000000E+00 -0.74505805969E-08  0.93827000000E+00  0.93827000000E+00 0.  1.
     999902    2    1    2    0    0  0.15261865877E-01 -0.18167295796E-01  0.32167907951E-02  0.10199858373E+01  0.10197047540E+01 0.  0.
     999903    2    3    3    0    0  0.16262514961E-02 -0.64980452569E-01 -0.11203057081E+00  0.13113300580E+00  0.20491766720E-01 0.  0.
         14    1    1    2    0    0 -0.15261865877E-01  0.18167295796E-01 -0.32167907951E-02  0.23944162746E-01  0.00000000000E+00 0.  1.
     999901    1    3    3    0    0  0.13635614381E-01  0.46813156774E-01  0.11524736161E+00  0.88885283145E+00  0.88000000000E+00 0. -1.
        -11    1    4    4    0    0  0.23021001257E-02 -0.42463428584E-01 -0.53036764645E-01  0.67982365045E-01  0.51100000000E-03 0.  1.
         11    1    4    4    0    0 -0.67584862958E-03 -0.22517023985E-01 -0.58993806169E-01  0.63150640755E-01  0.51100000000E-03 0. -1.
</event>
<event>
 8    1  0.1064839E+005  0.1043930E+01  0.7957747E-01            NaN
         13   -1    0    0    0    0  0.00000000000E+00  0.00000000000E+00  0.74505805969E-08  0.10566000000E+00  0.10566000000E+00 0. -1.
     999900   -1    0    0    0    0 -0.00000000000E+00 -0.00000000000E+00 -0.74505805969E-08  0.93827000000E+00  0.93827000000E+00 0. -1.
     999902    2    1    2    0    0  0.14920057322E-01 -0.14611267837E-01  0.10703829124E-01  0.10204636578E+01  0.10201938089E+01 0.  0.
     999903    2    3    3    0    0 -0.11354577530E+00  0.61627429232E-02 -0.57142235058E-01  0.12831001739E+00  0.16358577150E-01 0.  0.
         14    1    1    2    0    0 -0.14920057322E-01  0.14611267837E-01 -0.10703829124E-01  0.23466342199E-01  0.00000000000E+00 0.  1.
     999901    1    3    3    0    0  0.12846583262E+00 -0.20774010760E-01  0.67846064181E-01  0.89215364041E+00  0.88000000000E+00 0.  1.
        -11    1    4    4    0    0 -0.77813654556E-01  0.80816166973E-03 -0.46442677677E-01  0.90624507676E-01  0.51100000000E-03 0. -1.
         11    1    4    4    0    0 -0.35732120744E-01  0.53545812535E-02 -0.10699557380E-01  0.37685509714E-01  0.51100000000E-03 0.  1.
</event>
<event>
 7    1  0.1064839E+005  0.1043930E+01  0.7957747E-01            NaN
         13   -1    0    0    0    0  0.00000000000E+00  0.00000000000E+00  0.74505805969E-08  0.10566000000E+00  0.10566000000E+00 0. -1.
     999900   -1    0    0    0    0 -0.00000000000E+00 -0.00000000000E+00 -0.74505805969E-08  0.93827000000E+00  0.93827000000E+00 0.  1.
     999903    2    1    2    0    0 -0.39806814720E-01 -0.53774739107E-01 -0.66504965240E-01  0.96631391056E-01  0.20938249013E-01 0.  0.
         14    1    1    2    0    0 -0.39435087061E-01  0.24128231964E-01  0.42680305355E-01  0.62919838957E-01  0.00000000000E+00 0. -1.
     999901    1    1    2    0    0  0.79241901782E-01  0.29646507143E-01  0.23824659885E-01  0.88437876999E+00  0.88000000000E+00 0. -1.
        -11    1    3    3    0    0 -0.36659878268E-01 -0.49074959469E-01 -0.67175734137E-01  0.90912808225E-01  0.51100000000E-03 0. -1.
         11    1    3    3    0    0 -0.31469364520E-02 -0.46997796383E-02  0.67076889762E-03  0.57185828310E-02  0.51100000000E-03 0.  1.
</event>
<event>
 8    1  0.1064839E+005  0.1043930E+01  0.7957747E-01            NaN
         13   -1    0    0    0    0  0.00000000000E+00  0.00000000000E+00  0.74505805969E-08  0.10566000000E+00  0.10566000000E+00 0.  1.
     999900   -1    0    0    0    0 -0.00000000000E+00 -0.00000000000E+00 -0.74505805969E-08  0.93827000000E+00  0.93827000000E+00 0. -1.
     999902    2    1    2    0    0 -0.74985936722E-02  0.22801401323E-01 -0.24695437659E-03  0.10199259629E+01  0.10196434554E+01 0.  0.
     999903    2    3    3    0    0 -0.37703994687E-01  0.48484802967E-01 -0.11485039473E+00  0.13160960492E+00  0.18923731223E-01 0.  0.
         14    1    1    2    0    0  0.74985936722E-02 -0.22801401323E-01  0.24695437659E-03  0.24004037073E-01  0.00000000000E+00 0.  1.
     999901    1    3    3    0    0  0.30205401015E-01 -0.25683401644E-01  0.11460344035E+00  0.88831635801E+00  0.88000000000E+00 0.  1.
        -11    1    4    4    0    0 -0.20183944209E-01  0.25166844987E-01 -0.79367670579E-01  0.85675258649E-01  0.51100000000E-03 0. -1.
         11    1    4    4    0    0 -0.17520050478E-01  0.23317957980E-01 -0.35482724146E-01  0.45934346267E-01  0.51100000000E-03 0.  1.
</event>
<event>
 8    1  0.1064839E+005  0.1043930E+01  0.7957747E-01            NaN
         13   -1    0    0    0    0  0.00000000000E+00  0.00000000000E+00  0.74505805969E-08  0.10566000000E+00  0.10566000000E+00 0. -1.
     999900   -1    0    0    0    0 -0.00000000000E+00 -0.00000000000E+00 -0.74505805969E-08  0.93827000000E+00  0.93827000000E+00 0. -1.
     999902    2    1    2    0    0  0.70015303684E-03  0.16708643055E-01 -0.15835461206E-01  0.10208989167E+01  0.10206390975E+01 0.  0.
     999903    2    3    3    0    0 -0.36497078580E-01  0.65309327762E-01 -0.10918545260E+00  0.13384768847E+00  0.19909686365E-01 0.  0.
         14    1    1    2    0    0 -0.70015303684E-03 -0.16708643055E-01  0.15835461206E-01  0.23031083314E-01  0.00000000000E+00 0. -1.
     999901    1    3    3    0    0  0.37197231616E-01 -0.48600684707E-01  0.93349991392E-01  0.88705122822E+00  0.88000000000E+00 0.  1.
        -11    1    4    4    0    0 -0.15011252023E-01  0.35037746368E-01 -0.39533099422E-01  0.54919108048E-01  0.51100000000E-03 0. -1.
         11    1    4    4    0    0 -0.21485826556E-01  0.30271581393E-01 -0.69652353176E-01  0.78928580418E-01  0.51100000000E-03 0.  1.
</event>
<event>
 8    1  0.1064839E+005  0.1043930E+01  0.7957747E-01            NaN
         13   -1    0    0    0    0  0.00000000000E+00  0.00000000000E+00  0.74505805969E-08  0.10566000000E+00  0.10566000000E+00 0.  1.
     999900   -1    0    0    0    0 -0.00000000000E+00 -0.00000000000E+00 -0.74505805969E-08  0.93827000000E+00  0.93827000000E+00 0. -1.
     999902    2    1    2    0    0  0.15426409654E-01 -0.11715030385E-02  0.17887231882E-01  0.10202804842E+01  0.10200063563E+01 0.  0.
     999903    2    3    3    0    0 -0.12224164904E+00  0.16131212847E-01  0.33172794328E-01  0.12927794390E+00  0.20226608880E-01 0.  0.
         14    1    1    2    0    0 -0.15426409654E-01  0.11715030385E-02 -0.17887231882E-01  0.23649515821E-01  0.00000000000E+00 0. -1.
     999901    1    3    3    0    0  0.13766805870E+00 -0.17302715886E-01 -0.15285562446E-01  0.89100254028E+00  0.88000000000E+00 0.  1.
        -11    1    4    4    0    0 -0.81908050572E-02  0.39263311847E-02 -0.19769855211E-02  0.93099386039E-02  0.51100000000E-03 0.  1.
         11    1    4    4    0    0 -0.11405084399E+00  0.12204881662E-01  0.35149779849E-01  0.11996800530E+00  0.51100000000E-03 0. -1.
</event>
<event>
 8    1  0.1064839E+005  0.1043930E+01  0.7957747E-01            NaN
         13   -1    0    0    0    0  0.00000000000E+00  0.00000000000E+00  0.74505805969E-08  0.10566000000E+00  0.10566000000E+00 0. -1.
     999900   -1    0    0    0    0 -0.00000000000E+00 -0.00000000000E+00 -0.74505805969E-08  0.93827000000E+00  0.93827000000E+00 0.  1.
     999902    2    1    2    0    0  0.19299649285E-02  0.19804438784E-02  0.24094281414E-01  0.10196775502E+01  0.10193890941E+01 0.  0.
     999903    2    3    3    0    0 -0.61460641390E-01 -0.10837044811E+00  0.32262587196E-01  0.13048555210E+00  0.21541594875E-01 0.  0.
         14    1    1    2    0    0 -0.19299649285E-02 -0.19804438784E-02 -0.24094281414E-01  0.24252449761E-01  0.00000000000E+00 0.  1.
     999901    1    3    3    0    0  0.63390606319E-01  0.11035089199E+00 -0.81683057823E-02  0.88919199814E+00  0.88000000000E+00 0. -1.
        -11    1    4    4    0    0 -0.39062219159E-01 -0.47081926374E-01  0.15777680687E-01  0.63180385292E-01  0.51100000000E-03 0.  1.
         11    1    4    4    0    0 -0.22398422231E-01 -0.61288521741E-01  0.16484906509E-01  0.67305166809E-01  0.51100000000E-03 0. -1.
</event>
<event>
 8    1  0.1064839E+005  0.1043930E+01  0.7957747E-01            NaN
         13   -1    0    0    0    0  0.00000000000E+00  0.00000000000E+00  0.74505805969E-08  0.10566000000E+00  0.10566000000E+00 0. -1.
     999900   -1    0    0    0    0 -0.00000000000E+00 -0.00000000000E+00 -0.74505805969E-08  0.93827000000E+00  0.93827000000E+00 0. -1.
     999902    2    1    2    0    0 -0.71712646456E-02 -0.16911374974E-01 -0.16462419566E-01  0.10192635674E+01  0.10189650568E+01 0.  0.
     999903    2    3    3    0    0  0.10932898102E+00  0.27234867528E-01  0.56334522669E-01  0.12751214867E+00  0.19778915907E-01 0.  0.
         14    1    1    2    0    0  0.71712646456E-02  0.16911374974E-01  0.16462419566E-01  0.24666432618E-01  0.00000000000E+00 0. -1.
     999901    1    3    3    0    0 -0.11650024567E+00 -0.44146242503E-01 -0.72796942235E-01  0.89175141871E+00  0.88000000000E+00 0. -1.
        -11    1    4    4    0    0  0.36313121544E-01  0.95324394607E-03  0.23374189422E-01  0.43199135668E-01  0.51100000000E-03 0.  1.
         11    1    4    4    0    0  0.73015859479E-01  0.26281623582E-01  0.32960333247E-01  0.84313013007E-01  0.51100000000E-03 0. -1.
</event>
<event>
 8    1  0.1064839E+005  0.1043930E+01  0.7957747E-01            NaN
         13   -1    0    0    0    0  0.00000000000E+00  0.00000000000E+00  0.74505805969E-08  0.10566000000E+00  0.10566000000E+00 0.  1.
     999900   -1    0    0    0    0 -0.00000000000E+00 -0.00000000000E+00 -0.74505805969E-08  0.93827000000E+00  0.93827000000E+00 0.  1.
     999902    2    1    2    0    0  0.29125274116E-02 -0.42447104061E-02  0.22766662700E-01  0.10205885923E+01  0.10203216422E+01 0.  0.
     999903    2    3    3    0    0  0.56395889950E-02  0.12783501206E+00  0.18413571353E-01  0.13071700643E+00  0.19346340473E-01 0.  0.
         14    1    1    2    0    0 -0.29125274116E-02  0.42447104061E-02 -0.22766662700E-01  0.23341407688E-01  0.00000000000E+00 0. -1.
     999901    1    3    3    0    0 -0.27270615834E-02 -0.13207972246E+00  0.43530913466E-02  0.88987158588E+00  0.88000000000E+00 0. -1.
        -11    1    4    4    0    0  0.64392783894E-02  0.80897819810E-01  0.26646329231E-02  0.81199032912E-01  0.51100000000E-03 0.  1.
         11    1    4    4    0    0 -0.79968939437E-03  0.46937192245E-01  0.15748938430E-01  0.49517973521E-01  0.51100000000E-03 0. -1.
</event>
<event>
 8    1  0.1064839E+005  0.1043930E+01  0.7957747E-01            NaN
         13   -1    0    0    0    0  0.00000000000E+00  0.00000000000E+00  0.74505805969E-08  0.10566000000E+00  0.10566000000E+00 0. -1.
     999900   -1    0    0    0    0 -0.00000000000E+00 -0.00000000000E+00 -0.74505805969E-08  0.93827000000E+00  0.93827000000E+00 0. -1.
     999902    2    1    2    0    0 -0.11047542679E-02 -0.34488073853E-01  0.90408594590E-04  0.10094241180E+01  0.10088341757E+01 0.  0.
     999903    2    3    3    0    0  0.14792334686E-01  0.58255970551E-01 -0.10039923418E+00  0.11872083208E+00  0.20051395846E-01 0.  0.
         14    1    1    2    0    0  0.11047542679E-02  0.34488073853E-01 -0.90408594590E-04  0.34505882017E-01  0.00000000000E+00 0.  1.
     999901    1    3    3    0    0 -0.15897088954E-01 -0.92744044403E-01  0.10048964278E+00  0.89070328590E+00  0.88000000000E+00 0.  1.
        -11    1    4    4    0    0  0.49546798094E-02  0.50704877824E-01 -0.80651650360E-01  0.95396453362E-01  0.51100000000E-03 0.  1.
         11    1    4    4    0    0  0.98376548765E-02  0.75510927265E-02 -0.19747583823E-01  0.23324378720E-01  0.51100000000E-03 0. -1.
</event>
<event>
 8    1  0.1064839E+005  0.1043930E+01  0.7957747E-01            NaN
         13   -1    0    0    0    0  0.00000000000E+00  0.00000000000E+00  0.74505805969E-08  0.10566000000E+00  0.10566000000E+00 0.  1.
     999900   -1    0    0    0    0 -0.00000000000E+00 -0.00000000000E+00 -0.74505805969E-08  0.93827000000E+00  0.93827000000E+00 0.  1.
     999902    2    1    2    0    0 -0.48612458682E-03 -0.10926994838E-02 -0.25971864531E-01  0.10179306143E+01  0.10175985296E+01 0.  0.
     999903    2    3    3    0    0 -0.64970629187E-02 -0.12293832091E+00  0.28015699040E-01  0.12787604078E+00  0.20282007711E-01 0.  0.
         14    1    1    2    0    0  0.48612458682E-03  0.10926994838E-02  0.25971864531E-01  0.25999385695E-01  0.00000000000E+00 0.  1.
     999901    1    3    3    0    0  0.60109383319E-02  0.12184562143E+00 -0.53987563571E-01  0.89005457353E+00  0.88000000000E+00 0.  1.
        -11    1    4    4    0    0  0.44366319898E-02 -0.83506718876E-01  0.15221523602E-01  0.85000068839E-01  0.51100000000E-03 0.  1.
         11    1    4    4    0    0 -0.10933694909E-01 -0.39431602035E-01  0.12794175438E-01  0.42875971937E-01  0.51100000000E-03 0. -1.
</event>
<event>
 8    1  0.1064839E+005  0.1043930E+01  0.7957747E-01            NaN
         13   -1    0    0    0    0  0.00000000000E+00  0.00000000000E+00  0.74505805969E-08  0.10566000000E+00  0.10566000000E+00 0. -1.
     999900   -1    0    0    0    0 -0.00000000000E+00 -0.00000000000E+00 -0.74505805969E-08  0.93827000000E+00  0.93827000000E+00 0. -1.
     999902    2    1    2    0    0 -0.69305022012E-02 -0.22681405057E-01  0.13721481502E-02  0.10201737211E+01  0.10198970833E+01 0.  0.
     999903    2    3    3    0    0  0.44805510946E-01 -0.31697190110E-01 -0.11649587572E+00  0.13076337122E+00  0.22705165073E-01 0.  0.
         14    1    1    2    0    0  0.69305022012E-02  0.22681405057E-01 -0.13721481502E-02  0.23756278889E-01  0.00000000000E+00 0. -1.
     999901    1    3    3    0    0 -0.51736013148E-01  0.90157850529E-02  0.11786802387E+00  0.88941034989E+00  0.88000000000E+00 0.  1.
        -11    1    4    4    0    0  0.31328983772E-01 -0.85261158082E-02 -0.59785524769E-01  0.68035064253E-01  0.51100000000E-03 0.  1.
         11    1    4    4    0    0  0.13476527174E-01 -0.23171074301E-01 -0.56710350954E-01  0.62728306970E-01  0.51100000000E-03 0. -1.
</event>
<event>
 8    1  0.1064839E+005  0.1043930E+01  0.7957747E-01            NaN
         13   -1    0    0    0    0  0.00000000000E+00  0.00000000000E+00  0.74505805969E-08  0.10566000000E+00  0.10566000000E+00 0. -1.
     999900   -1    0    0    0    0 -0.00000000000E+00 -0.00000000000E+00 -0.74505805969E-08  0.93827000000E+00  0.93827000000E+00 0.  1.
     999902    2    1    2    0    0  0.15014833608E-01  0.47158328699E-02  0.18409007016E-01  0.10197106720E+01  0.10194230127E+01 0.  0.
     999903    2    3    3    0    0  0.11203456809E+00  0.56185737427E-01 -0.34167288044E-01  0.13132660714E+00  0.19253379783E-01 0.  0.
         14    1    1    2    0    0 -0.15014833608E-01 -0.47158328699E-02 -0.18409007016E-01  0.24219327968E-01  0.00000000000E+00 0. -1.
     999901    1    3    3    0    0 -0.97019734481E-01 -0.51469904557E-01  0.52576295060E-01  0.88838406489E+00  0.88000000000E+00 0.  1.
        -11    1    4    4    0    0  0.20586386114E-01  0.25935709013E-02 -0.70054348844E-02  0.21905778739E-01  0.51100000000E-03 0. -1.
         11    1    4    4    0    0  0.91448181975E-01  0.53592166526E-01 -0.27161853160E-01  0.10942082840E+00  0.51100000000E-03 0.  1.
</event>
<event>
 8    1  0.1064839E+005  0.1043930E+01  0.7957747E-01            NaN
         13   -1    0    0    0    0  0.00000000000E+00  0.00000000000E+00  0.74505805969E-08  0.10566000000E+00  0.10566000000E+00 0.  1.
     999900   -1    0    0    0    0 -0.00000000000E+00 -0.00000000000E+00 -0.74505805969E-08  0.93827000000E+00  0.93827000000E+00 0. -1.
     999902    2    1    2    0    0 -0.66388961170E-02 -0.97470466218E-02  0.19636363443E-01  0.10210243974E+01  0.10207674336E+01 0.  0.
     999903    2    3    3    0    0  0.27480450347E-01  0.23466256662E-01  0.12674069565E+00  0.13325269745E+00  0.19678340626E-01 0.  0.
         14    1    1    2    0    0  0.66388961170E-02  0.97470466218E-02 -0.19636363443E-01  0.22905602563E-01  0.00000000000E+00 0. -1.
     999901    1    3    3    0    0 -0.34119346464E-01 -0.33213303284E-01 -0.10710433221E+00  0.88777169999E+00  0.88000000000E+00 0. -1.
        -11    1    4    4    0    0  0.19777776133E-01  0.73955170443E-02  0.89581380647E-01  0.92037704126E-01  0.51100000000E-03 0.  1.
         11    1    4    4    0    0  0.77026742139E-02  0.16070739618E-01  0.37159315008E-01  0.41214993325E-01  0.51100000000E-03 0. -1.
</event>
<event>
 8    1  0.1064839E+005  0.1043930E+01  0.7957747E-01            NaN
         13   -1    0    0    0    0  0.00000000000E+00  0.00000000000E+00  0.74505805969E-08  0.10566000000E+00  0.10566000000E+00 0. -1.
     999900   -1    0    0    0    0 -0.00000000000E+00 -0.00000000000E+00 -0.74505805969E-08  0.93827000000E+00  0.93827000000E+00 0. -1.
     999902    2    1    2    0    0  0.10857056047E-01 -0.19935958354E-01  0.67649012435E-02  0.10202428307E+01  0.10199678189E+01 0.  0.
     999903    2    3    3    0    0 -0.42829538095E-01 -0.56878008737E-01 -0.10718114224E+00  0.13050654037E+00  0.21787212170E-01 0.  0.
         14    1    1    2    0    0 -0.10857056047E-01  0.19935958354E-01 -0.67649012435E-02  0.23687169319E-01  0.00000000000E+00 0. -1.
     999901    1    3    3    0    0  0.53686594142E-01  0.36942050383E-01  0.11394604349E+00  0.88973629032E+00  0.88000000000E+00 0. -1.
        -11    1    4    4    0    0 -0.19611613022E-01 -0.34215665850E-01 -0.75368730680E-01  0.85064880181E-01  0.51100000000E-03 0. -1.
         11    1    4    4    0    0 -0.23217925073E-01 -0.22662342888E-01 -0.31812411565E-01  0.45441660185E-01  0.51100000000E-03 0.  1.
</event>
<event>
 8    1  0.1064839E+005  0.1043930E+01  0.7957747E-01            NaN
         13   -1    0    0    0    0  0.00000000000E+00  0.00000000000E+00  0.74505805969E-08  0.10566000000E+00  0.10566000000E+00 0. -1.
     999900   -1    0    0    0    0 -0.00000000000E+00 -0.00000000000E+00 -0.74505805969E-08  0.93827000000E+00  0.93827000000E+00 0.  1.
     999902    2    1    2    0    0  0.68268564560E-02 -0.19589625680E-01 -0.15756690828E-01  0.10178794202E+01  0.10175460094E+01 0.  0.
     999903    2    3    3    0    0 -0.21433469158E-01 -0.68057211464E-01  0.10445353530E+00  0.12793658418E+00  0.19132456804E-01 0.  0.
         14    1    1    2    0    0 -0.68268564560E-02  0.19589625680E-01  0.15756690828E-01  0.26050579824E-01  0.00000000000E+00 0. -1.
     999901    1    3    3    0    0  0.28260325614E-01  0.48467585783E-01 -0.12021022612E+00  0.88994283600E+00  0.88000000000E+00 0.  1.
        -11    1    4    4    0    0 -0.65299539696E-02 -0.40173456556E-01  0.45584686702E-01  0.61112778477E-01  0.51100000000E-03 0. -1.
         11    1    4    4    0    0 -0.14903515188E-01 -0.27883754907E-01  0.58868848595E-01  0.66823805702E-01  0.51100000000E-03 0.  1.
</event>
<event>
 8    1  0.1347877E+005  0.1043930E+01  0.7957747E-01            NaN
         13   -1    0    0    0    0  0.00000000000E+00  0.00000000000E+00  0.74505805969E-08  0.10566000000E+00  0.10566000000E+00 0.  1.
     999900   -1    0    0    0    0 -0.00000000000E+00 -0.00000000000E+00 -0.74505805969E-08  0.93827000000E+00  0.93827000000E+00 0.  1.
     999902    2    1    2    0    0 -0.18562169933E-01 -0.12924170306E-01  0.66216756019E-02  0.10203623332E+01  0.10200901216E+01 0.  0.
     999903    2    3    3    0    0  0.97609766329E-01  0.77965491515E-01  0.19767368364E-01  0.12798928417E+00  0.19601623897E-01 0.  0.
         14    1    1    2    0    0  0.18562169933E-01  0.12924170306E-01 -0.66216756019E-02  0.23567666802E-01  0.00000000000E+00 0.  1.
     999901    1    3    3    0    0 -0.11617193626E+00 -0.90889661821E-01 -0.13145692762E-01  0.89237304903E+00  0.88000000000E+00 0.  1.
        -11    1    4    4    0    0  0.69397279089E-01  0.55373325158E-01  0.22952777418E-01  0.91702118821E-01  0.51100000000E-03 0.  1.
         11    1    4    4    0    0  0.28212487239E-01  0.22592166357E-01 -0.31854090545E-02  0.36287165345E-01  0.51100000000E-03 0. -1.
</event>
<event>
 8    1  0.1064839E+005  0.1043930E+01  0.7957747E-01            NaN
         13   -1    0    0    0    0  0.00000000000E+00  0.00000000000E+00  0.74505805969E-08  0.10566000000E+00  0.10566000000E+00 0.  1.
     999900   -1    0    0    0    0 -0.00000000000E+00 -0.00000000000E+00 -0.74505805969E-08  0.93827000000E+00  0.93827000000E+00 0. -1.
     999902    2    1    2    0    0 -0.12326535005E-01 -0.22607089157E-01  0.66238210670E-02  0.10173424286E+01  0.10169949450E+01 0.  0.
     999903    2    3    3    0    0  0.31487186052E-01  0.10425828208E+00 -0.57676820356E-01  0.12484646951E+00  0.19969804103E-01 0.  0.
         14    1    1    2    0    0  0.12326535005E-01  0.22607089157E-01 -0.66238210670E-02  0.26587571361E-01  0.00000000000E+00 0. -1.
     999901    1    3    3    0    0 -0.43813721057E-01 -0.12686537123E+00  0.64300641423E-01  0.89249595913E+00  0.88000000000E+00 0.  1.
        -11    1    4    4    0    0  0.32883302752E-02  0.38969089138E-01 -0.14902144907E-01  0.41853770058E-01  0.51100000000E-03 0. -1.
         11    1    4    4    0    0  0.28198855777E-01  0.65289192938E-01 -0.42774675449E-01  0.82992699453E-01  0.51100000000E-03 0.  1.
</event>
<event>
 8    1  0.1064839E+005  0.1043930E+01  0.7957747E-01            NaN
         13   -1    0    0    0    0  0.00000000000E+00  0.00000000000E+00  0.74505805969E-08  0.10566000000E+00  0.10566000000E+00 0. -1.
     999900   -1    0    0    0    0 -0.00000000000E+00 -0.00000000000E+00 -0.74505805969E-08  0.93827000000E+00  0.93827000000E+00 0. -1.
     999902    2    1    2    0    0 -0.15623101298E-02 -0.22219769405E-01 -0.86613970223E-02  0.10200306535E+01  0.10197506339E+01 0.  0.
     999903    2    3    3    0    0 -0.56102088770E-01 -0.98691385812E-02  0.11477660597E+00  0.12965766079E+00  0.19814021865E-01 0.  0.
         14    1    1    2    0    0  0.15623101298E-02  0.22219769405E-01  0.86613970223E-02  0.23899346512E-01  0.00000000000E+00 0. -1.
     999901    1    3    3    0    0  0.54539778641E-01 -0.12350630823E-01 -0.12343800300E+00  0.89037299269E+00  0.88000000000E+00 0. -1.
        -11    1    4    4    0    0 -0.53406647664E-01 -0.13689934443E-01  0.10056247480E+00  0.11468546890E+00  0.51100000000E-03 0. -1.
         11    1    4    4    0    0 -0.26954411064E-02  0.38207958617E-02  0.14214131179E-01  0.14972191889E-01  0.51100000000E-03 0.  1.
</event>
<event>
 8    1  0.1064839E+005  0.1043930E+01  0.7957747E-01            NaN
         13   -1    0    0    0    0  0.00000000000E+00  0.00000000000E+00  0.74505805969E-08  0.10566000000E+00  0.10566000000E+00 0. -1.
     999900   -1    0    0    0    0 -0.00000000000E+00 -0.00000000000E+00 -0.74505805969E-08  0.93827000000E+00  0.93827000000E+00 0. -1.
     999902    2    1    2    0    0 -0.53985799424E-02 -0.17086012132E-01  0.14026807620E-01  0.10211741698E+01  0.10209205930E+01 0.  0.
     999903    2    3    3    0    0  0.11425161953E+00 -0.61841100168E-01 -0.85288474014E-02  0.13166422286E+00  0.19620706106E-01 0.  0.
         14    1    1    2    0    0  0.53985799424E-02  0.17086012132E-01 -0.14026807620E-01  0.22755830197E-01  0.00000000000E+00 0.  1.
     999901    1    3    3    0    0 -0.11965019947E+00  0.44755088037E-01  0.22555655021E-01  0.88950994694E+00  0.88000000000E+00 0. -1.
        -11    1    4    4    0    0  0.42241461017E-01 -0.17101401653E-01  0.48676290708E-02  0.45833981947E-01  0.51100000000E-03 0. -1.
         11    1    4    4    0    0  0.72010158511E-01 -0.44739698515E-01 -0.13396476472E-01  0.85830240912E-01  0.51100000000E-03 0.  1.
</event>
<event>
 8    1  0.1064839E+005  0.1043930E+01  0.7957747E-01            NaN
         13   -1    0    0    0    0  0.00000000000E+00  0.00000000000E+00  0.74505805969E-08  0.10566000000E+00  0.10566000000E+00 0. -1.
     999900   -1    0    0    0    0 -0.00000000000E+00 -0.00000000000E+00 -0.74505805969E-08  0.93827000000E+00  0.93827000000E+00 0. -1.
     999902    2    1    2    0    0 -0.14327188414E-01 -0.19927307984E-01 -0.30716810439E-02  0.10191953855E+01  0.10188952020E+01 0.  0.
     999903    2    3    3    0    0 -0.47098564528E-01  0.10076442656E+00  0.61023757171E-01  0.12804518316E+00  0.17318358765E-01 0.  0.
         14    1    1    2    0    0  0.14327188414E-01  0.19927307984E-01  0.30716810439E-02  0.24734614527E-01  0.00000000000E+00 0.  1.
     999901    1    3    3    0    0  0.32771376114E-01 -0.12069173455E+00 -0.64095438214E-01  0.89115020231E+00  0.88000000000E+00 0. -1.
        -11    1    4    4    0    0 -0.42831691295E-01  0.74485855408E-01  0.47520528524E-01  0.98189399567E-01  0.51100000000E-03 0.  1.
         11    1    4    4    0    0 -0.42668732328E-02  0.26278571156E-01  0.13503228647E-01  0.29855783595E-01  0.51100000000E-03 0. -1.
</event>
<event>
 8    1  0.1064839E+005  0.1043930E+01  0.7957747E-01            NaN
         13   -1    0    0    0    0  0.00000000000E+00  0.00000000000E+00  0.74505805969E-08  0.10566000000E+00  0.10566000000E+00 0. -1.
     999900   -1    0    0    0    0 -0.00000000000E+00 -0.00000000000E+00 -0.74505805969E-08  0.93827000000E+00  0.93827000000E+00 0. -1.
     999902    2    1    2    0    0  0.10280550165E-01 -0.21815512302E-01  0.55378156703E-03  0.10198071278E+01  0.10195217825E+01 0.  0.
     999903    2    3    3    0    0 -0.40628567713E-01  0.10519752846E+00  0.54577319517E-01  0.12759493698E+00  0.24178164292E-01 0.  0.
         14    1    1    2    0    0 -0.10280550165E-01  0.21815512302E-01 -0.55378156703E-03  0.24122872191E-01  0.00000000000E+00 0.  1.
     999901    1    3    3    0    0  0.50909117878E-01 -0.12701304077E+00 -0.54023537950E-01  0.89221219083E+00  0.88000000000E+00 0. -1.
        -11    1    4    4    0    0 -0.31259263690E-01  0.74614885574E-01  0.26785249531E-01  0.85218738721E-01  0.51100000000E-03 0. -1.
         11    1    4    4    0    0 -0.93693040228E-02  0.30582642890E-01  0.27792069986E-01  0.42376198261E-01  0.51100000000E-03 0.  1.
</event>
<event>
 8    1  0.1064839E+005  0.1043930E+01  0.7957747E-01            NaN
         13   -1    0    0    0    0  0.00000000000E+00  0.00000000000E+00  0.74505805969E-08  0.10566000000E+00  0.10566000000E+00 0.  1.
     999900   -1    0    0    0    0 -0.00000000000E+00 -0.00000000000E+00 -0.74505805969E-08  0.93827000000E+00  0.93827000000E+00 0. -1.
     999902    2    1    2    0    0  0.15164320128E-01 -0.15541345495E-01  0.73235167499E-02  0.10210144175E+01  0.10207572271E+01 0.  0.
     999903    2    3    3    0    0 -0.83332849324E-01  0.28814727798E-01 -0.91841556411E-01  0.12888053439E+00  0.20016701648E-01 0.  0.
         14    1    1    2    0    0 -0.15164320128E-01  0.15541345495E-01 -0.73235167499E-02  0.22915582521E-01  0.00000000000E+00 0.  1.
     999901    1    3    3    0    0  0.98497169452E-01 -0.44356073292E-01  0.99165073161E-01  0.89213388309E+00  0.88000000000E+00 0.  1.
        -11    1    4    4    0    0 -0.41443001122E-01  0.13355831533E-01 -0.59556805379E-01  0.73777874501E-01  0.51100000000E-03 0. -1.
         11    1    4    4    0    0 -0.41889848202E-01  0.15458896265E-01 -0.32284751032E-01  0.55102659884E-01  0.51100000000E-03 0.  1.
</event>
<event>
 8    1  0.1064839E+005  0.1043930E+01  0.7957747E-01            NaN
         13   -1    0    0    0    0  0.00000000000E+00  0.00000000000E+00  0.74505805969E-08  0.10566000000E+00  0.10566000000E+00 0.  1.
     999900   -1    0    0    0    0 -0.00000000000E+00 -0.00000000000E+00 -0.74505805969E-08  0.93827000000E+00  0.93827000000E+00 0.  1.
     999902    2    1    2    0    0 -0.62054811335E-02  0.99442700236E-02 -0.23371415105E-01  0.10177838809E+01  0.10174479881E+01 0.  0.
     999903    2    3    3    0    0 -0.36075251598E-01 -0.11023756424E+00 -0.52288202563E-01  0.12864269011E+00  0.19003716609E-01 0.  0.
         14    1    1    2    0    0  0.62054811335E-02 -0.99442700236E-02  0.23371415105E-01  0.26146119146E-01  0.00000000000E+00 0.  1.
     999901    1    3    3    0    0  0.29869770465E-01  0.12018183426E+00  0.28916787459E-01  0.88914119074E+00  0.88000000000E+00 0. -1.
        -11    1    4    4    0    0 -0.22810703374E-01 -0.84729087572E-01 -0.46512218280E-01  0.99312607656E-01  0.51100000000E-03 0.  1.
         11    1    4    4    0    0 -0.13264548224E-01 -0.25508476668E-01 -0.57759842831E-02  0.29330082457E-01  0.51100000000E-03 0. -1.
</event>
<event>
 8    1  0.1064839E+005  0.1043930E+01  0.7957747E-01            NaN
         13   -1    0    0    0    0  0.00000000000E+00  0.00000000000E+00  0.74505805969E-08  0.10566000000E+00  0.10566000000E+00 0.  1.
     999900   -1    0    0    0    0 -0.00000000000E+00 -0.00000000000E+00 -0.74505805969E-08  0.93827000000E+00  0.93827000000E+00 0.  1.
     999902    2    1    2    0    0  0.22281491848E-01 -0.98533113296E-02  0.14841848897E-02  0.10195218983E+01  0.10192296825E+01 0.  0.
     999903    2    3    3    0    0 -0.63431699231E-01  0.75567031927E-01 -0.78556401266E-01  0.12764192791E+00  0.19682398232E-01 0.  0.
         14    1    1    2    0    0 -0.22281491848E-01  0.98533113296E-02 -0.14841848897E-02  0.24408101686E-01  0.00000000000E+00 0.  1.
     999901    1    3    3    0    0  0.85713191080E-01 -0.85420343256E-01  0.80040586156E-01  0.89187997040E+00  0.88000000000E+00 0. -1.
        -11    1    4    4    0    0 -0.24830104734E-01  0.22906190065E-01 -0.16654620768E-01  0.37667826567E-01  0.51100000000E-03 0.  1.
         11    1    4    4    0    0 -0.38601594498E-01  0.52660841862E-01 -0.61901780498E-01  0.89974101347E-01  0.51100000000E-03 0. -1.
</event>
<event>
 8    1  0.1064839E+005  0.1043930E+01  0.7957747E-01            NaN
         13   -1    0    0    0    0  0.00000000000E+00  0.00000000000E+00  0.74505805969E-08  0.10566000000E+00  0.10566000000E+00 0.  1.
     999900   -1    0    0    0    0 -0.00000000000E+00 -0.00000000000E+00 -0.74505805969E-08  0.93827000000E+00  0.93827000000E+00 0.  1.
     999902    2    1    2    0    0 -0.90914516205E-02  0.12857594826E-02 -0.22610839250E-01  0.10195259487E+01  0.10192338310E+01 0.  0.
     999903    2    3    3    0    0 -0.75921370639E-01 -0.81049371304E-01 -0.67056421408E-01  0.13204596488E+00  0.24627587813E-01 0.  0.
         14    1    1    2    0    0  0.90914516205E-02 -0.12857594826E-02  0.22610839250E-01  0.24404051336E-01  0.00000000000E+00 0.  1.
     999901    1    3    3    0    0  0.66829919018E-01  0.82335130787E-01  0.44445582159E-01  0.88747998378E+00  0.88000000000E+00 0. -1.
        -11    1    4    4    0    0 -0.61191154314E-02 -0.17214862431E-01 -0.51175856179E-02  0.18980143986E-01  0.51100000000E-03 0. -1.
         11    1    4    4    0    0 -0.69802255207E-01 -0.63834508873E-01 -0.61938835790E-01  0.11306582090E+00  0.51100000000E-03 0.  1.
</event>
<event>
 8    1  0.1064839E+005  0.1043930E+01  0.7957747E-01            NaN
         13   -1    0    0    0    0  0.00000000000E+00  0.00000000000E+00  0.74505805969E-08  0.10566000000E+00  0.10566000000E+00 0. -1.
     999900   -1    0    0    0    0 -0.00000000000E+00 -0.00000000000E+00 -0.74505805969E-08  0.93827000000E+00  0.93827000000E+00 0. -1.
     999902    2    1    2    0    0 -0.12321416656E-01 -0.18535563404E-01  0.79448711748E-02  0.10202972812E+01  0.10200235471E+01 0.  0.
     999903    2    3    3    0    0 -0.89105134968E-01  0.52370327847E-01  0.78179979058E-01  0.13133364012E+00  0.21308204645E-01 0.  0.
         14    1    1    2    0    0  0.12321416656E-01  0.18535563404E-01 -0.79448711748E-02  0.23632718784E-01  0.00000000000E+00 0. -1.
     999901    1    3    3    0    0  0.76783718312E-01 -0.70905891252E-01 -0.70235107883E-01  0.88896364110E+00  0.88000000000E+00 0.  1.
        -11    1    4    4    0    0 -0.98419775981E-02 -0.10575261480E-02  0.82353878983E-02  0.12886645003E-01  0.51100000000E-03 0.  1.
         11    1    4    4    0    0 -0.79263157370E-01  0.53427853995E-01  0.69944591159E-01  0.11844699512E+00  0.51100000000E-03 0. -1.
</event>
<event>
 8    1  0.1064839E+005  0.1043930E+01  0.7957747E-01            NaN
         13   -1    0    0    0    0  0.00000000000E+00  0.00000000000E+00  0.74505805969E-08  0.10566000000E+00  0.10566000000E+00 0.  1.
     999900   -1    0    0    0    0 -0.00000000000E+00 -0.00000000000E+00 -0.74505805969E-08  0.93827000000E+00  0.93827000000E+00 0.  1.
     999902    2    1    2    0    0 -0.20611169669E-01  0.85868485633E-02  0.13695843290E-01  0.10177359089E+01  0.10173987664E+01 0.  0.
     999903    2    3    3    0    0  0.91023547207E-01  0.71952844087E-01  0.49881557823E-01  0.12768705334E+00  0.18796698176E-01 0.  0.
         14    1    1    2    0    0  0.20611169669E-01 -0.85868485633E-02 -0.13695843290E-01  0.26194091067E-01  0.00000000000E+00 0. -1.
     999901    1    3    3    0    0 -0.11163471688E+00 -0.63365995524E-01 -0.36185714533E-01  0.89004885559E+00  0.88000000000E+00 0. -1.
        -11    1    4    4    0    0  0.74177107760E-01  0.63717871916E-01  0.35433870863E-01  0.10400976321E+00  0.51100000000E-03 0. -1.
         11    1    4    4    0    0  0.16846439447E-01  0.82349721712E-02  0.14447686959E-01  0.23677290136E-01  0.51100000000E-03 0.  1.
</event>
<event>
 8    1  0.1064839E+005  0.1043930E+01  0.7957747E-01            NaN
         13   -1    0    0    0    0  0.00000000000E+00  0.00000000000E+00  0.74505805969E-08  0.10566000000E+00  0.10566000000E+00 0.  1.
     999900   -1    0    0    0    0 -0.00000000000E+00 -0.00000000000E+00 -0.74505805969E-08  0.93827000000E+00  0.93827000000E+00 0.  1.
     999902    2    1    2    0    0 -0.13428400129E-01  0.48002309874E-03 -0.20803566743E-01  0.10191642829E+01  0.10188633347E+01 0.  0.
     999903    2    3    3    0    0  0.10579750325E-01  0.65763996906E-01  0.10666553447E+00  0.12726363809E+00  0.19536195344E-01 0.  0.
         14    1    1    2    0    0  0.13428400129E-01 -0.48002309874E-03  0.20803566743E-01  0.24765717059E-01  0.00000000000E+00 0.  1.
     999901    1    3    3    0    0 -0.24008150453E-01 -0.65283973808E-01 -0.12746910122E+00  0.89190064485E+00  0.88000000000E+00 0.  1.
        -11    1    4    4    0    0 -0.46298205112E-02  0.67349395984E-02  0.16570253065E-01  0.18483210138E-01  0.51100000000E-03 0.  1.
         11    1    4    4    0    0  0.15209570836E-01  0.59029057308E-01  0.90095281410E-01  0.10878042795E+00  0.51100000000E-03 0. -1.
</event>
<event>
 8    1  0.1064839E+005  0.1043930E+01  0.7957747E-01            NaN
         13   -1    0    0    0    0  0.00000000000E+00  0.00000000000E+00  0.74505805969E-08  0.10566000000E+00  0.10566000000E+00 0.  1.
     999900   -1    0    0    0    0 -0.00000000000E+00 -0.00000000000E+00 -0.74505805969E-08  0.93827000000E+00  0.93827000000E+00 0. -1.
     999902    2    1    2    0    0 -0.12731696867E-02  0.13723682874E-01 -0.21278465214E-01  0.10185778105E+01  0.10182622562E+01 0.  0.
     999903    2    3    3    0    0 -0.43360378703E-01  0.11962859572E+00  0.15987049458E-01  0.13044724443E+00  0.23869949217E-01 0.  0.
         14    1    1    2    0    0  0.12731696867E-02 -0.13723682874E-01  0.21278465214E-01  0.25352189541E-01  0.00000000000E+00 0.  1.
     999901    1    3    3    0    0  0.42087209017E-01 -0.10590491284E+00 -0.37265514672E-01  0.88813056603E+00  0.88000000000E+00 0. -1.
        -11    1    4    4    0    0 -0.11836969133E-01  0.67298486488E-01  0.99938379655E-02  0.69060394149E-01  0.51100000000E-03 0. -1.
         11    1    4    4    0    0 -0.31523409571E-01  0.52330109227E-01  0.59932114926E-02  0.61386850283E-01  0.51100000000E-03 0.  1.
</event>
<event>
 8    1  0.1398217E+005  0.1043930E+01  0.7957747E-01            NaN
         13   -1    0    0    0    0  0.00000000000E+00  0.00000000000E+00  0.74505805969E-08  0.10566000000E+00  0.10566000000E+00 0. -1.
     999900   -1    0    0    0    0 -0.00000000000E+00 -0.00000000000E+00 -0.74505805969E-08  0.93827000000E+00  0.93827000000E+00 0.  1.
     999902    2    1    2    0    0  0.17453555385E-01 -0.10083774856E-01  0.13602356096E-01  0.10196126563E+01  0.10193226358E+01 0.  0.
     999903    2    3    3    0    0  0.83319127985E-01 -0.99282571803E-01  0.20955792713E-01  0.13262405887E+00  0.18732047142E-01 0.  0.
         14    1    1    2    0    0 -0.17453555385E-01  0.10083774856E-01 -0.13602356096E-01  0.24317343652E-01  0.00000000000E+00 0. -1.
     999901    1    3    3    0    0 -0.65865572600E-01  0.89198796947E-01 -0.73534366171E-02  0.88698859748E+00  0.88000000000E+00 0.  1.
        -11    1    4    4    0    0  0.17293045536E-01 -0.33638610013E-01  0.48902312275E-02  0.38141591341E-01  0.51100000000E-03 0.  1.
         11    1    4    4    0    0  0.66026082450E-01 -0.65643961790E-01  0.16065561485E-01  0.94482467527E-01  0.51100000000E-03 0. -1.
</event>
<event>
 8    1  0.1064839E+005  0.1043930E+01  0.7957747E-01            NaN
         13   -1    0    0    0    0  0.00000000000E+00  0.00000000000E+00  0.74505805969E-08  0.10566000000E+00  0.10566000000E+00 0.  1.
     999900   -1    0    0    0    0 -0.00000000000E+00 -0.00000000000E+00 -0.74505805969E-08  0.93827000000E+00  0.93827000000E+00 0. -1.
     999902    2    1    2    0    0  0.51186636070E-02  0.23567831207E-01 -0.10827108865E-02  0.10197884249E+01  0.10195026316E+01 0.  0.
     999903    2    3    3    0    0 -0.39265913800E-01 -0.11853522079E+00  0.12626224418E-01  0.12717921422E+00  0.20560166185E-01 0.  0.
         14    1    1    2    0    0 -0.51186636070E-02 -0.23567831207E-01  0.10827108865E-02  0.24141575089E-01  0.00000000000E+00 0.  1.
     999901    1    3    3    0    0  0.44384577407E-01  0.14210305199E+00 -0.13708935304E-01  0.89260921069E+00  0.88000000000E+00 0.  1.
        -11    1    4    4    0    0 -0.78244860084E-02 -0.55728629051E-01  0.70928844646E-02  0.56722771514E-01  0.51100000000E-03 0.  1.
         11    1    4    4    0    0 -0.31441427792E-01 -0.62806591737E-01  0.55333399532E-02  0.70456442709E-01  0.51100000000E-03 0. -1.
</event>
<event>
 8    1  0.1064839E+005  0.1043930E+01  0.7957747E-01            NaN
         13   -1    0    0    0    0  0.00000000000E+00  0.00000000000E+00  0.74505805969E-08  0.10566000000E+00  0.10566000000E+00 0. -1.
     999900   -1    0    0    0    0 -0.00000000000E+00 -0.00000000000E+00 -0.74505805969E-08  0.93827000000E+00  0.93827000000E+00 0.  1.
     999902    2    1    2    0    0  0.23416350302E-02  0.92521162237E-02  0.22089151749E-01  0.10198672584E+01  0.10195833508E+01 0.  0.
     999903    2    3    3    0    0  0.11371710873E+00 -0.12051837118E-01 -0.56225460141E-01  0.12914197357E+00  0.20964717343E-01 0.  0.
         14    1    1    2    0    0 -0.23416350302E-02 -0.92521162237E-02 -0.22089151749E-01  0.24062741619E-01  0.00000000000E+00 0.  1.
     999901    1    3    3    0    0 -0.11137547370E+00  0.21303953342E-01  0.78314611890E-01  0.89072528481E+00  0.88000000000E+00 0. -1.
        -11    1    4    4    0    0  0.10310384387E+00 -0.80499215756E-02 -0.43804253277E-01  0.11231330102E+00  0.51100000000E-03 0. -1.
         11    1    4    4    0    0  0.10613264856E-01 -0.40019155429E-02 -0.12421206864E-01  0.16828672553E-01  0.51100000000E-03 0.  1.
</event>
<event>
 8    1  0.1064839E+005  0.1043930E+01  0.7957747E-01            NaN
         13   -1    0    0    0    0  0.00000000000E+00  0.00000000000E+00  0.74505805969E-08  0.10566000000E+00  0.10566000000E+00 0. -1.
     999900   -1    0    0    0    0 -0.00000000000E+00 -0.00000000000E+00 -0.74505805969E-08  0.93827000000E+00  0.93827000000E+00 0. -1.
     999902    2    1    2    0    0 -0.15520399389E-02 -0.72750152358E-02 -0.22528349128E-01  0.10202053042E+01  0.10199294101E+01 0.  0.
     999903    2    3    3    0    0 -0.37878214013E-01 -0.90706180834E-01  0.81695416937E-01  0.12939503054E+00  0.20163393581E-01 0.  0.
         14    1    1    2    0    0  0.15520399389E-02  0.72750152358E-02  0.22528349128E-01  0.23724695764E-01  0.00000000000E+00 0. -1.
     999901    1    3    3    0    0  0.36326174074E-01  0.83431165599E-01 -0.10422376606E+00  0.89081027370E+00  0.88000000000E+00 0. -1.
        -11    1    4    4    0    0 -0.19731874985E-01 -0.34083022030E-01  0.21892056578E-01  0.45061319814E-01  0.51100000000E-03 0.  1.
         11    1    4    4    0    0 -0.18146339028E-01 -0.56623158804E-01  0.59803360359E-01  0.84333710723E-01  0.51100000000E-03 0. -1.
</event>
<event>
 8    1  0.1064839E+005  0.1043930E+01  0.7957747E-01            NaN
         13   -1    0    0    0    0  0.00000000000E+00  0.00000000000E+00  0.74505805969E-08  0.10566000000E+00  0.10566000000E+00 0. -1.
     999900   -1    0    0    0    0 -0.00000000000E+00 -0.00000000000E+00 -0.74505805969E-08  0.93827000000E+00  0.93827000000E+00 0.  1.
     999902    2    1    2    0    0  0.43458777744E-02  0.21821949038E-01  0.63963333375E-02  0.10207783868E+01  0.10205158097E+01 0.  0.
     999903    2    3    3    0    0  0.12936145870E-01  0.77937462546E-01 -0.10481646390E+00  0.13196399120E+00  0.13653275469E-01 0.  0.
         14    1    1    2    0    0 -0.43458777744E-02 -0.21821949038E-01 -0.63963333375E-02  0.23151613196E-01  0.00000000000E+00 0. -1.
     999901    1    3    3    0    0 -0.85902680956E-02 -0.56115513508E-01  0.11121279724E+00  0.88881439560E+00  0.88000000000E+00 0.  1.
        -11    1    4    4    0    0  0.79292227788E-02  0.67437031963E-01 -0.94763692827E-01  0.11658063498E+00  0.51100000000E-03 0.  1.
         11    1    4    4    0    0  0.50069230912E-02  0.10500430583E-01 -0.10052771073E-01  0.15383356218E-01  0.51100000000E-03 0. -1.
</event>
<event>
 8    1  0.1064839E+005  0.1043930E+01  0.7957747E-01            NaN
         13   -1    0    0    0    0  0.00000000000E+00  0.00000000000E+00  0.74505805969E-08  0.10566000000E+00  0.10566000000E+00 0.  1.
     999900   -1    0    0    0    0 -0.00000000000E+00 -0.00000000000E+00 -0.74505805969E-08  0.93827000000E+00  0.93827000000E+00 0. -1.
     999902    2    1    2    0    0 -0.17635969942E-01  0.16394371757E-02 -0.14969186804E-01  0.10207396627E+01  0.10204761963E+01 0.  0.
     999903    2    3    3    0    0  0.38241567953E-01  0.77167516260E-01  0.94033038561E-01  0.12905122211E+00  0.19868631074E-01 0.  0.
         14    1    1    2    0    0  0.17635969942E-01 -0.16394371757E-02  0.14969186804E-01  0.23190337291E-01  0.00000000000E+00 0.  1.
     999901    1    3    3    0    0 -0.55877537895E-01 -0.75528079085E-01 -0.10900222537E+00  0.89168844060E+00  0.88000000000E+00 0. -1.
        -11    1    4    4    0    0  0.22308710326E-01  0.50783850404E-01  0.46420829996E-01  0.72331408093E-01  0.51100000000E-03 0.  1.
         11    1    4    4    0    0  0.15932857627E-01  0.26383665856E-01  0.47612208565E-01  0.56719814012E-01  0.51100000000E-03 0. -1.
</event>
<event>
 8    1  0.1064839E+005  0.1043930E+01  0.7957747E-01            NaN
         13   -1    0    0    0    0  0.00000000000E+00  0.00000000000E+00  0.74505805969E-08  0.10566000000E+00  0.10566000000E+00 0. -1.
     999900   -1    0    0    0    0 -0.00000000000E+00 -0.00000000000E+00 -0.74505805969E-08  0.93827000000E+00  0.93827000000E+00 0. -1.
     999902    2    1    2    0    0  0.22398612727E-01  0.11664495291E-01  0.23282352110E-02  0.10185690264E+01  0.10182532507E+01 0.  0.
     999903    2    3    3    0    0  0.94208354343E-01 -0.24561957753E-01  0.85840632853E-01  0.13096364368E+00  0.17445856797E-01 0.  0.
         14    1    1    2    0    0 -0.22398612727E-01 -0.11664495291E-01 -0.23282352110E-02  0.25360973595E-01  0.00000000000E+00 0.  1.
     999901    1    3    3    0    0 -0.71809741617E-01  0.36226453044E-01 -0.83512397642E-01  0.88760538273E+00  0.88000000000E+00 0. -1.
        -11    1    4    4    0    0  0.99776804213E-02 -0.13625128204E-02  0.28900291455E-02  0.10489229583E-01  0.51100000000E-03 0. -1.
         11    1    4    4    0    0  0.84230673922E-01 -0.23199444932E-01  0.82950603708E-01  0.12047441409E+00  0.51100000000E-03 0.  1.
</event>
<event>
 7    1  0.1064839E+005  0.1043930E+01  0.7957747E-01            NaN
         13   -1    0    0    0    0  0.00000000000E+00  0.00000000000E+00  0.74505805969E-08  0.10566000000E+00  0.10566000000E+00 0.  1.
     999900   -1    0    0    0    0 -0.00000000000E+00 -0.00000000000E+00 -0.74505805969E-08  0.93827000000E+00  0.93827000000E+00 0. -1.
     999902    2    1    2    0    0 -0.21354039091E-01 -0.10449182264E-02  0.11675779701E-01  0.10195699780E+01  0.10192789262E+01 0.  0.
         14    1    1    2    0    0  0.21354039091E-01  0.10449182264E-02 -0.11675779701E-01  0.24360021987E-01  0.00000000000E+00 0. -1.
     999901    1    3    3    0    0 -0.44928159794E-01 -0.84401469030E-01 -0.78674071733E-01  0.88866853049E+00  0.88000000000E+00 0. -1.
        -11    1    3    3    0    0 -0.36835317971E-02  0.44389033586E-01  0.28500477654E-01  0.52881878339E-01  0.51100000000E-03 0. -1.
         11    1    3    3    0    0  0.27257652500E-01  0.38967517217E-01  0.61849373780E-01  0.78019569185E-01  0.51100000000E-03 0.  1.
</event>
<event>
 8    1  0.1118585E+005  0.1043930E+01  0.7957747E-01            NaN
         13   -1    0    0    0    0  0.00000000000E+00  0.00000000000E+00  0.74505805969E-08  0.10566000000E+00  0.10566000000E+00 0.  1.
     999900   -1    0    0    0    0 -0.00000000000E+00 -0.00000000000E+00 -0.74505805969E-08  0.93827000000E+00  0.93827000000E+00 0.  1.
     999902    2    1    2    0    0 -0.21177674656E-01  0.39863136434E-02  0.11031870335E-01  0.10197207711E+01  0.10194333545E+01 0.  0.
     999903    2    3    3    0    0  0.50934848613E-01 -0.11339753381E+00 -0.25439532728E-01  0.12825605117E+00  0.18683826135E-01 0.  0.
         14    1    1    2    0    0  0.21177674656E-01 -0.39863136434E-02 -0.11031870335E-01  0.24209228889E-01  0.00000000000E+00 0.  1.
     999901    1    3    3    0    0 -0.72112523268E-01  0.11738384745E+00  0.36471403063E-01  0.89146471994E+00  0.88000000000E+00 0. -1.
        -11    1    4    4    0    0  0.18827829145E-01 -0.45737494504E-01 -0.99269328069E-03  0.49473751776E-01  0.51100000000E-03 0. -1.
         11    1    4    4    0    0  0.32107019468E-01 -0.67660039308E-01 -0.24446839447E-01  0.78782299396E-01  0.51100000000E-03 0.  1.
</event>
<event>
 8    1  0.1064839E+005  0.1043930E+01  0.7957747E-01            NaN
         13   -1    0    0    0    0  0.00000000000E+00  0.00000000000E+00  0.74505805969E-08  0.10566000000E+00  0.10566000000E+00 0.  1.
     999900   -1    0    0    0    0 -0.00000000000E+00 -0.00000000000E+00 -0.74505805969E-08  0.93827000000E+00  0.93827000000E+00 0. -1.
     999902    2    1    2    0    0 -0.45584762477E-02  0.34530095917E-02 -0.17049623526E-01  0.10259468789E+01  0.10257892599E+01 0.  0.
     999903    2    3    3    0    0  0.81155234627E-01  0.73560688514E-01 -0.79610229227E-01  0.13680360799E+00  0.19495937003E-01 0.  0.
         14    1    1    2    0    0  0.45584762477E-02 -0.34530095917E-02  0.17049623526E-01  0.17983121067E-01  0.00000000000E+00 0.  1.
     999901    1    3    3    0    0 -0.85713710874E-01 -0.70107678923E-01  0.62560605701E-01  0.88914327094E+00  0.88000000000E+00 0.  1.
        -11    1    4    4    0    0  0.41636177409E-01  0.45095932632E-01 -0.34469424262E-01  0.70396141507E-01  0.51100000000E-03 0.  1.
         11    1    4    4    0    0  0.39519057218E-01  0.28464755883E-01 -0.45140804966E-01  0.66407466484E-01  0.51100000000E-03 0. -1.
</event>
<event>
 8    1  0.1064839E+005  0.1043930E+01  0.7957747E-01            NaN
         13   -1    0    0    0    0  0.00000000000E+00  0.00000000000E+00  0.74505805969E-08  0.10566000000E+00  0.10566000000E+00 0.  1.
     999900   -1    0    0    0    0 -0.00000000000E+00 -0.00000000000E+00 -0.74505805969E-08  0.93827000000E+00  0.93827000000E+00 0. -1.
     999902    2    1    2    0    0 -0.18406957402E-01 -0.10208052591E-01  0.99211698181E-02  0.10206609212E+01  0.10203956419E+01 0.  0.
     999903    2    3    3    0    0 -0.60933984397E-01  0.60444070387E-01  0.98466206486E-01  0.13238140773E+00  0.21512954061E-01 0.  0.
         14    1    1    2    0    0  0.18406957402E-01  0.10208052591E-01 -0.99211698181E-02  0.23269078818E-01  0.00000000000E+00 0. -1.
     999901    1    3    3    0    0  0.42527026994E-01 -0.70652122978E-01 -0.88545036668E-01  0.88827951346E+00  0.88000000000E+00 0. -1.
        -11    1    4    4    0    0 -0.13407395426E-01  0.95753289439E-02  0.32660979472E-01  0.36584776582E-01  0.51100000000E-03 0. -1.
         11    1    4    4    0    0 -0.47526588971E-01  0.50868741443E-01  0.65805227014E-01  0.95796631144E-01  0.51100000000E-03 0.  1.
</event>
<event>
 8    1  0.1064839E+005  0.1043930E+01  0.7957747E-01            NaN
         13   -1    0    0    0    0  0.00000000000E+00  0.00000000000E+00  0.74505805969E-08  0.10566000000E+00  0.10566000000E+00 0. -1.
     999900   -1    0    0    0    0 -0.00000000000E+00 -0.00000000000E+00 -0.74505805969E-08  0.93827000000E+00  0.93827000000E+00 0. -1.
     999902    2    1    2    0    0  0.30443996922E-02  0.10658814298E-01 -0.21271447576E-01  0.10199434793E+01  0.10196613888E+01 0.  0.
     999903    2    3    3    0    0  0.10453356992E+00 -0.42364928482E-01 -0.64156401970E-01  0.13148937906E+00  0.21245199156E-01 0.  0.
         14    1    1    2    0    0 -0.30443996922E-02 -0.10658814298E-01  0.21271447576E-01  0.23986520667E-01  0.00000000000E+00 0. -1.
     999901    1    3    3    0    0 -0.10148917023E+00  0.53023742780E-01  0.42884954394E-01  0.88845410027E+00  0.88000000000E+00 0.  1.
        -11    1    4    4    0    0  0.70009733555E-01 -0.30599216333E-01 -0.54199107709E-01  0.93677527882E-01  0.51100000000E-03 0. -1.
         11    1    4    4    0    0  0.34523836366E-01 -0.11765712149E-01 -0.99572942606E-02  0.37811851182E-01  0.51100000000E-03 0.  1.
</event>
<event>
 8    1  0.1064839E+005  0.1043930E+01  0.7957747E-01            NaN
         13   -1    0    0    0    0  0.00000000000E+00  0.00000000000E+00  0.74505805969E-08  0.10566000000E+00  0.10566000000E+00 0. -1.
     999900   -1    0    0    0    0 -0.00000000000E+00 -0.00000000000E+00 -0.74505805969E-08  0.93827000000E+00  0.93827000000E+00 0. -1.
     999902    2    1    2    0    0 -0.17895184651E-01 -0.14481668053E-01 -0.79067012972E-02  0.10195892468E+01  0.10192986608E+01 0.  0.
     999903    2    3    3    0    0 -0.12735757402E+00  0.18945109365E-02 -0.30152921489E-01  0.13237727195E+00  0.19773786232E-01 0.  0.
         14    1    1    2    0    0  0.17895184651E-01  0.14481668053E-01  0.79067012972E-02  0.24340753249E-01  0.00000000000E+00 0.  1.
     999901    1    3    3    0    0  0.10946238937E+00 -0.16376178990E-01  0.22246220192E-01  0.88721197480E+00  0.88000000000E+00 0.  1.
        -11    1    4    4    0    0 -0.10877788736E+00  0.29019110874E-02 -0.18397503323E-01  0.11036203657E+00  0.51100000000E-03 0. -1.
         11    1    4    4    0    0 -0.18579686663E-01 -0.10074001509E-02 -0.11755418166E-01  0.22015235379E-01  0.51100000000E-03 0.  1.
</event>
<event>
 8    1  0.1064839E+005  0.1043930E+01  0.7957747E-01            NaN
         13   -1    0    0    0    0  0.00000000000E+00  0.00000000000E+00  0.74505805969E-08  0.10566000000E+00  0.10566000000E+00 0.  1.
     999900   -1    0    0    0    0 -0.00000000000E+00 -0.00000000000E+00 -0.74505805969E-08  0.93827000000E+00  0.93827000000E+00 0.  1.
     999902    2    1    2    0    0 -0.18024700914E-01 -0.16281172218E-01  0.17807359064E-01  0.10138124229E+01  0.10133649690E+01 0.  0.
     999903    2    3    3    0    0 -0.12146803199E+00  0.27529249469E-01 -0.69576177611E-02  0.12632542028E+00  0.19933915598E-01 0.  0.
         14    1    1    2    0    0  0.18024700914E-01  0.16281172218E-01 -0.17807359064E-01  0.30117577072E-01  0.00000000000E+00 0. -1.
     999901    1    3    3    0    0  0.10344333108E+00 -0.43810421687E-01  0.24764976825E-01  0.88748700265E+00  0.88000000000E+00 0. -1.
        -11    1    4    4    0    0 -0.63066678480E-01  0.14046215164E-01 -0.13565302666E-01  0.66022576838E-01  0.51100000000E-03 0.  1.
         11    1    4    4    0    0 -0.58401353514E-01  0.13483034305E-01  0.66076849044E-02  0.60302843442E-01  0.51100000000E-03 0. -1.
</event>
<event>
 8    1  0.1064839E+005  0.1043930E+01  0.7957747E-01            NaN
         13   -1    0    0    0    0  0.00000000000E+00  0.00000000000E+00  0.74505805969E-08  0.10566000000E+00  0.10566000000E+00 0.  1.
     999900   -1    0    0    0    0 -0.00000000000E+00 -0.00000000000E+00 -0.74505805969E-08  0.93827000000E+00  0.93827000000E+00 0.  1.
     999902    2    1    2    0    0 -0.19896380230E-01 -0.60537473699E-02 -0.10963972819E-01  0.10204199489E+01  0.10201490820E+01 0.  0.
     999903    2    3    3    0    0  0.34875103278E-01 -0.10563862900E+00  0.64078871660E-01  0.12994339526E+00  0.20084606339E-01 0.  0.
         14    1    1    2    0    0  0.19896380230E-01  0.60537473699E-02  0.10963972819E-01  0.23510051115E-01  0.00000000000E+00 0.  1.
     999901    1    3    3    0    0 -0.54771483507E-01  0.99584881630E-01 -0.75042844479E-01  0.89047655363E+00  0.88000000000E+00 0.  1.
        -11    1    4    4    0    0  0.21767685913E-01 -0.71317773646E-01  0.53282258501E-01  0.91647788734E-01  0.51100000000E-03 0. -1.
         11    1    4    4    0    0  0.13107417365E-01 -0.34320855354E-01  0.10796613159E-01  0.38295606523E-01  0.51100000000E-03 0.  1.
</event>
<event>
 8    1  0.1064839E+005  0.1043930E+01  0.7957747E-01            NaN
         13   -1    0    0    0    0  0.00000000000E+00  0.00000000000E+00  0.74505805969E-08  0.10566000000E+00  0.10566000000E+00 0.  1.
     999900   -1    0    0    0    0 -0.00000000000E+00 -0.00000000000E+00 -0.74505805969E-08  0.93827000000E+00  0.93827000000E+00 0. -1.
     999902    2    1    2    0    0 -0.22482883055E-01 -0.11527469605E-02 -0.63816021365E-02  0.10205305619E+01  0.10202622673E+01 0.  0.
     999903    2    3    3    0    0  0.76264653527E-01 -0.60923452058E-01  0.81360149819E-01  0.12866609454E+00  0.20187261239E-01 0.  0.
         14    1    1    2    0    0  0.22482883055E-01  0.11527469605E-02  0.63816021365E-02  0.23399438067E-01  0.00000000000E+00 0.  1.
     999901    1    3    3    0    0 -0.98747536582E-01  0.59770705098E-01 -0.87741751956E-01  0.89186446740E+00  0.88000000000E+00 0. -1.
        -11    1    4    4    0    0  0.14567419134E-01 -0.11727435768E-01  0.62546532345E-02  0.19726232737E-01  0.51100000000E-03 0. -1.
         11    1    4    4    0    0  0.61697234393E-01 -0.49196016290E-01  0.75105496584E-01  0.10893986180E+00  0.51100000000E-03 0.  1.
</event>
<event>
 8    1  0.1064839E+005  0.1043930E+01  0.7957747E-01            NaN
         13   -1    0    0    0    0  0.00000000000E+00  0.00000000000E+00  0.74505805969E-08  0.10566000000E+00  0.10566000000E+00 0.  1.
     999900   -1    0    0    0    0 -0.00000000000E+00 -0.00000000000E+00 -0.74505805969E-08  0.93827000000E+00  0.93827000000E+00 0.  1.
     999902    2    1    2    0    0  0.10649001544E-02  0.19435356921E-01  0.13388953775E-01  0.10203051996E+01  0.10200316510E+01 0.  0.
     999903    2    3    3    0    0  0.10678977291E+00 -0.65116291671E-01 -0.24698144808E-01  0.12913890923E+00  0.20558999992E-01 0.  0.
         14    1    1    2    0    0 -0.10649001544E-02 -0.19435356921E-01 -0.13388953775E-01  0.23624800405E-01  0.00000000000E+00 0.  1.
     999901    1    3    3    0    0 -0.10572487276E+00  0.84551648592E-01  0.38087098584E-01  0.89116629036E+00  0.88000000000E+00 0. -1.
        -11    1    4    4    0    0  0.93271095822E-01 -0.48912561398E-01 -0.17068199081E-01  0.10669358237E+00  0.51100000000E-03 0.  1.
         11    1    4    4    0    0  0.13518677092E-01 -0.16203730273E-01 -0.76299457276E-02  0.22445326861E-01  0.51100000000E-03 0. -1.
</event>
<event>
 8    1  0.1064839E+005  0.1043930E+01  0.7957747E-01            NaN
         13   -1    0    0    0    0  0.00000000000E+00  0.00000000000E+00  0.74505805969E-08  0.10566000000E+00  0.10566000000E+00 0.  1.
     999900   -1    0    0    0    0 -0.00000000000E+00 -0.00000000000E+00 -0.74505805969E-08  0.93827000000E+00  0.93827000000E+00 0.  1.
     999902    2    1    2    0    0  0.22903229624E-02 -0.21584849288E-01  0.64285149576E-02  0.10212920429E+01  0.10210411156E+01 0.  0.
     999903    2    3    3    0    0  0.65563839279E-01  0.78108419276E-01 -0.77401200890E-01  0.12945702062E+00  0.19199794437E-01 0.  0.
         14    1    1    2    0    0 -0.22903229624E-02  0.21584849288E-01 -0.64285149576E-02  0.22637957121E-01  0.00000000000E+00 0. -1.
     999901    1    3    3    0    0 -0.63273516317E-01 -0.99693268564E-01  0.83829715847E-01  0.89183502226E+00  0.88000000000E+00 0. -1.
        -11    1    4    4    0    0  0.35629226432E-01  0.50811203657E-01 -0.56222181603E-01  0.83740163711E-01  0.51100000000E-03 0.  1.
         11    1    4    4    0    0  0.29934612847E-01  0.27297215619E-01 -0.21179019287E-01  0.45716856911E-01  0.51100000000E-03 0. -1.
</event>
<event>
 8    1  0.1064839E+005  0.1043930E+01  0.7957747E-01            NaN
         13   -1    0    0    0    0  0.00000000000E+00  0.00000000000E+00  0.74505805969E-08  0.10566000000E+00  0.10566000000E+00 0.  1.
     999900   -1    0    0    0    0 -0.00000000000E+00 -0.00000000000E+00 -0.74505805969E-08  0.93827000000E+00  0.93827000000E+00 0. -1.
     999902    2    1    2    0    0 -0.18418310359E-01 -0.98111991268E-02 -0.87375672953E-02  0.10213061439E+01  0.10210555326E+01 0.  0.
     999903    2    3    3    0    0  0.11622538091E+00  0.39169882114E-01  0.33946055453E-01  0.12869762856E+00  0.19186612121E-01 0.  0.
         14    1    1    2    0    0  0.18418310359E-01  0.98111991268E-02  0.87375672953E-02  0.22623856148E-01  0.00000000000E+00 0.  1.
     999901    1    3    3    0    0 -0.13464369127E+00 -0.48981081241E-01 -0.42683622748E-01  0.89260851529E+00  0.88000000000E+00 0. -1.
        -11    1    4    4    0    0  0.95459164616E-01  0.35406141524E-01  0.34721350792E-01  0.10757267445E+00  0.51100000000E-03 0.  1.
         11    1    4    4    0    0  0.20766216292E-01  0.37637405897E-02 -0.77529533925E-03  0.21124954110E-01  0.51100000000E-03 0. -1.
</event>
<event>
 8    1  0.1064839E+005  0.1043930E+01  0.7957747E-01            NaN
         13   -1    0    0    0    0  0.00000000000E+00  0.00000000000E+00  0.74505805969E-08  0.10566000000E+00  0.10566000000E+00 0. -1.
     999900   -1    0    0    0    0 -0.00000000000E+00 -0.00000000000E+00 -0.74505805969E-08  0.93827000000E+00  0.93827000000E+00 0. -1.
     999902    2    1    2    0    0 -0.19518573851E-01 -0.15561578143E-01 -0.14991882953E-02  0.10189223011E+01  0.10186153693E+01 0.  0.
     999903    2    3    3    0    0  0.29517848881E-01  0.12021273823E+00  0.19446831907E-01  0.12691446956E+00  0.20166741820E-01 0.  0.
         14    1    1    2    0    0  0.19518573851E-01  0.15561578143E-01  0.14991882953E-02  0.25007698915E-01  0.00000000000E+00 0.  1.
     999901    1    3    3    0    0 -0.49036422732E-01 -0.13577431638E+00 -0.20946020202E-01  0.89200783153E+00  0.88000000000E+00 0. -1.
        -11    1    4    4    0    0  0.16614098453E-01  0.41714912559E-01  0.14581920846E-01  0.47212876779E-01  0.51100000000E-03 0.  1.
         11    1    4    4    0    0  0.12903750428E-01  0.78497825676E-01  0.48649110608E-02  0.79701592779E-01  0.51100000000E-03 0. -1.
</event>
<event>
 8    1  0.1064839E+005  0.1043930E+01  0.7957747E-01            NaN
         13   -1    0    0    0    0  0.00000000000E+00  0.00000000000E+00  0.74505805969E-08  0.10566000000E+00  0.10566000000E+00 0. -1.
     999900   -1    0    0    0    0 -0.00000000000E+00 -0.00000000000E+00 -0.74505805969E-08  0.93827000000E+00  0.93827000000E+00 0.  1.
     999902    2    1    2    0    0  0.47168487785E-02 -0.12361278000E-01 -0.19678247236E-01  0.10202174870E+01  0.10199418795E+01 0.  0.
     999903    2    3    3    0    0  0.55827416457E-01 -0.11771948670E+00  0.76696340814E-02  0.13203926795E+00  0.20024160795E-01 0.  0.
         14    1    1    2    0    0 -0.47168487785E-02  0.12361278000E-01  0.19678247236E-01  0.23712512952E-01  0.00000000000E+00 0. -1.
     999901    1    3    3    0    0 -0.51110567679E-01  0.10535820870E+00 -0.27347881318E-01  0.88817821910E+00  0.88000000000E+00 0.  1.
        -11    1    4    4    0    0  0.15416762689E-01 -0.28311821218E-01  0.10420462337E-01  0.33883372748E-01  0.51100000000E-03 0. -1.
         11    1    4    4    0    0  0.40410653768E-01 -0.89407665486E-01 -0.27508282555E-02  0.98155895201E-01  0.51100000000E-03 0.  1.
</event>
<event>
 8    1  0.1064839E+005  0.1043930E+01  0.7957747E-01            NaN
         13   -1    0    0    0    0  0.00000000000E+00  0.00000000000E+00  0.74505805969E-08  0.10566000000E+00  0.10566000000E+00 0.  1.
     999900   -1    0    0    0    0 -0.00000000000E+00 -0.00000000000E+00 -0.74505805969E-08  0.93827000000E+00  0.93827000000E+00 0. -1.
     999902    2    1    2    0    0 -0.19521208033E-01  0.82418333823E-02  0.97708074428E-02  0.10205960321E+01  0.10203292540E+01 0.  0.
     999903    2    3    3    0    0 -0.55051525895E-01 -0.10599586433E+00 -0.48868426189E-01  0.13056726020E+00  0.19846727683E-01 0.  0.
         14    1    1    2    0    0  0.19521208033E-01 -0.82418333823E-02 -0.97708074428E-02  0.23333967915E-01  0.00000000000E+00 0.  1.
     999901    1    3    3    0    0  0.35530317861E-01  0.11423769771E+00  0.58639233632E-01  0.89002877189E+00  0.88000000000E+00 0.  1.
        -11    1    4    4    0    0 -0.52837189129E-02 -0.28385328367E-01 -0.11364523603E-01  0.31033176921E-01  0.51100000000E-03 0.  1.
         11    1    4    4    0    0 -0.49767806982E-01 -0.77610535960E-01 -0.37503902586E-01  0.99534083278E-01  0.51100000000E-03 0. -1.
</event>
<event>
 8    1  0.1064839E+005  0.1043930E+01  0.7957747E-01            NaN
         13   -1    0    0    0    0  0.00000000000E+00  0.00000000000E+00  0.74505805969E-08  0.10566000000E+00  0.10566000000E+00 0. -1.
     999900   -1    0    0    0    0 -0.00000000000E+00 -0.00000000000E+00 -0.74505805969E-08  0.93827000000E+00  0.93827000000E+00 0.  1.
     999902    2    1    2    0    0 -0.18016867514E-01 -0.65887785920E-02 -0.13936071714E-01  0.10202185341E+01  0.10199429512E+01 0.  0.
     999903    2    3    3    0    0 -0.69593230595E-01  0.70777221373E-01 -0.85290638790E-01  0.13244767777E+00  0.20377965345E-01 0.  0.
         14    1    1    2    0    0  0.18016867514E-01  0.65887785920E-02  0.13936071714E-01  0.23711465858E-01  0.00000000000E+00 0. -1.
     999901    1    3    3    0    0  0.51576363081E-01 -0.77365999965E-01  0.71354567076E-01  0.88777085637E+00  0.88000000000E+00 0. -1.
        -11    1    4    4    0    0 -0.28184300506E-01  0.18074310119E-01 -0.20717816156E-01  0.39376700072E-01  0.51100000000E-03 0. -1.
         11    1    4    4    0    0 -0.41408930089E-01  0.52702911254E-01 -0.64572822634E-01  0.93070977698E-01  0.51100000000E-03 0.  1.
</event>
<event>
 8    1  0.1064839E+005  0.1043930E+01  0.7957747E-01            NaN
         13   -1    0    0    0    0  0.00000000000E+00  0.00000000000E+00  0.74505805969E-08  0.10566000000E+00  0.10566000000E+00 0.  1.
     999900   -1    0    0    0    0 -0.00000000000E+00 -0.00000000000E+00 -0.74505805969E-08  0.93827000000E+00  0.93827000000E+00 0. -1.
     999902    2    1    2    0    0 -0.14932327921E-01  0.10501356557E-01 -0.14967279653E-01  0.10203233830E+01  0.10200502603E+01 0.  0.
     999903    2    3    3    0    0 -0.81126329145E-01  0.10173127996E+00 -0.19814298307E-01  0.13312101694E+00  0.19946531798E-01 0.  0.
         14    1    1    2    0    0  0.14932327921E-01 -0.10501356557E-01  0.14967279653E-01  0.23606617015E-01  0.00000000000E+00 0.  1.
     999901    1    3    3    0    0  0.66194001224E-01 -0.91229923406E-01  0.48470186536E-02  0.88720236604E+00  0.88000000000E+00 0. -1.
        -11    1    4    4    0    0 -0.34204107264E-01  0.37154909871E-01 -0.16849657493E-01  0.53240777228E-01  0.51100000000E-03 0.  1.
         11    1    4    4    0    0 -0.46922221881E-01  0.64576370092E-01 -0.29646408137E-02  0.79880239713E-01  0.51100000000E-03 0. -1.
</event>
<event>
 8    1  0.1064839E+005  0.1043930E+01  0.7957747E-01            NaN
         13   -1    0    0    0    0  0.00000000000E+00  0.00000000000E+00  0.74505805969E-08  0.10566000000E+00  0.10566000000E+00 0.  1.
     999900   -1    0    0    0    0 -0.00000000000E+00 -0.00000000000E+00 -0.74505805969E-08  0.93827000000E+00  0.93827000000E+00 0.  1.
     999902    2    1    2    0    0 -0.20776467795E-01  0.83079577391E-02  0.76894517679E-02  0.10202696652E+01  0.10199952834E+01 0.  0.
     999903    2    3    3    0    0 -0.93729729276E-01  0.36752790787E-01  0.85358738878E-01  0.13338534067E+00  0.19222513391E-01 0.  0.
         14    1    1    2    0    0  0.20776467795E-01 -0.83079577391E-02 -0.76894517679E-02  0.23660334831E-01  0.00000000000E+00 0. -1.
     999901    1    3    3    0    0  0.72953261481E-01 -0.28444833047E-01 -0.77669287110E-01  0.88688432450E+00  0.88000000000E+00 0.  1.
        -11    1    4    4    0    0 -0.38739307376E-01  0.21504699242E-01  0.47173086993E-01  0.64720532159E-01  0.51100000000E-03 0.  1.
         11    1    4    4    0    0 -0.54990421900E-01  0.15248091545E-01  0.38185651885E-01  0.68664808507E-01  0.51100000000E-03 0. -1.
</event>
<event>
 8    1  0.1064839E+005  0.1043930E+01  0.7957747E-01            NaN
         13   -1    0    0    0    0  0.00000000000E+00  0.00000000000E+00  0.74505805969E-08  0.10566000000E+00  0.10566000000E+00 0. -1.
     999900   -1    0    0    0    0 -0.00000000000E+00 -0.00000000000E+00 -0.74505805969E-08  0.93827000000E+00  0.93827000000E+00 0. -1.
     999902    2    1    2    0    0  0.51660108292E-02 -0.20313592378E-01 -0.92420469041E-02  0.10210226838E+01  0.10207656811E+01 0.  0.
     999903    2    3    3    0    0  0.34072918545E-01  0.49090090529E-02  0.12397576927E+00  0.13016984779E+00  0.19726524243E-01 0.  0.
         14    1    1    2    0    0 -0.51660108292E-02  0.20313592378E-01  0.92420469041E-02  0.22907316171E-01  0.00000000000E+00 0. -1.
     999901    1    3    3    0    0 -0.28906907715E-01 -0.25222601431E-01 -0.13321781618E+00  0.89085283604E+00  0.88000000000E+00 0. -1.
        -11    1    4    4    0    0  0.20693589137E-01  0.12237171868E-01  0.66978589218E-01  0.71164355834E-01  0.51100000000E-03 0.  1.
         11    1    4    4    0    0  0.13379329408E-01 -0.73281628152E-02  0.56997180053E-01  0.59005491954E-01  0.51100000000E-03 0. -1.
</event>
<event>
 8    1  0.1064839E+005  0.1043930E+01  0.7957747E-01            NaN
         13   -1    0    0    0    0  0.00000000000E+00  0.00000000000E+00  0.74505805969E-08  0.10566000000E+00  0.10566000000E+00 0.  1.
     999900   -1    0    0    0    0 -0.00000000000E+00 -0.00000000000E+00 -0.74505805969E-08  0.93827000000E+00  0.93827000000E+00 0.  1.
     999902    2    1    2    0    0  0.13952038272E-02  0.19266723356E-01  0.13622083556E-01  0.10202928601E+01  0.10200190224E+01 0.  0.
     999903    2    3    3    0    0 -0.20283962959E-01 -0.94293079382E-01 -0.81308987396E-01  0.12766879404E+00  0.19635314272E-01 0.  0.
         14    1    1    2    0    0 -0.13952038272E-02 -0.19266723356E-01 -0.13622083556E-01  0.23637139908E-01  0.00000000000E+00 0. -1.
     999901    1    3    3    0    0  0.21679166787E-01  0.11355980274E+00  0.94931070952E-01  0.89262406606E+00  0.88000000000E+00 0. -1.
        -11    1    4    4    0    0 -0.15267815731E-02 -0.52316835594E-01 -0.46256863006E-01  0.69852278737E-01  0.51100000000E-03 0. -1.
         11    1    4    4    0    0 -0.18757181386E-01 -0.41976243788E-01 -0.35052124390E-01  0.57816515299E-01  0.51100000000E-03 0.  1.
</event>
<event>
 8    1  0.1064839E+005  0.1043930E+01  0.7957747E-01            NaN
         13   -1    0    0    0    0  0.00000000000E+00  0.00000000000E+00  0.74505805969E-08  0.10566000000E+00  0.10566000000E+00 0.  1.
     999900   -1    0    0    0    0 -0.00000000000E+00 -0.00000000000E+00 -0.74505805969E-08  0.93827000000E+00  0.93827000000E+00 0.  1.
     999902    2    1    2    0    0 -0.18057044652E-01 -0.72177613399E-02 -0.13784004118E-01  0.10200940668E+01  0.10198155488E+01 0.  0.
     999903    2    3    3    0    0  0.96932296876E-01  0.75317867896E-01 -0.32547665663E-01  0.12858593241E+00  0.20157878620E-01 0.  0.
         14    1    1    2    0    0  0.18057044652E-01  0.72177613399E-02  0.13784004118E-01  0.23835933165E-01  0.00000000000E+00 0. -1.
     999901    1    3    3    0    0 -0.11498934153E+00 -0.82535629236E-01  0.18763661545E-01  0.89150813443E+00  0.88000000000E+00 0. -1.
        -11    1    4    4    0    0  0.26168311260E-01  0.15100457886E-01 -0.16045603492E-01  0.34212963260E-01  0.51100000000E-03 0. -1.
         11    1    4    4    0    0  0.70763985616E-01  0.60217410010E-01 -0.16502062170E-01  0.94372969146E-01  0.51100000000E-03 0.  1.
</event>
<event>
 8    1  0.1064839E+005  0.1043930E+01  0.7957747E-01            NaN
         13   -1    0    0    0    0  0.00000000000E+00  0.00000000000E+00  0.74505805969E-08  0.10566000000E+00  0.10566000000E+00 0.  1.
     999900   -1    0    0    0    0 -0.00000000000E+00 -0.00000000000E+00 -0.74505805969E-08  0.93827000000E+00  0.93827000000E+00 0.  1.
     999902    2    1    2    0    0  0.11284157835E-01 -0.68453632887E-02  0.20686154466E-01  0.10193921068E+01  0.10190967369E+01 0.  0.
     999903    2    3    3    0    0 -0.65718218338E-01  0.74878236252E-01 -0.76075971343E-01  0.12699588221E+00  0.20365809489E-01 0.  0.
         14    1    1    2    0    0 -0.11284157835E-01  0.68453632887E-02 -0.20686154466E-01  0.24537893210E-01  0.00000000000E+00 0.  1.
     999901    1    3    3    0    0  0.77002376173E-01 -0.81723599541E-01  0.96762125809E-01  0.89239622458E+00  0.88000000000E+00 0. -1.
        -11    1    4    4    0    0 -0.24772387011E-01  0.38549943584E-01 -0.44105308191E-01  0.63602740823E-01  0.51100000000E-03 0.  1.
         11    1    4    4    0    0 -0.40945831327E-01  0.36328292668E-01 -0.31970663152E-01  0.63393141385E-01  0.51100000000E-03 0. -1.
</event>
<event>
 8    1  0.1064839E+005  0.1043930E+01  0.7957747E-01            NaN
         13   -1    0    0    0    0  0.00000000000E+00  0.00000000000E+00  0.74505805969E-08  0.10566000000E+00  0.10566000000E+00 0.  1.
     999900   -1    0    0    0    0 -0.00000000000E+00 -0.00000000000E+00 -0.74505805969E-08  0.93827000000E+00  0.93827000000E+00 0. -1.
     999902    2    1    2    0    0 -0.11144473774E-01  0.58348036544E-02  0.20168358773E-01  0.10201601257E+01  0.10198831674E+01 0.  0.
     999903    2    3    3    0    0 -0.10579480935E+00  0.54040549371E-01 -0.51147993530E-01  0.13090847286E+00  0.20198721826E-01 0.  0.
         14    1    1    2    0    0  0.11144473774E-01 -0.58348036544E-02 -0.20168358773E-01  0.23769874315E-01  0.00000000000E+00 0. -1.
     999901    1    3    3    0    0  0.94650335573E-01 -0.48205745716E-01  0.71316352303E-01  0.88925165282E+00  0.88000000000E+00 0.  1.
        -11    1    4    4    0    0 -0.22728567892E-01  0.98850974744E-02 -0.19870136603E-01  0.31770841980E-01  0.51100000000E-03 0. -1.
         11    1    4    4    0    0 -0.83066241455E-01  0.44155451896E-01 -0.31277856927E-01  0.99137630881E-01  0.51100000000E-03 0.  1.
</event>
<event>
 8    1  0.1064839E+005  0.1043930E+01  0.7957747E-01            NaN
         13   -1    0    0    0    0  0.00000000000E+00  0.00000000000E+00  0.74505805969E-08  0.10566000000E+00  0.10566000000E+00 0.  1.
     999900   -1    0    0    0    0 -0.00000000000E+00 -0.00000000000E+00 -0.74505805969E-08  0.93827000000E+00  0.93827000000E+00 0.  1.
     999902    2    1    2    0    0 -0.13822148332E-01  0.12314830432E-01  0.15235434659E-01  0.10199544854E+01  0.10196726567E+01 0.  0.
     999903    2    3    3    0    0  0.64326747832E-01 -0.89292133318E-01 -0.60856578817E-01  0.12741808858E+00  0.20514154966E-01 0.  0.
         14    1    1    2    0    0  0.13822148332E-01 -0.12314830432E-01 -0.15235434659E-01  0.23975514641E-01  0.00000000000E+00 0. -1.
     999901    1    3    3    0    0 -0.78148896163E-01  0.10160696375E+00  0.76092013476E-01  0.89253639678E+00  0.88000000000E+00 0. -1.
        -11    1    4    4    0    0  0.20557932998E-01 -0.20894322764E-01 -0.75274636546E-02  0.30267559582E-01  0.51100000000E-03 0. -1.
         11    1    4    4    0    0  0.43768814833E-01 -0.68397810553E-01 -0.53329115162E-01  0.97150529002E-01  0.51100000000E-03 0.  1.
</event>
<event>
 8    1  0.1064839E+005  0.1043930E+01  0.7957747E-01            NaN
         13   -1    0    0    0    0  0.00000000000E+00  0.00000000000E+00  0.74505805969E-08  0.10566000000E+00  0.10566000000E+00 0.  1.
     999900   -1    0    0    0    0 -0.00000000000E+00 -0.00000000000E+00 -0.74505805969E-08  0.93827000000E+00  0.93827000000E+00 0. -1.
     999902    2    1    2    0    0 -0.84540825505E-02 -0.18943374039E-01  0.12150400450E-01  0.10198893019E+01  0.10196059205E+01 0.  0.
     999903    2    3    3    0    0  0.82000818443E-01  0.29380753847E-01 -0.91556889244E-01  0.12788453044E+00  0.19606790580E-01 0.  0.
         14    1    1    2    0    0  0.84540825505E-02  0.18943374039E-01 -0.12150400450E-01  0.24040698052E-01  0.00000000000E+00 0. -1.
     999901    1    3    3    0    0 -0.90454900993E-01 -0.48324127886E-01  0.10370728969E+00  0.89200477150E+00  0.88000000000E+00 0.  1.
        -11    1    4    4    0    0  0.38024129772E-01  0.10247515712E-01 -0.28282520035E-01  0.48487195049E-01  0.51100000000E-03 0. -1.
         11    1    4    4    0    0  0.43976688671E-01  0.19133238135E-01 -0.63274369209E-01  0.79397335395E-01  0.51100000000E-03 0.  1.
</event>
<event>
 8    1  0.1064839E+005  0.1043930E+01  0.7957747E-01            NaN
         13   -1    0    0    0    0  0.00000000000E+00  0.00000000000E+00  0.74505805969E-08  0.10566000000E+00  0.10566000000E+00 0. -1.
     999900   -1    0    0    0    0 -0.00000000000E+00 -0.00000000000E+00 -0.74505805969E-08  0.93827000000E+00  0.93827000000E+00 0. -1.
     999902    2    1    2    0    0 -0.16718519896E-01 -0.37243642451E-02 -0.17718277745E-01  0.10192861942E+01  0.10189882377E+01 0.  0.
     999903    2    3    3    0    0  0.14718901774E-01 -0.61986375958E-01  0.10886211526E+00  0.12776761934E+00  0.20362896136E-01 0.  0.
         14    1    1    2    0    0  0.16718519896E-01  0.37243642451E-02  0.17718277745E-01  0.24643805769E-01  0.00000000000E+00 0. -1.
     999901    1    3    3    0    0 -0.31437421671E-01  0.58262011713E-01 -0.12658039300E+00  0.89151857489E+00  0.88000000000E+00 0. -1.
        -11    1    4    4    0    0  0.71510738633E-04 -0.42389131577E-01  0.67463053428E-01  0.79676648326E-01  0.51100000000E-03 0. -1.
         11    1    4    4    0    0  0.14647391036E-01 -0.19597244380E-01  0.41399061827E-01  0.48090971010E-01  0.51100000000E-03 0.  1.
</event>
<event>
 8    1  0.1064839E+005  0.1043930E+01  0.7957747E-01            NaN
         13   -1    0    0    0    0  0.00000000000E+00  0.00000000000E+00  0.74505805969E-08  0.10566000000E+00  0.10566000000E+00 0. -1.
     999900   -1    0    0    0    0 -0.00000000000E+00 -0.00000000000E+00 -0.74505805969E-08  0.93827000000E+00  0.93827000000E+00 0.  1.
     999902    2    1    2    0    0  0.59865999940E-02  0.16295689906E-01 -0.16965632211E-01  0.10196561135E+01  0.10193671411E+01 0.  0.
     999903    2    3    3    0    0  0.10912214983E+00  0.34048038275E-01 -0.63134250110E-01  0.13225337022E+00  0.20931027301E-01 0.  0.
         14    1    1    2    0    0 -0.59865999940E-02 -0.16295689906E-01  0.16965632211E-01  0.24273886490E-01  0.00000000000E+00 0.  1.
     999901    1    3    3    0    0 -0.10313554984E+00 -0.17752348368E-01  0.46168617899E-01  0.88740274329E+00  0.88000000000E+00 0.  1.
        -11    1    4    4    0    0  0.25664415665E-01  0.12720485104E-02 -0.20966832119E-01  0.33168501759E-01  0.51100000000E-03 0.  1.
         11    1    4    4    0    0  0.83457734168E-01  0.32775989764E-01 -0.42167417991E-01  0.99084868464E-01  0.51100000000E-03 0. -1.
</event>
<event>
 8    1  0.1064839E+005  0.1043930E+01  0.7957747E-01            NaN
         13   -1    0    0    0    0  0.00000000000E+00  0.00000000000E+00  0.74505805969E-08  0.10566000000E+00  0.10566000000E+00 0.  1.
     999900   -1    0    0    0    0 -0.00000000000E+00 -0.00000000000E+00 -0.74505805969E-08  0.93827000000E+00  0.93827000000E+00 0.  1.
     999902    2    1    2    0    0 -0.39118849094E-02  0.49567808199E-02  0.23166623694E-01  0.10199182326E+01  0.10196355409E+01 0.  0.
     999903    2    3    3    0    0 -0.85225814227E-01  0.30579448871E-01  0.95756536950E-01  0.13282310145E+00  0.16556563877E-01 0.  0.
         14    1    1    2    0    0  0.39118849094E-02 -0.49567808199E-02 -0.23166623694E-01  0.24011767387E-01  0.00000000000E+00 0. -1.
     999901    1    3    3    0    0  0.81313929318E-01 -0.25622668051E-01 -0.72589913256E-01  0.88709513116E+00  0.88000000000E+00 0.  1.
        -11    1    4    4    0    0 -0.44418437138E-02  0.62339378558E-02  0.81719065888E-02  0.11208618785E-01  0.51100000000E-03 0.  1.
         11    1    4    4    0    0 -0.80783970513E-01  0.24345511015E-01  0.87584630361E-01  0.12161448267E+00  0.51100000000E-03 0. -1.
</event>
<event>
 8    1  0.1064839E+005  0.1043930E+01  0.7957747E-01            NaN
         13   -1    0    0    0    0  0.00000000000E+00  0.00000000000E+00  0.74505805969E-08  0.10566000000E+00  0.10566000000E+00 0.  1.
     999900   -1    0    0    0    0 -0.00000000000E+00 -0.00000000000E+00 -0.74505805969E-08  0.93827000000E+00  0.93827000000E+00 0. -1.
     999902    2    1    2    0    0  0.91802927496E-02  0.29536134172E-01  0.76434855288E-02  0.10120696192E+01  0.10115680057E+01 0.  0.
     999903    2    3    3    0    0  0.29097718050E-01  0.92083173315E-01  0.79599349116E-01  0.12669597925E+00  0.19744031342E-01 0.  0.
         14    1    1    2    0    0 -0.91802927496E-02 -0.29536134172E-01 -0.76434855288E-02  0.31860380849E-01  0.00000000000E+00 0. -1.
     999901    1    3    3    0    0 -0.19917425301E-01 -0.62547039143E-01 -0.71955863588E-01  0.88537363991E+00  0.88000000000E+00 0. -1.
        -11    1    4    4    0    0  0.13614467462E-01  0.58279708362E-01  0.37976636492E-01  0.70882749462E-01  0.51100000000E-03 0. -1.
         11    1    4    4    0    0  0.15483250588E-01  0.33803464953E-01  0.41622712625E-01  0.55813229783E-01  0.51100000000E-03 0.  1.
</event>
<event>
 8    1  0.1064839E+005  0.1043930E+01  0.7957747E-01            NaN
         13   -1    0    0    0    0  0.00000000000E+00  0.00000000000E+00  0.74505805969E-08  0.10566000000E+00  0.10566000000E+00 0. -1.
     999900   -1    0    0    0    0 -0.00000000000E+00 -0.00000000000E+00 -0.74505805969E-08  0.93827000000E+00  0.93827000000E+00 0.  1.
     999902    2    1    2    0    0 -0.41950294940E-02 -0.13485929627E-02 -0.22302760414E-01  0.10211961025E+01  0.10209430197E+01 0.  0.
     999903    2    3    3    0    0 -0.11871360265E+00 -0.42140110356E-01  0.31288923712E-01  0.13122390059E+00  0.19287482582E-01 0.  0.
         14    1    1    2    0    0  0.41950294940E-02  0.13485929627E-02  0.22302760414E-01  0.22733897543E-01  0.00000000000E+00 0. -1.
     999901    1    3    3    0    0  0.11451857315E+00  0.40791517393E-01 -0.53591684126E-01  0.88997220187E+00  0.88000000000E+00 0.  1.
        -11    1    4    4    0    0 -0.41098656830E-01 -0.23228062480E-01  0.70120879668E-02  0.47729162767E-01  0.51100000000E-03 0. -1.
         11    1    4    4    0    0 -0.77614945819E-01 -0.18912047877E-01  0.24276835745E-01  0.83494737823E-01  0.51100000000E-03 0.  1.
</event>
<event>
 8    1  0.1064839E+005  0.1043930E+01  0.7957747E-01            NaN
         13   -1    0    0    0    0  0.00000000000E+00  0.00000000000E+00  0.74505805969E-08  0.10566000000E+00  0.10566000000E+00 0. -1.
     999900   -1    0    0    0    0 -0.00000000000E+00 -0.00000000000E+00 -0.74505805969E-08  0.93827000000E+00  0.93827000000E+00 0. -1.
     999902    2    1    2    0    0 -0.11174590303E-01 -0.16066243396E-01  0.12751195544E-01  0.10205721612E+01  0.10203048307E+01 0.  0.
     999903    2    3    3    0    0 -0.44031002237E-01 -0.11932074307E+00 -0.32439635991E-01  0.13277531127E+00  0.20019600750E-01 0.  0.
         14    1    1    2    0    0  0.11174590303E-01  0.16066243396E-01 -0.12751195544E-01  0.23357838793E-01  0.00000000000E+00 0.  1.
     999901    1    3    3    0    0  0.32856411933E-01  0.10325449967E+00  0.45190831534E-01  0.88779684994E+00  0.88000000000E+00 0. -1.
        -11    1    4    4    0    0 -0.37274739623E-01 -0.73554808044E-01 -0.19529251334E-01  0.84742957106E-01  0.51100000000E-03 0.  1.
         11    1    4    4    0    0 -0.67562626132E-02 -0.45765935026E-01 -0.12910384657E-01  0.48032354162E-01  0.51100000000E-03 0. -1.
</event>
<event>
 8    1  0.1064839E+005  0.1043930E+01  0.7957747E-01            NaN
         13   -1    0    0    0    0  0.00000000000E+00  0.00000000000E+00  0.74505805969E-08  0.10566000000E+00  0.10566000000E+00 0. -1.
     999900   -1    0    0    0    0 -0.00000000000E+00 -0.00000000000E+00 -0.74505805969E-08  0.93827000000E+00  0.93827000000E+00 0.  1.
     999902    2    1    2    0    0  0.23722631205E-01  0.40551693053E-02  0.14952870475E-02  0.10198168602E+01  0.10195317478E+01 0.  0.
     999903    2    3    3    0    0  0.21285649317E-01 -0.84077467212E-01 -0.95035390916E-01  0.13015879535E+00  0.19684692549E-01 0.  0.
         14    1    1    2    0    0 -0.23722631205E-01 -0.40551693053E-02 -0.14952870475E-02  0.24113139836E-01  0.00000000000E+00 0.  1.
     999901    1    3    3    0    0  0.24369818877E-02  0.88132636518E-01  0.96530677964E-01  0.88965806481E+00  0.88000000000E+00 0.  1.
        -11    1    4    4    0    0  0.60562316364E-02 -0.13163037764E-01 -0.27324436423E-01  0.30932659951E-01  0.51100000000E-03 0. -1.
         11    1    4    4    0    0  0.15229417681E-01 -0.70914429449E-01 -0.67710954494E-01  0.99226135400E-01  0.51100000000E-03 0.  1.
</event>
<event>
 8    1  0.1064839E+005  0.1043930E+01  0.7957747E-01            NaN
         13   -1    0    0    0    0  0.00000000000E+00  0.00000000000E+00  0.74505805969E-08  0.10566000000E+00  0.10566000000E+00 0. -1.
     999900   -1    0    0    0    0 -0.00000000000E+00 -0.00000000000E+00 -0.74505805969E-08  0.93827000000E+00  0.93827000000E+00 0. -1.
     999902    2    1    2    0    0 -0.93151222714E-02  0.14716822443E-01 -0.16940459365E-01  0.10196331786E+01  0.10193436532E+01 0.  0.
     999903    2    3    3    0    0  0.98121988271E-01  0.61325678902E-01 -0.58011972071E-01  0.13092513467E+00  0.19678376708E-01 0.  0.
         14    1    1    2    0    0  0.93151222714E-02 -0.14716822443E-01  0.16940459365E-01  0.24296821381E-01  0.00000000000E+00 0. -1.
     999901    1    3    3    0    0 -0.10743711054E+00 -0.46608856459E-01  0.41071512706E-01  0.88870804395E+00  0.88000000000E+00 0.  1.
        -11    1    4    4    0    0  0.60214587854E-01  0.43583930329E-01 -0.28054567209E-01  0.79452346948E-01  0.51100000000E-03 0.  1.
         11    1    4    4    0    0  0.37907400417E-01  0.17741748573E-01 -0.29957404862E-01  0.51472787722E-01  0.51100000000E-03 0. -1.
</event>
<event>
 7    1  0.1064839E+005  0.1043930E+01  0.7957747E-01            NaN
         13   -1    0    0    0    0  0.00000000000E+00  0.00000000000E+00  0.74505805969E-08  0.10566000000E+00  0.10566000000E+00 0.  1.
     999900   -1    0    0    0    0 -0.00000000000E+00 -0.00000000000E+00 -0.74505805969E-08  0.93827000000E+00  0.93827000000E+00 0.  1.
     999902    2    1    2    0    0 -0.11814130368E-01 -0.82348887337E-02  0.34185939031E-01  0.10068346432E+01  0.10061510489E+01 0.  0.
         14    1    1    2    0    0  0.11814130368E-01  0.82348887337E-02 -0.34185939031E-01  0.37095356802E-01  0.00000000000E+00 0. -1.
     999901    1    3    3    0    0 -0.76378639114E-01  0.14824725875E-01  0.11761376185E+00  0.89122750518E+00  0.88000000000E+00 0. -1.
        -11    1    3    3    0    0 -0.32882225373E-02  0.65440157333E-03 -0.18298208917E-01  0.18609842005E-01  0.51100000000E-03 0.  1.
         11    1    3    3    0    0  0.67852731284E-01 -0.23714016182E-01 -0.65129613902E-01  0.96997296015E-01  0.51100000000E-03 0. -1.
</event>
<event>
 8    1  0.1064839E+005  0.1043930E+01  0.7957747E-01            NaN
         13   -1    0    0    0    0  0.00000000000E+00  0.00000000000E+00  0.74505805969E-08  0.10566000000E+00  0.10566000000E+00 0.  1.
     999900   -1    0    0    0    0 -0.00000000000E+00 -0.00000000000E+00 -0.74505805969E-08  0.93827000000E+00  0.93827000000E+00 0. -1.
     999902    2    1    2    0    0 -0.11434272909E-01 -0.14057871428E-02 -0.20332558902E-01  0.10205605373E+01  0.10202929376E+01 0.  0.
     999903    2    3    3    0    0  0.61329418932E-01 -0.41114558540E-02  0.11033527510E+00  0.12793745990E+00  0.20394092744E-01 0.  0.
         14    1    1    2    0    0  0.11434272909E-01  0.14057871428E-02  0.20332558902E-01  0.23369462680E-01  0.00000000000E+00 0.  1.
     999901    1    3    3    0    0 -0.72763691840E-01  0.27056687111E-02 -0.13066783400E+00  0.89262307742E+00  0.88000000000E+00 0. -1.
        -11    1    4    4    0    0  0.99086251467E-02 -0.77233282613E-02  0.29449011198E-01  0.32020868715E-01  0.51100000000E-03 0.  1.
         11    1    4    4    0    0  0.51420793785E-01  0.36118724073E-02  0.80886263905E-01  0.95916591188E-01  0.51100000000E-03 0. -1.
</event>
<event>
 8    1  0.1064839E+005  0.1043930E+01  0.7957747E-01            NaN
         13   -1    0    0    0    0  0.00000000000E+00  0.00000000000E+00  0.74505805969E-08  0.10566000000E+00  0.10566000000E+00 0. -1.
     999900   -1    0    0    0    0 -0.00000000000E+00 -0.00000000000E+00 -0.74505805969E-08  0.93827000000E+00  0.93827000000E+00 0. -1.
     999902    2    1    2    0    0  0.19089291536E-02  0.16549833325E-01 -0.16245093183E-01  0.10206610497E+01  0.10203957734E+01 0.  0.
     999903    2    3    3    0    0  0.52888731933E-01  0.52293936430E-01  0.10557330557E+00  0.13009027576E+00  0.15680664700E-01 0.  0.
         14    1    1    2    0    0 -0.19089291536E-02 -0.16549833325E-01  0.16245093183E-01  0.23268950258E-01  0.00000000000E+00 0.  1.
     999901    1    3    3    0    0 -0.50979802779E-01 -0.35744103105E-01 -0.12181839875E+00  0.89057077398E+00  0.88000000000E+00 0. -1.
        -11    1    4    4    0    0  0.38131035357E-01  0.41748046319E-01  0.89414510267E-01  0.10579267931E+00  0.51100000000E-03 0. -1.
         11    1    4    4    0    0  0.14757696575E-01  0.10545890110E-01  0.16158795302E-01  0.24297596446E-01  0.51100000000E-03 0.  1.
</event>
<event>
 8    1  0.1064839E+005  0.1043930E+01  0.7957747E-01            NaN
         13   -1    0    0    0    0  0.00000000000E+00  0.00000000000E+00  0.74505805969E-08  0.10566000000E+00  0.10566000000E+00 0.  1.
     999900   -1    0    0    0    0 -0.00000000000E+00 -0.00000000000E+00 -0.74505805969E-08  0.93827000000E+00  0.93827000000E+00 0.  1.
     999902    2    1    2    0    0  0.78274359615E-02  0.19308284404E-01  0.11487017197E-01  0.10201386115E+01  0.10198611457E+01 0.  0.
     999903    2    3    3    0    0 -0.10372997088E+00 -0.39845243699E-01  0.63593834574E-01  0.12959983344E+00  0.20109468602E-01 0.  0.
         14    1    1    2    0    0 -0.78274359615E-02 -0.19308284404E-01 -0.11487017197E-01  0.23791388451E-01  0.00000000000E+00 0. -1.
     999901    1    3    3    0    0  0.11155740684E+00  0.59153528102E-01 -0.52106817377E-01  0.89053877811E+00  0.88000000000E+00 0. -1.
        -11    1    4    4    0    0 -0.70473689731E-01 -0.32517918955E-01  0.35051976134E-01  0.85163713807E-01  0.51100000000E-03 0.  1.
         11    1    4    4    0    0 -0.33256281145E-01 -0.73273247433E-02  0.28541858440E-01  0.44436119629E-01  0.51100000000E-03 0. -1.
</event>
<event>
 8    1  0.1064839E+005  0.1043930E+01  0.7957747E-01            NaN
         13   -1    0    0    0    0  0.00000000000E+00  0.00000000000E+00  0.74505805969E-08  0.10566000000E+00  0.10566000000E+00 0. -1.
     999900   -1    0    0    0    0 -0.00000000000E+00 -0.00000000000E+00 -0.74505805969E-08  0.93827000000E+00  0.93827000000E+00 0. -1.
     999902    2    1    2    0    0  0.87473420450E-02 -0.52585713271E-02  0.20683359817E-01  0.10208655265E+01  0.10206049447E+01 0.  0.
     999903    2    3    3    0    0 -0.26392180172E-03  0.10690581917E+00  0.74757320306E-01  0.13205393420E+00  0.20510016367E-01 0.  0.
         14    1    1    2    0    0 -0.87473420450E-02  0.52585713271E-02 -0.20683359817E-01  0.23064473516E-01  0.00000000000E+00 0.  1.
     999901    1    3    3    0    0  0.90112638468E-02 -0.11216439050E+00 -0.54073960490E-01  0.88881159228E+00  0.88000000000E+00 0. -1.
        -11    1    4    4    0    0  0.71160371616E-02  0.42882357416E-01  0.21765572777E-01  0.48616209660E-01  0.51100000000E-03 0.  1.
         11    1    4    4    0    0 -0.73799589633E-02  0.64023461756E-01  0.52991747529E-01  0.83437724542E-01  0.51100000000E-03 0. -1.
</event>
<event>
 8    1  0.1064839E+005  0.1043930E+01  0.7957747E-01            NaN
         13   -1    0    0    0    0  0.00000000000E+00  0.00000000000E+00  0.74505805969E-08  0.10566000000E+00  0.10566000000E+00 0. -1.
     999900   -1    0    0    0    0 -0.00000000000E+00 -0.00000000000E+00 -0.74505805969E-08  0.93827000000E+00  0.93827000000E+00 0.  1.
     999902    2    1    2    0    0  0.20252860753E-01 -0.54224815659E-02  0.90041241755E-02  0.10211121139E+01  0.10208571365E+01 0.  0.
     999903    2    3    3    0    0  0.10868593553E+00  0.54685305507E-01 -0.49110536033E-01  0.13273681677E+00  0.20102302232E-01 0.  0.
         14    1    1    2    0    0 -0.20252860753E-01  0.54224815659E-02 -0.90041241755E-02  0.22817886124E-01  0.00000000000E+00 0. -1.
     999901    1    3    3    0    0 -0.88433074780E-01 -0.60107787073E-01  0.58114660209E-01  0.88837529711E+00  0.88000000000E+00 0. -1.
        -11    1    4    4    0    0  0.85900690258E-01  0.41524341533E-01 -0.29344149744E-01  0.99822541401E-01  0.51100000000E-03 0. -1.
         11    1    4    4    0    0  0.22785245274E-01  0.13160963974E-01 -0.19766386289E-01  0.32914275366E-01  0.51100000000E-03 0.  1.
</event>
<event>
 8    1  0.1064839E+005  0.1043930E+01  0.7957747E-01            NaN
         13   -1    0    0    0    0  0.00000000000E+00  0.00000000000E+00  0.74505805969E-08  0.10566000000E+00  0.10566000000E+00 0.  1.
     999900   -1    0    0    0    0 -0.00000000000E+00 -0.00000000000E+00 -0.74505805969E-08  0.93827000000E+00  0.93827000000E+00 0.  1.
     999902    2    1    2    0    0 -0.13590499004E-03  0.74626134126E-02  0.22434084267E-01  0.10202868783E+01  0.10200129003E+01 0.  0.
     999903    2    3    3    0    0  0.64198216408E-01 -0.51226665449E-01  0.10195300781E+00  0.13242057647E+00  0.19879915248E-01 0.  0.
         14    1    1    2    0    0  0.13590499004E-03 -0.74626134126E-02 -0.22434084267E-01  0.23643121749E-01  0.00000000000E+00 0. -1.
     999901    1    3    3    0    0 -0.64334121398E-01  0.58689278862E-01 -0.79518923538E-01  0.88786630178E+00  0.88000000000E+00 0.  1.
        -11    1    4    4    0    0  0.20995411404E-01 -0.59370317904E-02  0.29015258332E-01  0.36307051430E-01  0.51100000000E-03 0.  1.
         11    1    4    4    0    0  0.43202805004E-01 -0.45289633659E-01  0.72937749474E-01  0.96113525045E-01  0.51100000000E-03 0. -1.
</event>
<event>
 8    1  0.1064839E+005  0.1043930E+01  0.7957747E-01            NaN
         13   -1    0    0    0    0  0.00000000000E+00  0.00000000000E+00  0.74505805969E-08  0.10566000000E+00  0.10566000000E+00 0.  1.
     999900   -1    0    0    0    0 -0.00000000000E+00 -0.00000000000E+00 -0.74505805969E-08  0.93827000000E+00  0.93827000000E+00 0. -1.
     999902    2    1    2    0    0  0.13147932464E-01  0.17519089872E-01 -0.85331008288E-02  0.10204225448E+01  0.10201517385E+01 0.  0.
     999903    2    3    3    0    0 -0.11531896751E+00  0.39743991925E-01  0.39023275381E-01  0.12954696454E+00  0.19533326385E-01 0.  0.
         14    1    1    2    0    0 -0.13147932464E-01 -0.17519089872E-01  0.85331008288E-02  0.23507455153E-01  0.00000000000E+00 0.  1.
     999901    1    3    3    0    0  0.12846689997E+00 -0.22224902053E-01 -0.47556376210E-01  0.89087558030E+00  0.88000000000E+00 0. -1.
        -11    1    4    4    0    0 -0.93199354521E-01  0.37775350285E-01  0.26296360270E-01  0.10394641147E+00  0.51100000000E-03 0.  1.
         11    1    4    4    0    0 -0.22119612989E-01  0.19686416399E-02  0.12726915111E-01  0.25600553079E-01  0.51100000000E-03 0. -1.
</event>
<event>
 8    1  0.1064839E+005  0.1043930E+01  0.7957747E-01            NaN
         13   -1    0    0    0    0  0.00000000000E+00  0.00000000000E+00  0.74505805969E-08  0.10566000000E+00  0.10566000000E+00 0. -1.
     999900   -1    0    0    0    0 -0.00000000000E+00 -0.00000000000E+00 -0.74505805969E-08  0.93827000000E+00  0.93827000000E+00 0.  1.
     999902    2    1    2    0    0 -0.22162325582E-01  0.61143961264E-02 -0.46707836454E-02  0.10204700184E+01  0.10202003175E+01 0.  0.
     999903    2    3    3    0    0  0.11354092651E+00  0.52205056503E-01  0.22443562933E-01  0.12846390332E+00  0.19553798163E-01 0.  0.
         14    1    1    2    0    0  0.22162325582E-01 -0.61143961264E-02  0.46707836454E-02  0.23459981566E-01  0.00000000000E+00 0. -1.
     999901    1    3    3    0    0 -0.13570325209E+00 -0.46090660377E-01 -0.27114346579E-01  0.89200611511E+00  0.88000000000E+00 0.  1.
        -11    1    4    4    0    0  0.30529129265E-01  0.11415471773E-01 -0.24192967242E-02  0.32687227584E-01  0.51100000000E-03 0.  1.
         11    1    4    4    0    0  0.83011797247E-01  0.40789584730E-01  0.24862859657E-01  0.95776675741E-01  0.51100000000E-03 0. -1.
</event>
<event>
 8    1  0.1378509E+005  0.1043930E+01  0.7957747E-01            NaN
         13   -1    0    0    0    0  0.00000000000E+00  0.00000000000E+00  0.74505805969E-08  0.10566000000E+00  0.10566000000E+00 0. -1.
     999900   -1    0    0    0    0 -0.00000000000E+00 -0.00000000000E+00 -0.74505805969E-08  0.93827000000E+00  0.93827000000E+00 0. -1.
     999902    2    1    2    0    0 -0.21539651507E-01  0.63512929069E-02  0.13471586387E-01  0.10177426147E+01  0.10174056470E+01 0.  0.
     999903    2    3    3    0    0  0.54091640530E-01  0.10811465962E+00 -0.34661522434E-01  0.12735355856E+00  0.20070439485E-01 0.  0.
         14    1    1    2    0    0  0.21539651507E-01 -0.63512929069E-02 -0.13471586387E-01  0.26187385291E-01  0.00000000000E+00 0.  1.
     999901    1    3    3    0    0 -0.75631292036E-01 -0.10176336671E+00  0.48133108821E-01  0.89038905615E+00  0.88000000000E+00 0. -1.
        -11    1    4    4    0    0  0.21615269160E-01  0.56132717045E-01 -0.86662890046E-02  0.60773904513E-01  0.51100000000E-03 0. -1.
         11    1    4    4    0    0  0.32476371370E-01  0.51981942576E-01 -0.25995233429E-01  0.66579654049E-01  0.51100000000E-03 0.  1.
</event>
<event>
 8    1  0.1064839E+005  0.1043930E+01  0.7957747E-01            NaN
         13   -1    0    0    0    0  0.00000000000E+00  0.00000000000E+00  0.74505805969E-08  0.10566000000E+00  0.10566000000E+00 0. -1.
     999900   -1    0    0    0    0 -0.00000000000E+00 -0.00000000000E+00 -0.74505805969E-08  0.93827000000E+00  0.93827000000E+00 0. -1.
     999902    2    1    2    0    0 -0.19429233594E-01  0.13574776751E-01  0.52449536092E-02  0.10196549259E+01  0.10193659249E+01 0.  0.
     999903    2    3    3    0    0 -0.11472958382E+00  0.18334556288E-01 -0.60220802270E-01  0.13207925174E+00  0.17870376523E-01 0.  0.
         14    1    1    2    0    0  0.19429233594E-01 -0.13574776751E-01 -0.52449536092E-02  0.24275074052E-01  0.00000000000E+00 0.  1.
     999901    1    3    3    0    0  0.95300350222E-01 -0.47597795371E-02  0.65465755879E-01  0.88757567421E+00  0.88000000000E+00 0.  1.
        -11    1    4    4    0    0 -0.10037238175E+00  0.12819491690E-01 -0.46106383698E-01  0.11119808507E+00  0.51100000000E-03 0. -1.
         11    1    4    4    0    0 -0.14357202066E-01  0.55150645977E-02 -0.14114418572E-01  0.20881166665E-01  0.51100000000E-03 0.  1.
</event>
<event>
 8    1  0.1064839E+005  0.1043930E+01  0.7957747E-01            NaN
         13   -1    0    0    0    0  0.00000000000E+00  0.00000000000E+00  0.74505805969E-08  0.10566000000E+00  0.10566000000E+00 0. -1.
     999900   -1    0    0    0    0 -0.00000000000E+00 -0.00000000000E+00 -0.74505805969E-08  0.93827000000E+00  0.93827000000E+00 0.  1.
     999902    2    1    2    0    0 -0.87533859073E-02 -0.90516977127E-02 -0.17313687491E-01  0.10225216191E+01  0.10222974826E+01 0.  0.
     999903    2    3    3    0    0  0.10578541238E+00 -0.36380840415E-01  0.65031504991E-01  0.13086767894E+00  0.19573802112E-01 0.  0.
         14    1    1    2    0    0  0.87533859073E-02  0.90516977127E-02  0.17313687491E-01  0.21408380856E-01  0.00000000000E+00 0. -1.
     999901    1    3    3    0    0 -0.11453879828E+00  0.27329142702E-01 -0.82345192482E-01  0.89165394020E+00  0.88000000000E+00 0. -1.
        -11    1    4    4    0    0  0.89906067948E-01 -0.32673907743E-01  0.62724604843E-01  0.11439109439E+00  0.51100000000E-03 0. -1.
         11    1    4    4    0    0  0.15879344429E-01 -0.37069326715E-02  0.23069001477E-02  0.16476584556E-01  0.51100000000E-03 0.  1.
</event>
<event>
 8    1  0.1064839E+005  0.1043930E+01  0.7957747E-01            NaN
         13   -1    0    0    0    0  0.00000000000E+00  0.00000000000E+00  0.74505805969E-08  0.10566000000E+00  0.10566000000E+00 0. -1.
     999900   -1    0    0    0    0 -0.00000000000E+00 -0.00000000000E+00 -0.74505805969E-08  0.93827000000E+00  0.93827000000E+00 0.  1.
     999902    2    1    2    0    0  0.15008990238E-02 -0.67099566080E-02  0.23346575636E-01  0.10195919884E+01  0.10193014686E+01 0.  0.
     999903    2    3    3    0    0 -0.79502023260E-01 -0.36814672176E-01  0.97176255665E-01  0.13228224034E+00  0.19480109205E-01 0.  0.
         14    1    1    2    0    0 -0.15008990238E-02  0.67099566080E-02 -0.23346575636E-01  0.24338011617E-01  0.00000000000E+00 0.  1.
     999901    1    3    3    0    0  0.81002922283E-01  0.30104715568E-01 -0.73829680029E-01  0.88730974804E+00  0.88000000000E+00 0.  1.
        -11    1    4    4    0    0 -0.17266425852E-01 -0.16529405102E-01  0.31601393789E-01  0.39626505084E-01  0.51100000000E-03 0.  1.
         11    1    4    4    0    0 -0.62235597408E-01 -0.20285267074E-01  0.65574861875E-01  0.92655735256E-01  0.51100000000E-03 0. -1.
</event>
<event>
 8    1  0.1203413E+005  0.1043930E+01  0.7957747E-01            NaN
         13   -1    0    0    0    0  0.00000000000E+00  0.00000000000E+00  0.74505805969E-08  0.10566000000E+00  0.10566000000E+00 0.  1.
     999900   -1    0    0    0    0 -0.00000000000E+00 -0.00000000000E+00 -0.74505805969E-08  0.93827000000E+00  0.93827000000E+00 0.  1.
     999902    2    1    2    0    0  0.15923600412E-01 -0.92136814733E-02  0.18615896723E-01  0.10177574077E+01  0.10174208256E+01 0.  0.
     999903    2    3    3    0    0  0.83179254005E-01  0.57012076688E-01  0.80597950504E-01  0.13054213002E+00  0.19392083393E-01 0.  0.
         14    1    1    2    0    0 -0.15923600412E-01  0.92136814733E-02 -0.18615896723E-01  0.26172592290E-01  0.00000000000E+00 0. -1.
     999901    1    3    3    0    0 -0.67255653593E-01 -0.66225758161E-01 -0.61982053781E-01  0.88721527769E+00  0.88000000000E+00 0.  1.
        -11    1    4    4    0    0  0.56412590135E-01  0.28338098403E-01  0.44575131984E-01  0.77282803128E-01  0.51100000000E-03 0.  1.
         11    1    4    4    0    0  0.26766663870E-01  0.28673978284E-01  0.36022818520E-01  0.53259326887E-01  0.51100000000E-03 0. -1.
</event>
<event>
 8    1  0.1064839E+005  0.1043930E+01  0.7957747E-01            NaN
         13   -1    0    0    0    0  0.00000000000E+00  0.00000000000E+00  0.74505805969E-08  0.10566000000E+00  0.10566000000E+00 0. -1.
     999900   -1    0    0    0    0 -0.00000000000E+00 -0.00000000000E+00 -0.74505805969E-08  0.93827000000E+00  0.93827000000E+00 0. -1.
     999902    2    1    2    0    0 -0.10051452014E-01 -0.29767065032E-02  0.19263504774E-01  0.10219988558E+01  0.10217635177E+01 0.  0.
     999903    2    3    3    0    0  0.59752635270E-01 -0.31598907677E-01 -0.10888100439E+00  0.12952316638E+00  0.18769899420E-01 0.  0.
         14    1    1    2    0    0  0.10051452014E-01  0.29767065032E-02 -0.19263504774E-01  0.21931144187E-01  0.00000000000E+00 0.  1.
     999901    1    3    3    0    0 -0.69804087284E-01  0.28622201174E-01  0.12814450916E+00  0.89247568943E+00  0.88000000000E+00 0.  1.
        -11    1    4    4    0    0  0.37647438442E-01 -0.95713118455E-02 -0.63652992166E-01  0.74571470177E-01  0.51100000000E-03 0.  1.
         11    1    4    4    0    0  0.22105196828E-01 -0.22027595832E-01 -0.45228012222E-01  0.54951696202E-01  0.51100000000E-03 0. -1.
</event>
<event>
 8    1  0.1064839E+005  0.1043930E+01  0.7957747E-01            NaN
         13   -1    0    0    0    0  0.00000000000E+00  0.00000000000E+00  0.74505805969E-08  0.10566000000E+00  0.10566000000E+00 0.  1.
     999900   -1    0    0    0    0 -0.00000000000E+00 -0.00000000000E+00 -0.74505805969E-08  0.93827000000E+00  0.93827000000E+00 0.  1.
     999902    2    1    2    0    0 -0.18134769494E-01  0.89655287979E-02  0.12785913022E-01  0.10199982190E+01  0.10197174298E+01 0.  0.
     999903    2    3    3    0    0  0.33392820387E-01 -0.43484728385E-01  0.11712116350E+00  0.13078960088E+00  0.19558903430E-01 0.  0.
         14    1    1    2    0    0  0.18134769494E-01 -0.89655287979E-02 -0.12785913022E-01  0.23931781025E-01  0.00000000000E+00 0.  1.
     999901    1    3    3    0    0 -0.51527589881E-01  0.52450257183E-01 -0.10433525048E+00  0.88920861809E+00  0.88000000000E+00 0.  1.
        -11    1    4    4    0    0  0.10149790641E-01 -0.14052795036E-01  0.18899902582E-01  0.25650862305E-01  0.51100000000E-03 0.  1.
         11    1    4    4    0    0  0.23243029746E-01 -0.29431933349E-01  0.98221260918E-01  0.10513873858E+00  0.51100000000E-03 0. -1.
</event>
<event>
 8    1  0.1064839E+005  0.1043930E+01  0.7957747E-01            NaN
         13   -1    0    0    0    0  0.00000000000E+00  0.00000000000E+00  0.74505805969E-08  0.10566000000E+00  0.10566000000E+00 0.  1.
     999900   -1    0    0    0    0 -0.00000000000E+00 -0.00000000000E+00 -0.74505805969E-08  0.93827000000E+00  0.93827000000E+00 0. -1.
     999902    2    1    2    0    0 -0.18169451941E-02  0.23192584162E-01  0.15585171714E-02  0.10206142065E+01  0.10203478487E+01 0.  0.
     999903    2    3    3    0    0  0.31845054958E-01 -0.89064319058E-01  0.84992742209E-01  0.12893264201E+00  0.21290831195E-01 0.  0.
         14    1    1    2    0    0  0.18169451941E-02 -0.23192584162E-01 -0.15585171714E-02  0.23315793483E-01  0.00000000000E+00 0. -1.
     999901    1    3    3    0    0 -0.33662000152E-01  0.11225690322E+00 -0.83434225037E-01  0.89168156451E+00  0.88000000000E+00 0. -1.
        -11    1    4    4    0    0  0.46636363075E-02 -0.44303255453E-01  0.37428418798E-01  0.58186558603E-01  0.51100000000E-03 0.  1.
         11    1    4    4    0    0  0.27181418651E-01 -0.44761063605E-01  0.47564323411E-01  0.70746083407E-01  0.51100000000E-03 0. -1.
</event>
<event>
 8    1  0.1064839E+005  0.1043930E+01  0.7957747E-01            NaN
         13   -1    0    0    0    0  0.00000000000E+00  0.00000000000E+00  0.74505805969E-08  0.10566000000E+00  0.10566000000E+00 0.  1.
     999900   -1    0    0    0    0 -0.00000000000E+00 -0.00000000000E+00 -0.74505805969E-08  0.93827000000E+00  0.93827000000E+00 0.  1.
     999902    2    1    2    0    0 -0.14538461930E-02  0.12493372450E-01  0.17681184317E-01  0.10222315599E+01  0.10220012425E+01 0.  0.
     999903    2    3    3    0    0  0.62828296865E-01 -0.11190155627E+00 -0.14651977925E-01  0.13057482910E+00  0.19124653015E-01 0.  0.
         14    1    1    2    0    0  0.14538461930E-02 -0.12493372450E-01 -0.17681184317E-01  0.21698440100E-01  0.00000000000E+00 0. -1.
     999901    1    3    3    0    0 -0.64282143058E-01  0.12439492872E+00  0.32333162242E-01  0.89165673080E+00  0.88000000000E+00 0. -1.
        -11    1    4    4    0    0  0.43313769165E-01 -0.91788468491E-01 -0.14636200711E-01  0.10254601425E+00  0.51100000000E-03 0.  1.
         11    1    4    4    0    0  0.19514527701E-01 -0.20113087783E-01 -0.15777214001E-04  0.28028814842E-01  0.51100000000E-03 0. -1.
</event>
<event>
 8    1  0.1064839E+005  0.1043930E+01  0.7957747E-01            NaN
         13   -1    0    0    0    0  0.00000000000E+00  0.00000000000E+00  0.74505805969E-08  0.10566000000E+00  0.10566000000E+00 0. -1.
     999900   -1    0    0    0    0 -0.00000000000E+00 -0.00000000000E+00 -0.74505805969E-08  0.93827000000E+00  0.93827000000E+00 0.  1.
     999902    2    1    2    0    0 -0.13383011297E-01 -0.35874079189E-02 -0.16893617060E-01  0.10220812292E+01  0.10218476747E+01 0.  0.
     999903    2    3    3    0    0  0.51628689182E-01 -0.68932761592E-01  0.95526195871E-01  0.13015368128E+00  0.19936887569E-01 0.  0.
         14    1    1    2    0    0  0.13383011297E-01  0.35874079189E-02  0.16893617060E-01  0.21848770774E-01  0.00000000000E+00 0. -1.
     999901    1    3    3    0    0 -0.65011700479E-01  0.65345353673E-01 -0.11241981293E+00  0.89192754795E+00  0.88000000000E+00 0.  1.
        -11    1    4    4    0    0  0.36606014624E-01 -0.35013645564E-01  0.47295264791E-01  0.69304104316E-01  0.51100000000E-03 0.  1.
         11    1    4    4    0    0  0.15022674559E-01 -0.33919116028E-01  0.48230931079E-01  0.60849576965E-01  0.51100000000E-03 0. -1.
</event>
<event>
 8    1  0.1064839E+005  0.1043930E+01  0.7957747E-01            NaN
         13   -1    0    0    0    0  0.00000000000E+00  0.00000000000E+00  0.74505805969E-08  0.10566000000E+00  0.10566000000E+00 0. -1.
     999900   -1    0    0    0    0 -0.00000000000E+00 -0.00000000000E+00 -0.74505805969E-08  0.93827000000E+00  0.93827000000E+00 0.  1.
     999902    2    1    2    0    0  0.19916976286E-01  0.29940970587E-02 -0.12505267815E-01  0.10202227799E+01  0.10199472968E+01 0.  0.
     999903    2    3    3    0    0 -0.81810816885E-01 -0.76125113673E-01  0.58837414054E-01  0.12797944333E+00  0.20708788722E-01 0.  0.
         14    1    1    2    0    0 -0.19916976286E-01 -0.29940970587E-02  0.12505267815E-01  0.23707220096E-01  0.00000000000E+00 0. -1.
     999901    1    3    3    0    0  0.10172779317E+00  0.79119210732E-01 -0.71342681869E-01  0.89224333658E+00  0.88000000000E+00 0.  1.
        -11    1    4    4    0    0 -0.31644872739E-01 -0.19556344788E-01  0.12247715693E-01  0.39167796119E-01  0.51100000000E-03 0.  1.
         11    1    4    4    0    0 -0.50165944146E-01 -0.56568768885E-01  0.46589698361E-01  0.88811647207E-01  0.51100000000E-03 0. -1.
</event>
<event>
 8    1  0.1064839E+005  0.1043930E+01  0.7957747E-01            NaN
         13   -1    0    0    0    0  0.00000000000E+00  0.00000000000E+00  0.74505805969E-08  0.10566000000E+00  0.10566000000E+00 0. -1.
     999900   -1    0    0    0    0 -0.00000000000E+00 -0.00000000000E+00 -0.74505805969E-08  0.93827000000E+00  0.93827000000E+00 0.  1.
     999902    2    1    2    0    0  0.19768669635E-01  0.24754041899E-01  0.59758321188E-02  0.10116922355E+01  0.10111784738E+01 0.  0.
     999903    2    3    3    0    0  0.10259681461E+00 -0.40413270629E-01 -0.51874045288E-01  0.12351776587E+00  0.20158945896E-01 0.  0.
         14    1    1    2    0    0 -0.19768669635E-01 -0.24754041899E-01 -0.59758321188E-02  0.32237764485E-01  0.00000000000E+00 0.  1.
     999901    1    3    3    0    0 -0.82828144971E-01  0.65167312528E-01  0.57849877406E-01  0.88817446965E+00  0.88000000000E+00 0. -1.
        -11    1    4    4    0    0  0.41779339774E-01 -0.73991237496E-02 -0.25208202700E-01  0.49355596122E-01  0.51100000000E-03 0.  1.
         11    1    4    4    0    0  0.60817474833E-01 -0.33014146879E-01 -0.26665842588E-01  0.74162169744E-01  0.51100000000E-03 0. -1.
</event>
<event>
 8    1  0.1064839E+005  0.1043930E+01  0.7957747E-01            NaN
         13   -1    0    0    0    0  0.00000000000E+00  0.00000000000E+00  0.74505805969E-08  0.10566000000E+00  0.10566000000E+00 0. -1.
     999900   -1    0    0    0    0 -0.00000000000E+00 -0.00000000000E+00 -0.74505805969E-08  0.93827000000E+00  0.93827000000E+00 0. -1.
     999902    2    1    2    0    0 -0.12486245358E-02  0.17660611887E-01 -0.16344124787E-01  0.10198346334E+01  0.10195499462E+01 0.  0.
     999903    2    3    3    0    0 -0.14133767638E-01  0.11452580813E+00 -0.63365049751E-01  0.13317807052E+00  0.20133177112E-01 0.  0.
         14    1    1    2    0    0  0.12486245358E-02 -0.17660611887E-01  0.16344124787E-01  0.24095366577E-01  0.00000000000E+00 0. -1.
     999901    1    3    3    0    0  0.12885143103E-01 -0.96865196247E-01  0.47020924965E-01  0.88665656290E+00  0.88000000000E+00 0.  1.
        -11    1    4    4    0    0 -0.12368927936E-01  0.67460110613E-01 -0.27155040428E-01  0.73766620119E-01  0.51100000000E-03 0.  1.
         11    1    4    4    0    0 -0.17648397028E-02  0.47065697521E-01 -0.36210009324E-01  0.59411450399E-01  0.51100000000E-03 0. -1.
</event>
<event>
 8    1  0.1064839E+005  0.1043930E+01  0.7957747E-01            NaN
         13   -1    0    0    0    0  0.00000000000E+00  0.00000000000E+00  0.74505805969E-08  0.10566000000E+00  0.10566000000E+00 0. -1.
     999900   -1    0    0    0    0 -0.00000000000E+00 -0.00000000000E+00 -0.74505805969E-08  0.93827000000E+00  0.93827000000E+00 0.  1.
     999902    2    1    2    0    0 -0.66079244616E-03  0.41541591104E-02 -0.22539786125E-01  0.10210010741E+01  0.10207435808E+01 0.  0.
     999903    2    3    3    0    0  0.65242339008E-02 -0.12902255191E+00 -0.58893861744E-02  0.13079609951E+00  0.19584438931E-01 0.  0.
         14    1    1    2    0    0  0.66079244616E-03 -0.41541591104E-02  0.22539786125E-01  0.22928925905E-01  0.00000000000E+00 0. -1.
     999901    1    3    3    0    0 -0.71850263470E-02  0.13317671102E+00 -0.16650399951E-01  0.89020497459E+00  0.88000000000E+00 0.  1.
        -11    1    4    4    0    0 -0.16063179167E-02 -0.86122379417E-01  0.31792933638E-02  0.86197526188E-01  0.51100000000E-03 0.  1.
         11    1    4    4    0    0  0.81305518175E-02 -0.42900172491E-01 -0.90686795382E-02  0.44598573320E-01  0.51100000000E-03 0. -1.
</event>
<event>
 8    1  0.1064839E+005  0.1043930E+01  0.7957747E-01            NaN
         13   -1    0    0    0    0  0.00000000000E+00  0.00000000000E+00  0.74505805969E-08  0.10566000000E+00  0.10566000000E+00 0. -1.
     999900   -1    0    0    0    0 -0.00000000000E+00 -0.00000000000E+00 -0.74505805969E-08  0.93827000000E+00  0.93827000000E+00 0.  1.
     999902    2    1    2    0    0 -0.54096454936E-02 -0.14731927619E-01  0.22077543320E-01  0.10168428836E+01  0.10164820402E+01 0.  0.
     999903    2    3    3    0    0  0.87274226141E-01  0.33924606093E-01 -0.79816117835E-01  0.12480024083E+00  0.20900191354E-01 0.  0.
         14    1    1    2    0    0  0.54096454936E-02  0.14731927619E-01 -0.22077543320E-01  0.27087116399E-01  0.00000000000E+00 0.  1.
     999901    1    3    3    0    0 -0.92683871634E-01 -0.48656533711E-01  0.10189366116E+00  0.89204264277E+00  0.88000000000E+00 0.  1.
        -11    1    4    4    0    0  0.29030684494E-01  0.59627597151E-02 -0.14762846151E-01  0.33114013546E-01  0.51100000000E-03 0.  1.
         11    1    4    4    0    0  0.58243541647E-01  0.27961846378E-01 -0.65053271684E-01  0.91686227287E-01  0.51100000000E-03 0. -1.
</event>
<event>
 8    1  0.1064839E+005  0.1043930E+01  0.7957747E-01            NaN
         13   -1    0    0    0    0  0.00000000000E+00  0.00000000000E+00  0.74505805969E-08  0.10566000000E+00  0.10566000000E+00 0. -1.
     999900   -1    0    0    0    0 -0.00000000000E+00 -0.00000000000E+00 -0.74505805969E-08  0.93827000000E+00  0.93827000000E+00 0.  1.
     999902    2    1    2    0    0  0.24658622389E-02  0.78401698901E-02  0.22628242912E-01  0.10198554051E+01  0.10195712144E+01 0.  0.
     999903    2    3    3    0    0  0.63744156667E-01 -0.75414906642E-01 -0.79126191676E-01  0.12798074909E+00  0.19167479660E-01 0.  0.
         14    1    1    2    0    0 -0.24658622389E-02 -0.78401698901E-02 -0.22628242912E-01  0.24074594862E-01  0.00000000000E+00 0.  1.
     999901    1    3    3    0    0 -0.61278294428E-01  0.83255076532E-01  0.10175443459E+00  0.89187465604E+00  0.88000000000E+00 0. -1.
        -11    1    4    4    0    0  0.27682765998E-01 -0.34462031293E-01 -0.47590098418E-01  0.64954181717E-01  0.51100000000E-03 0. -1.
         11    1    4    4    0    0  0.36061390669E-01 -0.40952875348E-01 -0.31536093258E-01  0.63026567377E-01  0.51100000000E-03 0.  1.
</event>
<event>
 8    1  0.1064839E+005  0.1043930E+01  0.7957747E-01            NaN
         13   -1    0    0    0    0  0.00000000000E+00  0.00000000000E+00  0.74505805969E-08  0.10566000000E+00  0.10566000000E+00 0.  1.
     999900   -1    0    0    0    0 -0.00000000000E+00 -0.00000000000E+00 -0.74505805969E-08  0.93827000000E+00  0.93827000000E+00 0. -1.
     999902    2    1    2    0    0  0.10900006124E-01  0.76512185513E-03 -0.21587748660E-01  0.10197344129E+01  0.10194473240E+01 0.  0.
     999903    2    3    3    0    0  0.89230877004E-01 -0.79274754555E-01 -0.52720079764E-01  0.13209071791E+00  0.20540565374E-01 0.  0.
         14    1    1    2    0    0 -0.10900006124E-01 -0.76512185513E-03  0.21587748660E-01  0.24195587142E-01  0.00000000000E+00 0.  1.
     999901    1    3    3    0    0 -0.78330870880E-01  0.80039876410E-01  0.31132331104E-01  0.88764369495E+00  0.88000000000E+00 0.  1.
        -11    1    4    4    0    0  0.12488305469E-01 -0.22118536979E-01 -0.10127119267E-01  0.27349718778E-01  0.51100000000E-03 0. -1.
         11    1    4    4    0    0  0.76742571535E-01 -0.57156217575E-01 -0.42592960497E-01  0.10474099913E+00  0.51100000000E-03 0.  1.
</event>
<event>
 8    1  0.1064839E+005  0.1043930E+01  0.7957747E-01            NaN
         13   -1    0    0    0    0  0.00000000000E+00  0.00000000000E+00  0.74505805969E-08  0.10566000000E+00  0.10566000000E+00 0. -1.
     999900   -1    0    0    0    0 -0.00000000000E+00 -0.00000000000E+00 -0.74505805969E-08  0.93827000000E+00  0.93827000000E+00 0. -1.
     999902    2    1    2    0    0 -0.10062943690E-01  0.21532135596E-01 -0.17860925497E-03  0.10201617943E+01  0.10198848754E+01 0.  0.
     999903    2    3    3    0    0 -0.99947567183E-01 -0.83530203464E-02  0.82013177956E-01  0.13127042979E+00  0.21129960821E-01 0.  0.
         14    1    1    2    0    0  0.10062943690E-01 -0.21532135596E-01  0.17860925497E-03  0.23768205660E-01  0.00000000000E+00 0.  1.
     999901    1    3    3    0    0  0.89884623493E-01  0.29885155942E-01 -0.82191787211E-01  0.88889136455E+00  0.88000000000E+00 0. -1.
        -11    1    4    4    0    0 -0.87488258747E-01 -0.14332034854E-01  0.70234257585E-01  0.11310488363E+00  0.51100000000E-03 0. -1.
         11    1    4    4    0    0 -0.12459308436E-01  0.59790145072E-02  0.11778920371E-01  0.18165546160E-01  0.51100000000E-03 0.  1.
</event>
<event>
 8    1  0.1064839E+005  0.1043930E+01  0.7957747E-01            NaN
         13   -1    0    0    0    0  0.00000000000E+00  0.00000000000E+00  0.74505805969E-08  0.10566000000E+00  0.10566000000E+00 0. -1.
     999900   -1    0    0    0    0 -0.00000000000E+00 -0.00000000000E+00 -0.74505805969E-08  0.93827000000E+00  0.93827000000E+00 0. -1.
     999902    2    1    2    0    0  0.11100756736E-01  0.13295808106E-01 -0.16584592716E-01  0.10199497158E+01  0.10196677737E+01 0.  0.
     999903    2    3    3    0    0 -0.24108157235E-01 -0.12341463631E+00  0.14605971821E-01  0.12815250539E+00  0.19933753378E-01 0.  0.
         14    1    1    2    0    0 -0.11100756736E-01 -0.13295808106E-01  0.16584592716E-01  0.23980284169E-01  0.00000000000E+00 0. -1.
     999901    1    3    3    0    0  0.35208913971E-01  0.13671044442E+00 -0.31190564536E-01  0.89179721044E+00  0.88000000000E+00 0. -1.
        -11    1    4    4    0    0 -0.23159488152E-01 -0.99528732189E-01  0.18724140204E-01  0.10389025445E+00  0.51100000000E-03 0. -1.
         11    1    4    4    0    0 -0.94866908352E-03 -0.23885904122E-01 -0.41181683833E-02  0.24262250938E-01  0.51100000000E-03 0.  1.
</event>
<event>
 8    1  0.1064839E+005  0.1043930E+01  0.7957747E-01            NaN
         13   -1    0    0    0    0  0.00000000000E+00  0.00000000000E+00  0.74505805969E-08  0.10566000000E+00  0.10566000000E+00 0. -1.
     999900   -1    0    0    0    0 -0.00000000000E+00 -0.00000000000E+00 -0.74505805969E-08  0.93827000000E+00  0.93827000000E+00 0. -1.
     999902    2    1    2    0    0  0.16224688210E-01  0.85829909411E-02 -0.14638737420E-01  0.10204523324E+01  0.10201822199E+01 0.  0.
     999903    2    3    3    0    0  0.10356163289E+00 -0.64132961425E-01 -0.48327511325E-01  0.13250510139E+00  0.19596045421E-01 0.  0.
         14    1    1    2    0    0 -0.16224688210E-01 -0.85829909411E-02  0.14638737420E-01  0.23477667564E-01  0.00000000000E+00 0. -1.
     999901    1    3    3    0    0 -0.87336944677E-01  0.72715952366E-01  0.33688773905E-01  0.88794723105E+00  0.88000000000E+00 0.  1.
        -11    1    4    4    0    0  0.60338482667E-01 -0.29352659607E-01 -0.33901474592E-01  0.75179001171E-01  0.51100000000E-03 0.  1.
         11    1    4    4    0    0  0.43223150221E-01 -0.34780301818E-01 -0.14426036733E-01  0.57326100219E-01  0.51100000000E-03 0. -1.
</event>
<event>
 8    1  0.1064839E+005  0.1043930E+01  0.7957747E-01            NaN
         13   -1    0    0    0    0  0.00000000000E+00  0.00000000000E+00  0.74505805969E-08  0.10566000000E+00  0.10566000000E+00 0. -1.
     999900   -1    0    0    0    0 -0.00000000000E+00 -0.00000000000E+00 -0.74505805969E-08  0.93827000000E+00  0.93827000000E+00 0. -1.
     999902    2    1    2    0    0  0.43414803831E-02 -0.19809136931E-01 -0.11201021196E-01  0.10207629278E+01  0.10204999959E+01 0.  0.
     999903    2    3    3    0    0 -0.17885093496E-01 -0.62756218617E-01 -0.11454239057E+00  0.13339721345E+00  0.20411706760E-01 0.  0.
         14    1    1    2    0    0 -0.43414803831E-02  0.19809136931E-01  0.11201021196E-01  0.23167072186E-01  0.00000000000E+00 0. -1.
     999901    1    3    3    0    0  0.22226573880E-01  0.42947081686E-01  0.10334136938E+00  0.88736571437E+00  0.88000000000E+00 0.  1.
        -11    1    4    4    0    0  0.35308639697E-02 -0.47520707035E-02 -0.15930352571E-01  0.17002541880E-01  0.51100000000E-03 0. -1.
         11    1    4    4    0    0 -0.21415957466E-01 -0.58004147913E-01 -0.98612038001E-01  0.11639467157E+00  0.51100000000E-03 0.  1.
</event>
<event>
 8    1  0.1064839E+005  0.1043930E+01  0.7957747E-01            NaN
         13   -1    0    0    0    0  0.00000000000E+00  0.00000000000E+00  0.74505805969E-08  0.10566000000E+00  0.10566000000E+00 0. -1.
     999900   -1    0    0    0    0 -0.00000000000E+00 -0.00000000000E+00 -0.74505805969E-08  0.93827000000E+00  0.93827000000E+00 0.  1.
     999902    2    1    2    0    0  0.20928976301E-01  0.11395328240E-01 -0.16696188094E-02  0.10200414425E+01  0.10197616786E+01 0.  0.
     999903    2    3    3    0    0 -0.70321726634E-01 -0.61691232975E-01 -0.85560777131E-01  0.12835424244E+00  0.20080127170E-01 0.  0.
         14    1    1    2    0    0 -0.20928976301E-01 -0.11395328240E-01  0.16696188094E-02  0.23888557547E-01  0.00000000000E+00 0.  1.
     999901    1    3    3    0    0  0.91250702936E-01  0.73086561214E-01  0.83891158322E-01  0.89168720001E+00  0.88000000000E+00 0.  1.
        -11    1    4    4    0    0 -0.26111097377E-01 -0.22708313348E-01 -0.19133810628E-01  0.39545173302E-01  0.51100000000E-03 0.  1.
         11    1    4    4    0    0 -0.44210629257E-01 -0.38982919627E-01 -0.66426966503E-01  0.88809069141E-01  0.51100000000E-03 0. -1.
</event>
<event>
 8    1  0.1064839E+005  0.1043930E+01  0.7957747E-01            NaN
         13   -1    0    0    0    0  0.00000000000E+00  0.00000000000E+00  0.74505805969E-08  0.10566000000E+00  0.10566000000E+00 0. -1.
     999900   -1    0    0    0    0 -0.00000000000E+00 -0.00000000000E+00 -0.74505805969E-08  0.93827000000E+00  0.93827000000E+00 0. -1.
     999902    2    1    2    0    0 -0.74757464438E-02  0.22761069434E-01  0.26291862261E-02  0.10198288447E+01  0.10195440191E+01 0.  0.
     999903    2    3    3    0    0 -0.22857800008E-01  0.11371444522E+00  0.61544307435E-01  0.13304808507E+00  0.21462457694E-01 0.  0.
         14    1    1    2    0    0  0.74757464438E-02 -0.22761069434E-01 -0.26291862261E-02  0.24101155301E-01  0.00000000000E+00 0. -1.
     999901    1    3    3    0    0  0.15382053564E-01 -0.90953375787E-01 -0.58915121209E-01  0.88678075963E+00  0.88000000000E+00 0. -1.
        -11    1    4    4    0    0 -0.17266284408E-01  0.59631297577E-01  0.22200268621E-01  0.65932763296E-01  0.51100000000E-03 0.  1.
         11    1    4    4    0    0 -0.55915156002E-02  0.54083147644E-01  0.39344038814E-01  0.67115321775E-01  0.51100000000E-03 0. -1.
</event>
<event>
 8    1  0.1064839E+005  0.1043930E+01  0.7957747E-01            NaN
         13   -1    0    0    0    0  0.00000000000E+00  0.00000000000E+00  0.74505805969E-08  0.10566000000E+00  0.10566000000E+00 0.  1.
     999900   -1    0    0    0    0 -0.00000000000E+00 -0.00000000000E+00 -0.74505805969E-08  0.93827000000E+00  0.93827000000E+00 0. -1.
     999902    2    1    2    0    0  0.23254013752E-01 -0.37017656398E-02  0.39288201299E-02  0.10200576760E+01  0.10197782968E+01 0.  0.
     999903    2    3    3    0    0  0.70534328873E-01 -0.96508900533E-01  0.53709386149E-01  0.13251798833E+00  0.19678913538E-01 0.  0.
         14    1    1    2    0    0 -0.23254013752E-01  0.37017656398E-02 -0.39288201299E-02  0.23872323976E-01  0.00000000000E+00 0. -1.
     999901    1    3    3    0    0 -0.47280315121E-01  0.92807134893E-01 -0.49780566019E-01  0.88753968770E+00  0.88000000000E+00 0. -1.
        -11    1    4    4    0    0  0.22155017001E-01 -0.16675779295E-01  0.10534741303E-01  0.29667630318E-01  0.51100000000E-03 0.  1.
         11    1    4    4    0    0  0.48379311872E-01 -0.79833121238E-01  0.43174644846E-01  0.10285035801E+00  0.51100000000E-03 0. -1.
</event>
<event>
 8    1  0.1064839E+005  0.1043930E+01  0.7957747E-01            NaN
         13   -1    0    0    0    0  0.00000000000E+00  0.00000000000E+00  0.74505805969E-08  0.10566000000E+00  0.10566000000E+00 0. -1.
     999900   -1    0    0    0    0 -0.00000000000E+00 -0.00000000000E+00 -0.74505805969E-08  0.93827000000E+00  0.93827000000E+00 0. -1.
     999902    2    1    2    0    0  0.11405764477E-01 -0.13964354318E-01  0.18508790686E-01  0.10180906891E+01  0.10177627333E+01 0.  0.
     999903    2    3    3    0    0  0.32315799160E-01 -0.12160782250E+00 -0.27821720451E-01  0.13007556420E+00  0.17687026502E-01 0.  0.
         14    1    1    2    0    0 -0.11405764477E-01  0.13964354318E-01 -0.18508790686E-01  0.25839310894E-01  0.00000000000E+00 0.  1.
     999901    1    3    3    0    0 -0.20910034684E-01  0.10764346818E+00  0.46330511137E-01  0.88801512490E+00  0.88000000000E+00 0.  1.
        -11    1    4    4    0    0  0.30370763656E-01 -0.82778262743E-01 -0.19998084561E-01  0.90414648011E-01  0.51100000000E-03 0. -1.
         11    1    4    4    0    0  0.19450355041E-02 -0.38829559753E-01 -0.78236358895E-02  0.39660916193E-01  0.51100000000E-03 0.  1.
</event>
<event>
 8    1  0.1064839E+005  0.1043930E+01  0.7957747E-01            NaN
         13   -1    0    0    0    0  0.00000000000E+00  0.00000000000E+00  0.74505805969E-08  0.10566000000E+00  0.10566000000E+00 0.  1.
     999900   -1    0    0    0    0 -0.00000000000E+00 -0.00000000000E+00 -0.74505805969E-08  0.93827000000E+00  0.93827000000E+00 0. -1.
     999902    2    1    2    0    0  0.29910948259E-02 -0.83353394831E-02  0.17930191491E-01  0.10239320926E+01  0.10237367894E+01 0.  0.
     999903    2    3    3    0    0 -0.65631749741E-01 -0.98968899944E-01  0.62095483411E-01  0.13552108972E+00  0.20192745415E-01 0.  0.
         14    1    1    2    0    0 -0.29910948259E-02  0.83353394831E-02 -0.17930191491E-01  0.19997907377E-01  0.00000000000E+00 0. -1.
     999901    1    3    3    0    0  0.68622844567E-01  0.90633560461E-01 -0.44165291920E-01  0.88841100291E+00  0.88000000000E+00 0.  1.
        -11    1    4    4    0    0 -0.50494528873E-01 -0.83196206039E-01  0.57937211841E-01  0.11326203151E+00  0.51100000000E-03 0.  1.
         11    1    4    4    0    0 -0.15137220868E-01 -0.15772693905E-01  0.41582715699E-02  0.22259058203E-01  0.51100000000E-03 0. -1.
</event>
<event>
 8    1  0.1064839E+005  0.1043930E+01  0.7957747E-01            NaN
         13   -1    0    0    0    0  0.00000000000E+00  0.00000000000E+00  0.74505805969E-08  0.10566000000E+00  0.10566000000E+00 0. -1.
     999900   -1    0    0    0    0 -0.00000000000E+00 -0.00000000000E+00 -0.74505805969E-08  0.93827000000E+00  0.93827000000E+00 0.  1.
     999902    2    1    2    0    0 -0.95915686750E-03 -0.61367059725E-03  0.23935365016E-01  0.10199675654E+01  0.10196860479E+01 0.  0.
     999903    2    3    3    0    0  0.10368749398E+00 -0.59481008469E-01  0.51177882253E-01  0.13139655544E+00  0.18888948390E-01 0.  0.
         14    1    1    2    0    0  0.95915686750E-03  0.61367059725E-03 -0.23935365016E-01  0.23962434600E-01  0.00000000000E+00 0.  1.
     999901    1    3    3    0    0 -0.10464665085E+00  0.58867337872E-01 -0.27242517236E-01  0.88857100996E+00  0.88000000000E+00 0. -1.
        -11    1    4    4    0    0  0.49075411139E-01 -0.19415083357E-01  0.16481740240E-01  0.55292407459E-01  0.51100000000E-03 0. -1.
         11    1    4    4    0    0  0.54612082846E-01 -0.40065925112E-01  0.34696142012E-01  0.76104147978E-01  0.51100000000E-03 0.  1.
</event>
<event>
 8    1  0.1064839E+005  0.1043930E+01  0.7957747E-01            NaN
         13   -1    0    0    0    0  0.00000000000E+00  0.00000000000E+00  0.74505805969E-08  0.10566000000E+00  0.10566000000E+00 0. -1.
     999900   -1    0    0    0    0 -0.00000000000E+00 -0.00000000000E+00 -0.74505805969E-08  0.93827000000E+00  0.93827000000E+00 0. -1.
     999902    2    1    2    0    0  0.12534076623E-01 -0.19333689238E-01  0.54945327640E-02  0.10202427776E+01  0.10199677645E+01 0.  0.
     999903    2    3    3    0    0 -0.19106964744E-01 -0.40671149062E-01 -0.12079961154E+00  0.13040759419E+00  0.19858902411E-01 0.  0.
         14    1    1    2    0    0 -0.12534076623E-01  0.19333689238E-01 -0.54945327640E-02  0.23687222434E-01  0.00000000000E+00 0.  1.
     999901    1    3    3    0    0  0.31641041367E-01  0.21337459823E-01  0.12629414431E+00  0.88983518338E+00  0.88000000000E+00 0.  1.
        -11    1    4    4    0    0 -0.11228351754E-01 -0.37557187604E-01 -0.84834424530E-01  0.93454582178E-01  0.51100000000E-03 0.  1.
         11    1    4    4    0    0 -0.78786129908E-02 -0.31139614580E-02 -0.35965187014E-01  0.36953012010E-01  0.51100000000E-03 0. -1.
</event>
<event>
 8    1  0.1064839E+005  0.1043930E+01  0.7957747E-01            NaN
         13   -1    0    0    0    0  0.00000000000E+00  0.00000000000E+00  0.74505805969E-08  0.10566000000E+00  0.10566000000E+00 0.  1.
     999900   -1    0    0    0    0 -0.00000000000E+00 -0.00000000000E+00 -0.74505805969E-08  0.93827000000E+00  0.93827000000E+00 0. -1.
     999902    2    1    2    0    0  0.16900132328E-01  0.12924656914E-01  0.11992924248E-01  0.10195068253E+01  0.10192142441E+01 0.  0.
     999903    2    3    3    0    0 -0.98279220009E-02  0.10199913185E+00 -0.77624585219E-01  0.13008007231E+00  0.19870531814E-01 0.  0.
         14    1    1    2    0    0 -0.16900132328E-01 -0.12924656914E-01 -0.11992924248E-01  0.24423174672E-01  0.00000000000E+00 0.  1.
     999901    1    3    3    0    0  0.26728054329E-01 -0.89074474932E-01  0.89617509467E-01  0.88942675301E+00  0.88000000000E+00 0.  1.
        -11    1    4    4    0    0 -0.87067999639E-02  0.87022922943E-01 -0.74138592090E-01  0.11465421685E+00  0.51100000000E-03 0. -1.
         11    1    4    4    0    0 -0.11211220370E-02  0.14976208903E-01 -0.34859931290E-02  0.15425855465E-01  0.51100000000E-03 0.  1.
</event>
<event>
 8    1  0.1064839E+005  0.1043930E+01  0.7957747E-01            NaN
         13   -1    0    0    0    0  0.00000000000E+00  0.00000000000E+00  0.74505805969E-08  0.10566000000E+00  0.10566000000E+00 0.  1.
     999900   -1    0    0    0    0 -0.00000000000E+00 -0.00000000000E+00 -0.74505805969E-08  0.93827000000E+00  0.93827000000E+00 0. -1.
     999902    2    1    2    0    0 -0.30220493741E-02  0.75929510604E-02 -0.21898321309E-01  0.10205564644E+01  0.10202887704E+01 0.  0.
     999903    2    3    3    0    0 -0.26195439598E-01 -0.11610349949E+00  0.45675342107E-01  0.12903864753E+00  0.19962766056E-01 0.  0.
         14    1    1    2    0    0  0.30220493741E-02 -0.75929510604E-02  0.21898321309E-01  0.23373535556E-01  0.00000000000E+00 0.  1.
     999901    1    3    3    0    0  0.23173390224E-01  0.12369645055E+00 -0.67573663416E-01  0.89151781692E+00  0.88000000000E+00 0. -1.
        -11    1    4    4    0    0 -0.16372982320E-01 -0.40334704592E-01  0.97651684449E-02  0.44615945360E-01  0.51100000000E-03 0.  1.
         11    1    4    4    0    0 -0.98224572784E-02 -0.75768794900E-01  0.35910173662E-01  0.84422702166E-01  0.51100000000E-03 0. -1.
</event>
<event>
 8    1  0.1064839E+005  0.1043930E+01  0.7957747E-01            NaN
         13   -1    0    0    0    0  0.00000000000E+00  0.00000000000E+00  0.74505805969E-08  0.10566000000E+00  0.10566000000E+00 0.  1.
     999900   -1    0    0    0    0 -0.00000000000E+00 -0.00000000000E+00 -0.74505805969E-08  0.93827000000E+00  0.93827000000E+00 0.  1.
     999902    2    1    2    0    0 -0.24209280244E-01  0.15768406670E-01 -0.98035454793E-02  0.10134203064E+01  0.10129609450E+01 0.  0.
     999903    2    3    3    0    0 -0.50983940572E-01  0.68774266060E-01 -0.92502231118E-01  0.12755035198E+00  0.19574668818E-01 0.  0.
         14    1    1    2    0    0  0.24209280244E-01 -0.15768406670E-01  0.98035454793E-02  0.30509693587E-01  0.00000000000E+00 0. -1.
     999901    1    3    3    0    0  0.26774660328E-01 -0.53005859391E-01  0.82698685639E-01  0.88586995444E+00  0.88000000000E+00 0. -1.
        -11    1    4    4    0    0 -0.37178415837E-01  0.50579203293E-01 -0.54120521946E-01  0.82884150636E-01  0.51100000000E-03 0. -1.
         11    1    4    4    0    0 -0.13805524735E-01  0.18195062767E-01 -0.38381709172E-01  0.44666201342E-01  0.51100000000E-03 0.  1.
</event>
<event>
 8    1  0.1064839E+005  0.1043930E+01  0.7957747E-01            NaN
         13   -1    0    0    0    0  0.00000000000E+00  0.00000000000E+00  0.74505805969E-08  0.10566000000E+00  0.10566000000E+00 0.  1.
     999900   -1    0    0    0    0 -0.00000000000E+00 -0.00000000000E+00 -0.74505805969E-08  0.93827000000E+00  0.93827000000E+00 0.  1.
     999902    2    1    2    0    0 -0.46820593342E-02 -0.17346106739E-01  0.12629814275E-01  0.10219681852E+01  0.10217321813E+01 0.  0.
     999903    2    3    3    0    0  0.11348641887E+00  0.57389134785E-01  0.22202087302E-01  0.13087852984E+00  0.21530834488E-01 0.  0.
         14    1    1    2    0    0  0.46820593342E-02  0.17346106739E-01 -0.12629814275E-01  0.21961814753E-01  0.00000000000E+00 0. -1.
     999901    1    3    3    0    0 -0.11816847820E+00 -0.74735241524E-01 -0.95722730269E-02  0.89108965541E+00  0.88000000000E+00 0.  1.
        -11    1    4    4    0    0  0.49557521928E-01  0.15016241322E-01  0.14603158537E-01  0.53804728820E-01  0.51100000000E-03 0.  1.
         11    1    4    4    0    0  0.63928896938E-01  0.42372893463E-01  0.75989287650E-02  0.77073801019E-01  0.51100000000E-03 0. -1.
</event>
<event>
 8    1  0.1064839E+005  0.1043930E+01  0.7957747E-01            NaN
         13   -1    0    0    0    0  0.00000000000E+00  0.00000000000E+00  0.74505805969E-08  0.10566000000E+00  0.10566000000E+00 0.  1.
     999900   -1    0    0    0    0 -0.00000000000E+00 -0.00000000000E+00 -0.74505805969E-08  0.93827000000E+00  0.93827000000E+00 0.  1.
     999902    2    1    2    0    0 -0.87552393802E-03 -0.25231157634E-03 -0.12823117562E-01  0.10310745518E+01  0.10309944078E+01 0.  0.
     999903    2    3    3    0    0 -0.12537773090E+00  0.24720111189E-01 -0.55969854290E-01  0.14091385718E+00  0.19835101536E-01 0.  0.
         14    1    1    2    0    0  0.87552393802E-03  0.25231157634E-03  0.12823117562E-01  0.12855448157E-01  0.00000000000E+00 0.  1.
     999901    1    3    3    0    0  0.12450220696E+00 -0.24972422766E-01  0.43146736728E-01  0.89016069467E+00  0.88000000000E+00 0. -1.
        -11    1    4    4    0    0 -0.38251779094E-01  0.16893608725E-01 -0.19378632335E-01  0.46091052622E-01  0.51100000000E-03 0. -1.
         11    1    4    4    0    0 -0.87125951804E-01  0.78265024646E-02 -0.36591221955E-01  0.94822804555E-01  0.51100000000E-03 0.  1.
</event>
<event>
 8    1  0.1064839E+005  0.1043930E+01  0.7957747E-01            NaN
         13   -1    0    0    0    0  0.00000000000E+00  0.00000000000E+00  0.74505805969E-08  0.10566000000E+00  0.10566000000E+00 0. -1.
     999900   -1    0    0    0    0 -0.00000000000E+00 -0.00000000000E+00 -0.74505805969E-08  0.93827000000E+00  0.93827000000E+00 0. -1.
     999902    2    1    2    0    0 -0.46545108717E-02  0.23671606891E-01  0.74391455742E-03  0.10197936611E+01  0.10195079933E+01 0.  0.
     999903    2    3    3    0    0 -0.56793611325E-01 -0.70011337516E-01  0.89803921007E-01  0.12882415291E+00  0.20095185385E-01 0.  0.
         14    1    1    2    0    0  0.46545108717E-02 -0.23671606891E-01 -0.74391455742E-03  0.24136338851E-01  0.00000000000E+00 0.  1.
     999901    1    3    3    0    0  0.52139100454E-01  0.93682944407E-01 -0.89060006450E-01  0.89096950824E+00  0.88000000000E+00 0. -1.
        -11    1    4    4    0    0 -0.45270228014E-01 -0.47910058332E-01  0.54085386620E-01  0.85265804404E-01  0.51100000000E-03 0. -1.
         11    1    4    4    0    0 -0.11523383311E-01 -0.22101279184E-01  0.35718534387E-01  0.43558348502E-01  0.51100000000E-03 0.  1.
</event>
<event>
 8    1  0.1064839E+005  0.1043930E+01  0.7957747E-01            NaN
         13   -1    0    0    0    0  0.00000000000E+00  0.00000000000E+00  0.74505805969E-08  0.10566000000E+00  0.10566000000E+00 0.  1.
     999900   -1    0    0    0    0 -0.00000000000E+00 -0.00000000000E+00 -0.74505805969E-08  0.93827000000E+00  0.93827000000E+00 0. -1.
     999902    2    1    2    0    0 -0.17536544728E-01  0.39840353003E-02  0.14780230022E-01  0.10206521535E+01  0.10203866720E+01 0.  0.
     999903    2    3    3    0    0  0.17768978193E-01 -0.32115773246E-01 -0.12179633999E+00  0.12868643913E+00  0.19460002714E-01 0.  0.
         14    1    1    2    0    0  0.17536544728E-01 -0.39840353003E-02 -0.14780230022E-01  0.23277846502E-01  0.00000000000E+00 0. -1.
     999901    1    3    3    0    0 -0.35305522921E-01  0.36099808546E-01  0.13657657001E+00  0.89196571436E+00  0.88000000000E+00 0.  1.
        -11    1    4    4    0    0  0.16687996321E-02 -0.65445859086E-02 -0.54452046038E-01  0.54871695214E-01  0.51100000000E-03 0.  1.
         11    1    4    4    0    0  0.16100178561E-01 -0.25571187337E-01 -0.67344293948E-01  0.73814743919E-01  0.51100000000E-03 0. -1.
</event>
<event>
 8    1  0.1064839E+005  0.1043930E+01  0.7957747E-01            NaN
         13   -1    0    0    0    0  0.00000000000E+00  0.00000000000E+00  0.74505805969E-08  0.10566000000E+00  0.10566000000E+00 0.  1.
     999900   -1    0    0    0    0 -0.00000000000E+00 -0.00000000000E+00 -0.74505805969E-08  0.93827000000E+00  0.93827000000E+00 0. -1.
     999902    2    1    2    0    0  0.91635188885E-02 -0.11733686751E-02 -0.17358178296E-01  0.10242665002E+01  0.10240777364E+01 0.  0.
     999903    2    3    3    0    0  0.12556288640E+00  0.18045097058E-01 -0.44440242661E-01  0.13598073510E+00  0.20595173769E-01 0.  0.
         14    1    1    2    0    0 -0.91635188885E-02  0.11733686751E-02  0.17358178296E-01  0.19663499847E-01  0.00000000000E+00 0.  1.
     999901    1    3    3    0    0 -0.11639936751E+00 -0.19218465733E-01  0.27082064364E-01  0.88828576505E+00  0.88000000000E+00 0. -1.
        -11    1    4    4    0    0  0.80807732925E-01  0.15891659763E-02 -0.27622211140E-01  0.85414652246E-01  0.51100000000E-03 0.  1.
         11    1    4    4    0    0  0.44755153473E-01  0.16455931082E-01 -0.16818031521E-01  0.50566082856E-01  0.51100000000E-03 0. -1.
</event>
<event>
 8    1  0.1064839E+005  0.1043930E+01  0.7957747E-01            NaN
         13   -1    0    0    0    0  0.00000000000E+00  0.00000000000E+00  0.74505805969E-08  0.10566000000E+00  0.10566000000E+00 0.  1.
     999900   -1    0    0    0    0 -0.00000000000E+00 -0.00000000000E+00 -0.74505805969E-08  0.93827000000E+00  0.93827000000E+00 0.  1.
     999902    2    1    2    0    0  0.16255099901E-01  0.15996048157E-01  0.10718247786E-02  0.10210990859E+01  0.10208438140E+01 0.  0.
     999903    2    3    3    0    0  0.11785238298E+00  0.32893103760E-01 -0.49744907011E-01  0.13363649029E+00  0.20322778223E-01 0.  0.
         14    1    1    2    0    0 -0.16255099901E-01 -0.15996048157E-01 -0.10718247786E-02  0.22830914081E-01  0.00000000000E+00 0. -1.
     999901    1    3    3    0    0 -0.10159728307E+00 -0.16897055603E-01  0.50816731790E-01  0.88746259563E+00  0.88000000000E+00 0. -1.
        -11    1    4    4    0    0  0.58030864963E-01  0.18525890569E-01 -0.14088770975E-01  0.62526350432E-01  0.51100000000E-03 0.  1.
         11    1    4    4    0    0  0.59821518013E-01  0.14367213191E-01 -0.35656136036E-01  0.71110139855E-01  0.51100000000E-03 0. -1.
</event>
<event>
 8    1  0.1064839E+005  0.1043930E+01  0.7957747E-01            NaN
         13   -1    0    0    0    0  0.00000000000E+00  0.00000000000E+00  0.74505805969E-08  0.10566000000E+00  0.10566000000E+00 0. -1.
     999900   -1    0    0    0    0 -0.00000000000E+00 -0.00000000000E+00 -0.74505805969E-08  0.93827000000E+00  0.93827000000E+00 0. -1.
     999902    2    1    2    0    0  0.22044723206E-01  0.13273110315E-02 -0.36959040142E-02  0.10215382318E+01  0.10212927924E+01 0.  0.
     999903    2    3    3    0    0  0.10741135741E+00  0.62995894612E-01 -0.46344948400E-01  0.13423365197E+00  0.19108548894E-01 0.  0.
         14    1    1    2    0    0 -0.22044723206E-01 -0.13273110315E-02  0.36959040142E-02  0.22391768181E-01  0.00000000000E+00 0. -1.
     999901    1    3    3    0    0 -0.85366634201E-01 -0.61668583581E-01  0.42649044385E-01  0.88730457985E+00  0.88000000000E+00 0.  1.
        -11    1    4    4    0    0  0.54836476810E-01  0.28191635522E-01 -0.32406713665E-01  0.69658192009E-01  0.51100000000E-03 0. -1.
         11    1    4    4    0    0  0.52574880596E-01  0.34804259091E-01 -0.13938234734E-01  0.64575459960E-01  0.51100000000E-03 0.  1.
</event>
<event>
 8    1  0.1064839E+005  0.1043930E+01  0.7957747E-01            NaN
         13   -1    0    0    0    0  0.00000000000E+00  0.00000000000E+00  0.74505805969E-08  0.10566000000E+00  0.10566000000E+00 0. -1.
     999900   -1    0    0    0    0 -0.00000000000E+00 -0.00000000000E+00 -0.74505805969E-08  0.93827000000E+00  0.93827000000E+00 0.  1.
     999902    2    1    2    0    0  0.39039501300E-02 -0.13662087515E-01 -0.20633139971E-01  0.10188776563E+01  0.10185696140E+01 0.  0.
     999903    2    3    3    0    0 -0.15192876242E-01  0.10951865273E+00 -0.63652407299E-01  0.12905248191E+00  0.19435929276E-01 0.  0.
         14    1    1    2    0    0 -0.39039501300E-02  0.13662087515E-01  0.20633139971E-01  0.25052343741E-01  0.00000000000E+00 0. -1.
     999901    1    3    3    0    0  0.19096826372E-01 -0.12318074025E+00  0.43019267329E-01  0.88982517435E+00  0.88000000000E+00 0. -1.
        -11    1    4    4    0    0 -0.46735010978E-04  0.40724669217E-01 -0.14828457117E-01  0.43343340071E-01  0.51100000000E-03 0.  1.
         11    1    4    4    0    0 -0.15146141231E-01  0.68793983516E-01 -0.48823950183E-01  0.85709141838E-01  0.51100000000E-03 0. -1.
</event>
<event>
 8    1  0.1064839E+005  0.1043930E+01  0.7957747E-01            NaN
         13   -1    0    0    0    0  0.00000000000E+00  0.00000000000E+00  0.74505805969E-08  0.10566000000E+00  0.10566000000E+00 0.  1.
     999900   -1    0    0    0    0 -0.00000000000E+00 -0.00000000000E+00 -0.74505805969E-08  0.93827000000E+00  0.93827000000E+00 0.  1.
     999902    2    1    2    0    0  0.19302266450E-01  0.73832092268E-02  0.11100174794E-01  0.10204714589E+01  0.10202017915E+01 0.  0.
     999903    2    3    3    0    0  0.10464153850E+00  0.59756035330E-01  0.54312112322E-01  0.13373983335E+00  0.20393678921E-01 0.  0.
         14    1    1    2    0    0 -0.19302266450E-01 -0.73832092268E-02 -0.11100174794E-01  0.23458541068E-01  0.00000000000E+00 0. -1.
     999901    1    3    3    0    0 -0.85339272053E-01 -0.52372826103E-01 -0.43211937528E-01  0.88673162559E+00  0.88000000000E+00 0. -1.
        -11    1    4    4    0    0  0.31901814882E-01  0.21640606054E-01  0.77101531302E-02  0.39316017162E-01  0.51100000000E-03 0.  1.
         11    1    4    4    0    0  0.72739723621E-01  0.38115429275E-01  0.46601959192E-01  0.94423816185E-01  0.51100000000E-03 0. -1.
</event>
<event>
 8    1  0.1064839E+005  0.1043930E+01  0.7957747E-01            NaN
         13   -1    0    0    0    0  0.00000000000E+00  0.00000000000E+00  0.74505805969E-08  0.10566000000E+00  0.10566000000E+00 0.  1.
     999900   -1    0    0    0    0 -0.00000000000E+00 -0.00000000000E+00 -0.74505805969E-08  0.93827000000E+00  0.93827000000E+00 0.  1.
     999902    2    1    2    0    0 -0.12339848693E-01  0.28088616024E-02  0.25825953956E-01  0.10151699328E+01  0.10147624603E+01 0.  0.
     999903    2    3    3    0    0 -0.21758674814E-01 -0.10281815166E+00  0.68950403776E-01  0.12775486732E+00  0.22850288924E-01 0.  0.
         14    1    1    2    0    0  0.12339848693E-01 -0.28088616024E-02 -0.25825953956E-01  0.28760067229E-01  0.00000000000E+00 0. -1.
     999901    1    3    3    0    0  0.94188261202E-02  0.10562701326E+00 -0.43124449820E-01  0.88741506545E+00  0.88000000000E+00 0.  1.
        -11    1    4    4    0    0  0.14856534408E-02 -0.28649754492E-01  0.10700338843E-01  0.30623095385E-01  0.51100000000E-03 0.  1.
         11    1    4    4    0    0 -0.23244328254E-01 -0.74168397163E-01  0.58250064933E-01  0.97131771936E-01  0.51100000000E-03 0. -1.
</event>
<event>
 8    1  0.1064839E+005  0.1043930E+01  0.7957747E-01            NaN
         13   -1    0    0    0    0  0.00000000000E+00  0.00000000000E+00  0.74505805969E-08  0.10566000000E+00  0.10566000000E+00 0. -1.
     999900   -1    0    0    0    0 -0.00000000000E+00 -0.00000000000E+00 -0.74505805969E-08  0.93827000000E+00  0.93827000000E+00 0.  1.
     999902    2    1    2    0    0  0.20830228123E-01  0.82053511792E-02 -0.30705129041E-02  0.10213323399E+01  0.10210823152E+01 0.  0.
     999903    2    3    3    0    0  0.56870801431E-01  0.28504428773E-01  0.11224720425E+00  0.13284533868E+00  0.31648991011E-01 0.  0.
         14    1    1    2    0    0 -0.20830228123E-01 -0.82053511792E-02  0.30705129041E-02  0.22597660080E-01  0.00000000000E+00 0. -1.
     999901    1    3    3    0    0 -0.36040573308E-01 -0.20299077594E-01 -0.11531771716E+00  0.88848700124E+00  0.88000000000E+00 0.  1.
        -11    1    4    4    0    0  0.14636412223E-01  0.13206425486E-01  0.63789581561E-01  0.66768301414E-01  0.51100000000E-03 0. -1.
         11    1    4    4    0    0  0.42234389208E-01  0.15298003287E-01  0.48457622692E-01  0.66077037270E-01  0.51100000000E-03 0.  1.
</event>
<event>
 8    1  0.1064839E+005  0.1043930E+01  0.7957747E-01            NaN
         13   -1    0    0    0    0  0.00000000000E+00  0.00000000000E+00  0.74505805969E-08  0.10566000000E+00  0.10566000000E+00 0.  1.
     999900   -1    0    0    0    0 -0.00000000000E+00 -0.00000000000E+00 -0.74505805969E-08  0.93827000000E+00  0.93827000000E+00 0.  1.
     999902    2    1    2    0    0 -0.14193519677E-01  0.18828013203E-02 -0.18479073416E-01  0.10205531504E+01  0.10202853796E+01 0.  0.
     999903    2    3    3    0    0  0.61411064279E-01 -0.26333273693E-01 -0.11203705647E+00  0.13192201424E+00  0.19655932980E-01 0.  0.
         14    1    1    2    0    0  0.14193519677E-01 -0.18828013203E-02  0.18479073416E-01  0.23376849573E-01  0.00000000000E+00 0.  1.
     999901    1    3    3    0    0 -0.75604583955E-01  0.28216075013E-01  0.93557983049E-01  0.88863113618E+00  0.88000000000E+00 0. -1.
        -11    1    4    4    0    0  0.33810256540E-01 -0.38613008513E-02 -0.56357232053E-01  0.65836477862E-01  0.51100000000E-03 0. -1.
         11    1    4    4    0    0  0.27600807739E-01 -0.22471972842E-01 -0.55679824412E-01  0.66085536381E-01  0.51100000000E-03 0.  1.
</event>
<event>
 8    1  0.1064839E+005  0.1043930E+01  0.7957747E-01            NaN
         13   -1    0    0    0    0  0.00000000000E+00  0.00000000000E+00  0.74505805969E-08  0.10566000000E+00  0.10566000000E+00 0.  1.
     999900   -1    0    0    0    0 -0.00000000000E+00 -0.00000000000E+00 -0.74505805969E-08  0.93827000000E+00  0.93827000000E+00 0.  1.
     999902    2    1    2    0    0  0.21721075941E-01  0.68288426217E-02  0.84918529392E-02  0.10196287696E+01  0.10193391379E+01 0.  0.
     999903    2    3    3    0    0 -0.10641870033E+00  0.68005833542E-01 -0.25712396404E-02  0.12817780715E+00  0.21753293931E-01 0.  0.
         14    1    1    2    0    0 -0.21721075941E-01 -0.68288426217E-02 -0.84918529392E-02  0.24301230379E-01  0.00000000000E+00 0. -1.
     999901    1    3    3    0    0  0.12813977627E+00 -0.61176990921E-01  0.11063092580E-01  0.89145096247E+00  0.88000000000E+00 0.  1.
        -11    1    4    4    0    0 -0.82560120903E-01  0.51475197238E-01 -0.11088574081E-01  0.97923884167E-01  0.51100000000E-03 0.  1.
         11    1    4    4    0    0 -0.23858579422E-01  0.16530636304E-01  0.85173344403E-02  0.30253922980E-01  0.51100000000E-03 0. -1.
</event>
<event>
 8    1  0.1064839E+005  0.1043930E+01  0.7957747E-01            NaN
         13   -1    0    0    0    0  0.00000000000E+00  0.00000000000E+00  0.74505805969E-08  0.10566000000E+00  0.10566000000E+00 0. -1.
     999900   -1    0    0    0    0 -0.00000000000E+00 -0.00000000000E+00 -0.74505805969E-08  0.93827000000E+00  0.93827000000E+00 0.  1.
     999902    2    1    2    0    0 -0.17614105308E-01 -0.16767656561E-01  0.33422486554E-02  0.10193824617E+01  0.10190868567E+01 0.  0.
     999903    2    3    3    0    0 -0.12226652446E+00  0.43025628335E-01 -0.38496341691E-02  0.13113751294E+00  0.19542771524E-01 0.  0.
         14    1    1    2    0    0  0.17614105308E-01  0.16767656561E-01 -0.33422486554E-02  0.24547538337E-01  0.00000000000E+00 0. -1.
     999901    1    3    3    0    0  0.10465241916E+00 -0.59793284896E-01  0.71918828245E-02  0.88824494872E+00  0.88000000000E+00 0. -1.
        -11    1    4    4    0    0 -0.28303279089E-01  0.18415793059E-02 -0.31431065096E-02  0.28541325496E-01  0.51100000000E-03 0. -1.
         11    1    4    4    0    0 -0.93963245374E-01  0.41184049029E-01 -0.70652765943E-03  0.10259618744E+00  0.51100000000E-03 0.  1.
</event>
<event>
 8    1  0.1064839E+005  0.1043930E+01  0.7957747E-01            NaN
         13   -1    0    0    0    0  0.00000000000E+00  0.00000000000E+00  0.74505805969E-08  0.10566000000E+00  0.10566000000E+00 0. -1.
     999900   -1    0    0    0    0 -0.00000000000E+00 -0.00000000000E+00 -0.74505805969E-08  0.93827000000E+00  0.93827000000E+00 0. -1.
     999902    2    1    2    0    0  0.60789976127E-02 -0.22544652325E-01 -0.15487417311E-02  0.10205288427E+01  0.10202605082E+01 0.  0.
     999903    2    3    3    0    0 -0.16081814181E-01 -0.63853907426E-01 -0.11322297817E+00  0.13223345762E+00  0.18174110365E-01 0.  0.
         14    1    1    2    0    0 -0.60789976127E-02  0.22544652325E-01  0.15487417311E-02  0.23401157266E-01  0.00000000000E+00 0. -1.
     999901    1    3    3    0    0  0.22160811794E-01  0.41309255101E-01  0.11167423644E+00  0.88829538512E+00  0.88000000000E+00 0.  1.
        -11    1    4    4    0    0 -0.78133950747E-02 -0.26938796053E-01 -0.66067662727E-01  0.71777051030E-01  0.51100000000E-03 0. -1.
         11    1    4    4    0    0 -0.82684191065E-02 -0.36915111373E-01 -0.47155315440E-01  0.60456406587E-01  0.51100000000E-03 0.  1.
</event>
<event>
 8    1  0.1064839E+005  0.1043930E+01  0.7957747E-01            NaN
         13   -1    0    0    0    0  0.00000000000E+00  0.00000000000E+00  0.74505805969E-08  0.10566000000E+00  0.10566000000E+00 0.  1.
     999900   -1    0    0    0    0 -0.00000000000E+00 -0.00000000000E+00 -0.74505805969E-08  0.93827000000E+00  0.93827000000E+00 0. -1.
     999902    2    1    2    0    0 -0.17942966489E-01 -0.34607940694E-02  0.12860562785E-01  0.10215845034E+01  0.10213400885E+01 0.  0.
     999903    2    3    3    0    0 -0.11430531170E+00 -0.56011265340E-01 -0.34863277103E-01  0.13348269704E+00  0.19980395202E-01 0.  0.
         14    1    1    2    0    0  0.17942966489E-01  0.34607940694E-02 -0.12860562785E-01  0.22345496574E-01  0.00000000000E+00 0. -1.
     999901    1    3    3    0    0  0.96362345209E-01  0.52550471270E-01  0.47723839888E-01  0.88810180638E+00  0.88000000000E+00 0.  1.
        -11    1    4    4    0    0 -0.10137118865E+00 -0.50946418279E-01 -0.37179741354E-01  0.11939116262E+00  0.51100000000E-03 0. -1.
         11    1    4    4    0    0 -0.12934123052E-01 -0.50648470606E-02  0.23164642507E-02  0.14091534427E-01  0.51100000000E-03 0.  1.
</event>
<event>
 8    1  0.1064839E+005  0.1043930E+01  0.7957747E-01            NaN
         13   -1    0    0    0    0  0.00000000000E+00  0.00000000000E+00  0.74505805969E-08  0.10566000000E+00  0.10566000000E+00 0.  1.
     999900   -1    0    0    0    0 -0.00000000000E+00 -0.00000000000E+00 -0.74505805969E-08  0.93827000000E+00  0.93827000000E+00 0.  1.
     999902    2    1    2    0    0 -0.15517563358E-01 -0.51324051005E-02  0.17673283493E-01  0.10198575821E+01  0.10195734434E+01 0.  0.
     999903    2    3    3    0    0  0.45467329095E-01 -0.11769949703E+00  0.26776458620E-01  0.13054696420E+00  0.20126636842E-01 0.  0.
         14    1    1    2    0    0  0.15517563358E-01  0.51324051005E-02 -0.17673283493E-01  0.24072417911E-01  0.00000000000E+00 0. -1.
     999901    1    3    3    0    0 -0.60984892453E-01  0.11256709192E+00 -0.91031751273E-02  0.88931061789E+00  0.88000000000E+00 0.  1.
        -11    1    4    4    0    0  0.35504281633E-02 -0.17680445183E-01 -0.25078393167E-02  0.18214117082E-01  0.51100000000E-03 0.  1.
         11    1    4    4    0    0  0.41916900932E-01 -0.10001905184E+00  0.29284297937E-01  0.11233284712E+00  0.51100000000E-03 0. -1.
</event>
<event>
 8    1  0.1064839E+005  0.1043930E+01  0.7957747E-01            NaN
         13   -1    0    0    0    0  0.00000000000E+00  0.00000000000E+00  0.74505805969E-08  0.10566000000E+00  0.10566000000E+00 0.  1.
     999900   -1    0    0    0    0 -0.00000000000E+00 -0.00000000000E+00 -0.74505805969E-08  0.93827000000E+00  0.93827000000E+00 0. -1.
     999902    2    1    2    0    0  0.19264343513E-01 -0.45379159282E-02  0.12506885966E-01  0.10205178278E+01  0.10202492377E+01 0.  0.
     999903    2    3    3    0    0  0.52335784112E-01  0.25340356985E-01 -0.11506102909E+00  0.13020327418E+00  0.18239632706E-01 0.  0.
         14    1    1    2    0    0 -0.19264343513E-01  0.45379159282E-02 -0.12506885966E-01  0.23412172230E-01  0.00000000000E+00 0. -1.
     999901    1    3    3    0    0 -0.33071440600E-01 -0.29878272914E-01  0.12756791506E+00  0.89031455359E+00  0.88000000000E+00 0.  1.
        -11    1    4    4    0    0  0.37723875466E-02  0.42539597525E-02 -0.25771154425E-01  0.26395844423E-01  0.51100000000E-03 0. -1.
         11    1    4    4    0    0  0.48563396566E-01  0.21086397233E-01 -0.89289874668E-01  0.10380742976E+00  0.51100000000E-03 0.  1.
</event>
<event>
 8    1  0.1064839E+005  0.1043930E+01  0.7957747E-01            NaN
         13   -1    0    0    0    0  0.00000000000E+00  0.00000000000E+00  0.74505805969E-08  0.10566000000E+00  0.10566000000E+00 0. -1.
     999900   -1    0    0    0    0 -0.00000000000E+00 -0.00000000000E+00 -0.74505805969E-08  0.93827000000E+00  0.93827000000E+00 0. -1.
     999902    2    1    2    0    0  0.15014297024E-01 -0.18719272125E-01 -0.12475516734E-02  0.10199009208E+01  0.10196178164E+01 0.  0.
     999903    2    3    3    0    0 -0.73004835331E-01 -0.33981707845E-01 -0.99995924321E-01  0.12988319582E+00  0.19646812108E-01 0.  0.
         14    1    1    2    0    0 -0.15014297024E-01  0.18719272125E-01  0.12475516734E-02  0.24029079241E-01  0.00000000000E+00 0. -1.
     999901    1    3    3    0    0  0.88019132355E-01  0.15262435720E-01  0.98748372647E-01  0.89001772494E+00  0.88000000000E+00 0.  1.
        -11    1    4    4    0    0 -0.26784678724E-01 -0.16310135905E-01 -0.53303056294E-01  0.61845909152E-01  0.51100000000E-03 0.  1.
         11    1    4    4    0    0 -0.46220156607E-01 -0.17671571940E-01 -0.46692868027E-01  0.68037286668E-01  0.51100000000E-03 0. -1.
</event>
<event>
 8    1  0.1064839E+005  0.1043930E+01  0.7957747E-01            NaN
         13   -1    0    0    0    0  0.00000000000E+00  0.00000000000E+00  0.74505805969E-08  0.10566000000E+00  0.10566000000E+00 0. -1.
     999900   -1    0    0    0    0 -0.00000000000E+00 -0.00000000000E+00 -0.74505805969E-08  0.93827000000E+00  0.93827000000E+00 0. -1.
     999902    2    1    2    0    0 -0.21283624107E-01 -0.74676910417E-02  0.77221392917E-02  0.10200890583E+01  0.10198104218E+01 0.  0.
     999903    2    3    3    0    0 -0.11729480988E+00 -0.32894715640E-01  0.48896000293E-01  0.13354522512E+00  0.24563663492E-01 0.  0.
         14    1    1    2    0    0  0.21283624107E-01  0.74676910417E-02 -0.77221392917E-02  0.23840941674E-01  0.00000000000E+00 0.  1.
     999901    1    3    3    0    0  0.96011185775E-01  0.25427024599E-01 -0.41173861002E-01  0.88654383321E+00  0.88000000000E+00 0. -1.
        -11    1    4    4    0    0 -0.32937160921E-01 -0.19850308450E-01  0.99946840742E-02  0.39737213614E-01  0.51100000000E-03 0.  1.
         11    1    4    4    0    0 -0.84357648962E-01 -0.13044407190E-01  0.38901316219E-01  0.93808011502E-01  0.51100000000E-03 0. -1.
</event>
<event>
 8    1  0.1064839E+005  0.1043930E+01  0.7957747E-01            NaN
         13   -1    0    0    0    0  0.00000000000E+00  0.00000000000E+00  0.74505805969E-08  0.10566000000E+00  0.10566000000E+00 0. -1.
     999900   -1    0    0    0    0 -0.00000000000E+00 -0.00000000000E+00 -0.74505805969E-08  0.93827000000E+00  0.93827000000E+00 0. -1.
     999902    2    1    2    0    0  0.30666370359E-02 -0.18050282178E-01 -0.16656840646E-01  0.10191778831E+01  0.10188772694E+01 0.  0.
     999903    2    3    3    0    0  0.10863740472E+00 -0.11521466103E-01 -0.69732585527E-01  0.13125623843E+00  0.20754198537E-01 0.  0.
         14    1    1    2    0    0 -0.30666370359E-02  0.18050282178E-01  0.16656840646E-01  0.24752116874E-01  0.00000000000E+00 0. -1.
     999901    1    3    3    0    0 -0.10557076768E+00 -0.65288160755E-02  0.53075744880E-01  0.88792164470E+00  0.88000000000E+00 0.  1.
        -11    1    4    4    0    0  0.67621298094E-01 -0.17102165390E-01 -0.41829601949E-01  0.81333269559E-01  0.51100000000E-03 0.  1.
         11    1    4    4    0    0  0.41016106625E-01  0.55806992871E-02 -0.27902983577E-01  0.49922968869E-01  0.51100000000E-03 0. -1.
</event>
<event>
 8    1  0.1064839E+005  0.1043930E+01  0.7957747E-01            NaN
         13   -1    0    0    0    0  0.00000000000E+00  0.00000000000E+00  0.74505805969E-08  0.10566000000E+00  0.10566000000E+00 0. -1.
     999900   -1    0    0    0    0 -0.00000000000E+00 -0.00000000000E+00 -0.74505805969E-08  0.93827000000E+00  0.93827000000E+00 0. -1.
     999902    2    1    2    0    0 -0.14293708264E-01 -0.17231580050E-02  0.20772183998E-01  0.10186562390E+01  0.10183426585E+01 0.  0.
     999903    2    3    3    0    0 -0.16694285759E-01 -0.12691518344E+00 -0.14257545425E-03  0.12954644080E+00  0.19902186591E-01 0.  0.
         14    1    1    2    0    0  0.14293708264E-01  0.17231580050E-02 -0.20772183998E-01  0.25273761048E-01  0.00000000000E+00 0.  1.
     999901    1    3    3    0    0  0.24005774952E-02  0.12519202544E+00  0.20914759452E-01  0.88910979815E+00  0.88000000000E+00 0.  1.
        -11    1    4    4    0    0  0.26696965093E-02 -0.52199598786E-01  0.23149039888E-02  0.52321556689E-01  0.51100000000E-03 0. -1.
         11    1    4    4    0    0 -0.19363982269E-01 -0.74715584657E-01 -0.24574794430E-02  0.77224884113E-01  0.51100000000E-03 0.  1.
</event>
<event>
 7    1  0.1064839E+005  0.1043930E+01  0.7957747E-01            NaN
         13   -1    0    0    0    0  0.00000000000E+00  0.00000000000E+00  0.74505805969E-08  0.10566000000E+00  0.10566000000E+00 0. -1.
     999900   -1    0    0    0    0 -0.00000000000E+00 -0.00000000000E+00 -0.74505805969E-08  0.93827000000E+00  0.93827000000E+00 0.  1.
     999903    2    1    2    0    0  0.39619503228E-01  0.93474346005E-01 -0.50046356622E-01  0.11478138137E+00  0.19051753200E-01 0.  0.
         14    1    1    2    0    0  0.28651142189E-01  0.58733689105E-02  0.28251240557E-01  0.40663460307E-01  0.00000000000E+00 0. -1.
     999901    1    1    2    0    0 -0.68270645417E-01 -0.99347714915E-01  0.21795116065E-01  0.88848515833E+00  0.88000000000E+00 0. -1.
        -11    1    3    3    0    0  0.23836269370E-01  0.33392360117E-01 -0.16960369969E-01  0.44397440491E-01  0.51100000000E-03 0.  1.
         11    1    3    3    0    0  0.15783233857E-01  0.60081985888E-01 -0.33085986653E-01  0.70383940874E-01  0.51100000000E-03 0. -1.
</event>
<event>
 8    1  0.1064839E+005  0.1043930E+01  0.7957747E-01            NaN
         13   -1    0    0    0    0  0.00000000000E+00  0.00000000000E+00  0.74505805969E-08  0.10566000000E+00  0.10566000000E+00 0.  1.
     999900   -1    0    0    0    0 -0.00000000000E+00 -0.00000000000E+00 -0.74505805969E-08  0.93827000000E+00  0.93827000000E+00 0.  1.
     999902    2    1    2    0    0  0.54959269363E-02 -0.16700052209E-01 -0.15763869910E-01  0.10203165176E+01  0.10200432341E+01 0.  0.
     999903    2    3    3    0    0  0.20540775747E-01  0.80499351602E-01 -0.99226908386E-01  0.13091213804E+00  0.19746884888E-01 0.  0.
         14    1    1    2    0    0 -0.54959269363E-02  0.16700052209E-01  0.15763869910E-01  0.23613482403E-01  0.00000000000E+00 0.  1.
     999901    1    3    3    0    0 -0.15044848811E-01 -0.97199403811E-01  0.83463038476E-01  0.88940437955E+00  0.88000000000E+00 0.  1.
        -11    1    4    4    0    0 -0.24281702762E-02  0.15087538939E-01 -0.11693715085E-01  0.19249258053E-01  0.51100000000E-03 0.  1.
         11    1    4    4    0    0  0.22968946023E-01  0.65411812663E-01 -0.87533193301E-01  0.11166287999E+00  0.51100000000E-03 0. -1.
</event>
<event>
 8    1  0.1064839E+005  0.1043930E+01  0.7957747E-01            NaN
         13   -1    0    0    0    0  0.00000000000E+00  0.00000000000E+00  0.74505805969E-08  0.10566000000E+00  0.10566000000E+00 0. -1.
     999900   -1    0    0    0    0 -0.00000000000E+00 -0.00000000000E+00 -0.74505805969E-08  0.93827000000E+00  0.93827000000E+00 0.  1.
     999902    2    1    2    0    0 -0.81739401149E-02 -0.21312857268E-01 -0.39371614779E-02  0.10207663988E+01  0.10205035465E+01 0.  0.
     999903    2    3    3    0    0  0.89550620046E-02 -0.25315122288E-01  0.12662604560E+00  0.13095958159E+00  0.19879839874E-01 0.  0.
         14    1    1    2    0    0  0.81739401149E-02  0.21312857268E-01  0.39371614779E-02  0.23163601241E-01  0.00000000000E+00 0. -1.
     999901    1    3    3    0    0 -0.17129002120E-01  0.40022650199E-02 -0.13056320708E+00  0.88980681717E+00  0.88000000000E+00 0.  1.
        -11    1    4    4    0    0 -0.38359608636E-02 -0.52015444365E-03  0.33946517052E-01  0.34170342365E-01  0.51100000000E-03 0.  1.
         11    1    4    4    0    0  0.12791022868E-01 -0.24794967844E-01  0.92679528550E-01  0.96789239224E-01  0.51100000000E-03 0. -1.
</event>
<event>
 8    1  0.1105421E+005  0.1043930E+01  0.7957747E-01            NaN
         13   -1    0    0    0    0  0.00000000000E+00  0.00000000000E+00  0.74505805969E-08  0.10566000000E+00  0.10566000000E+00 0. -1.
     999900   -1    0    0    0    0 -0.00000000000E+00 -0.00000000000E+00 -0.74505805969E-08  0.93827000000E+00  0.93827000000E+00 0. -1.
     999902    2    1    2    0    0 -0.16922874857E-01  0.73607289745E-03  0.15793431762E-01  0.10207705962E+01  0.10205078403E+01 0.  0.
     999903    2    3    3    0    0 -0.31981431455E-01 -0.44006558076E-01 -0.11638558339E+00  0.12964773421E+00  0.17422452556E-01 0.  0.
         14    1    1    2    0    0  0.16922874857E-01 -0.73607289745E-03 -0.15793431762E-01  0.23159403783E-01  0.00000000000E+00 0.  1.
     999901    1    3    3    0    0  0.15058556598E-01  0.44742630974E-01  0.13217901515E+00  0.89112286201E+00  0.88000000000E+00 0.  1.
        -11    1    4    4    0    0 -0.24952665852E-01 -0.28583239003E-01 -0.62103837934E-01  0.72779014091E-01  0.51100000000E-03 0. -1.
         11    1    4    4    0    0 -0.70287656031E-02 -0.15423319073E-01 -0.54281745452E-01  0.56868720115E-01  0.51100000000E-03 0.  1.
</event>
<event>
 8    1  0.1064839E+005  0.1043930E+01  0.7957747E-01            NaN
         13   -1    0    0    0    0  0.00000000000E+00  0.00000000000E+00  0.74505805969E-08  0.10566000000E+00  0.10566000000E+00 0. -1.
     999900   -1    0    0    0    0 -0.00000000000E+00 -0.00000000000E+00 -0.74505805969E-08  0.93827000000E+00  0.93827000000E+00 0.  1.
     999902    2    1    2    0    0 -0.20587968710E-01 -0.11300944720E-01 -0.16464157490E-02  0.10203867103E+01  0.10201150680E+01 0.  0.
     999903    2    3    3    0    0  0.36649219173E-01 -0.61946737292E-01 -0.10706294370E+00  0.13080605829E+00  0.21614519316E-01 0.  0.
         14    1    1    2    0    0  0.20587968710E-01  0.11300944720E-01  0.16464157490E-02  0.23543289745E-01  0.00000000000E+00 0. -1.
     999901    1    3    3    0    0 -0.57237187883E-01  0.50645792572E-01  0.10541652795E+00  0.88958065196E+00  0.88000000000E+00 0. -1.
        -11    1    4    4    0    0  0.64312371027E-02 -0.24523237886E-01 -0.50842388131E-01  0.56815134947E-01  0.51100000000E-03 0. -1.
         11    1    4    4    0    0  0.30217982070E-01 -0.37423499405E-01 -0.56220555569E-01  0.73990923346E-01  0.51100000000E-03 0.  1.
</event>
<event>
 8    1  0.1064839E+005  0.1043930E+01  0.7957747E-01            NaN
         13   -1    0    0    0    0  0.00000000000E+00  0.00000000000E+00  0.74505805969E-08  0.10566000000E+00  0.10566000000E+00 0. -1.
     999900   -1    0    0    0    0 -0.00000000000E+00 -0.00000000000E+00 -0.74505805969E-08  0.93827000000E+00  0.93827000000E+00 0.  1.
     999902    2    1    2    0    0  0.55726975436E-02 -0.91459792243E-02  0.20924990772E-01  0.10204234236E+01  0.10201526378E+01 0.  0.
     999903    2    3    3    0    0  0.35160457366E-01 -0.12548327182E+00  0.92412543156E-02  0.13219692612E+00  0.20206860869E-01 0.  0.
         14    1    1    2    0    0 -0.55726975436E-02  0.91459792243E-02 -0.20924990772E-01  0.23506576371E-01  0.00000000000E+00 0.  1.
     999901    1    3    3    0    0 -0.29587759823E-01  0.11633729259E+00  0.11683736456E-01  0.88822649751E+00  0.88000000000E+00 0.  1.
        -11    1    4    4    0    0  0.19836789340E-02 -0.38001709504E-01 -0.10394552582E-02  0.38071071637E-01  0.51100000000E-03 0.  1.
         11    1    4    4    0    0  0.33176778432E-01 -0.87481562313E-01  0.10280709574E-01  0.94125854483E-01  0.51100000000E-03 0. -1.
</event>
<event>
 8    1  0.1064839E+005  0.1043930E+01  0.7957747E-01            NaN
         13   -1    0    0    0    0  0.00000000000E+00  0.00000000000E+00  0.74505805969E-08  0.10566000000E+00  0.10566000000E+00 0.  1.
     999900   -1    0    0    0    0 -0.00000000000E+00 -0.00000000000E+00 -0.74505805969E-08  0.93827000000E+00  0.93827000000E+00 0.  1.
     999902    2    1    2    0    0  0.10112943251E-01 -0.10414857269E-01  0.18184062659E-01  0.10206619746E+01  0.10203967196E+01 0.  0.
     999903    2    3    3    0    0  0.12975174937E+00  0.12801044091E-01  0.72320988788E-02  0.13219567384E+00  0.20591496611E-01 0.  0.
         14    1    1    2    0    0 -0.10112943251E-01  0.10414857269E-01 -0.18184062659E-01  0.23268025441E-01  0.00000000000E+00 0. -1.
     999901    1    3    3    0    0 -0.11963880612E+00 -0.23215901361E-01  0.10951963780E-01  0.88846630072E+00  0.88000000000E+00 0. -1.
        -11    1    4    4    0    0  0.93693077308E-01  0.80568609484E-04  0.32790000513E-02  0.93751864990E-01  0.51100000000E-03 0.  1.
         11    1    4    4    0    0  0.36058672064E-01  0.12720475482E-01  0.39530988275E-02  0.38443808849E-01  0.51100000000E-03 0. -1.
</event>
<event>
 8    1  0.1064839E+005  0.1043930E+01  0.7957747E-01            NaN
         13   -1    0    0    0    0  0.00000000000E+00  0.00000000000E+00  0.74505805969E-08  0.10566000000E+00  0.10566000000E+00 0.  1.
     999900   -1    0    0    0    0 -0.00000000000E+00 -0.00000000000E+00 -0.74505805969E-08  0.93827000000E+00  0.93827000000E+00 0.  1.
     999902    2    1    2    0    0  0.21076189322E-01  0.25262210076E-01  0.11763438527E-01  0.10089905738E+01  0.10083854494E+01 0.  0.
     999903    2    3    3    0    0 -0.73289990394E-01  0.91941859952E-01  0.22893090767E-01  0.12136733128E+00  0.19524527989E-01 0.  0.
         14    1    1    2    0    0 -0.21076189322E-01 -0.25262210076E-01 -0.11763438527E-01  0.34939426158E-01  0.00000000000E+00 0.  1.
     999901    1    3    3    0    0  0.94366179716E-01 -0.66679649876E-01 -0.11129652240E-01  0.88762324256E+00  0.88000000000E+00 0. -1.
        -11    1    4    4    0    0 -0.33398038610E-01  0.39968412521E-01  0.19961019425E-01  0.55781774801E-01  0.51100000000E-03 0.  1.
         11    1    4    4    0    0 -0.39891951784E-01  0.51973447431E-01  0.29320713417E-02  0.65585556476E-01  0.51100000000E-03 0. -1.
</event>
<event>
 8    1  0.1064839E+005  0.1043930E+01  0.7957747E-01            NaN
         13   -1    0    0    0    0  0.00000000000E+00  0.00000000000E+00  0.74505805969E-08  0.10566000000E+00  0.10566000000E+00 0.  1.
     999900   -1    0    0    0    0 -0.00000000000E+00 -0.00000000000E+00 -0.74505805969E-08  0.93827000000E+00  0.93827000000E+00 0.  1.
     999902    2    1    2    0    0  0.16504530413E-01  0.17463263100E-01  0.88933809781E-03  0.10198851252E+01  0.10196016441E+01 0.  0.
     999903    2    3    3    0    0  0.40943559857E-01  0.25291596952E-01 -0.12029261965E+00  0.13120992251E+00  0.20728952047E-01 0.  0.
         14    1    1    2    0    0 -0.16504530413E-01 -0.17463263100E-01 -0.88933809781E-03  0.24044874808E-01  0.00000000000E+00 0.  1.
     999901    1    3    3    0    0 -0.24439029444E-01 -0.78283338512E-02  0.12118195775E+00  0.88867520268E+00  0.88000000000E+00 0. -1.
        -11    1    4    4    0    0  0.29988404819E-01  0.10503936845E-01 -0.93072469055E-01  0.98348272632E-01  0.51100000000E-03 0.  1.
         11    1    4    4    0    0  0.10955155038E-01  0.14787660107E-01 -0.27220150599E-01  0.32861649882E-01  0.51100000000E-03 0. -1.
</event>
<event>
 8    1  0.1064839E+005  0.1043930E+01  0.7957747E-01            NaN
         13   -1    0    0    0    0  0.00000000000E+00  0.00000000000E+00  0.74505805969E-08  0.10566000000E+00  0.10566000000E+00 0. -1.
     999900   -1    0    0    0    0 -0.00000000000E+00 -0.00000000000E+00 -0.74505805969E-08  0.93827000000E+00  0.93827000000E+00 0. -1.
     999902    2    1    2    0    0 -0.24548165673E-02  0.19721694895E-01  0.11700415742E-01  0.10208676692E+01  0.10206071364E+01 0.  0.
     999903    2    3    3    0    0  0.62713445131E-01  0.74761799367E-01 -0.85363587227E-01  0.13143091702E+00  0.21560173472E-01 0.  0.
         14    1    1    2    0    0  0.24548165673E-02 -0.19721694895E-01 -0.11700415742E-01  0.23062330811E-01  0.00000000000E+00 0.  1.
     999901    1    3    3    0    0 -0.65168261699E-01 -0.55040104473E-01  0.97064002969E-01  0.88943675217E+00  0.88000000000E+00 0.  1.
        -11    1    4    4    0    0  0.41999947704E-01  0.64022037893E-01 -0.66707741371E-01  0.10155294591E+00  0.51100000000E-03 0. -1.
         11    1    4    4    0    0  0.20713497428E-01  0.10739761475E-01 -0.18655845856E-01  0.29877971113E-01  0.51100000000E-03 0.  1.
</event>
<event>
 8    1  0.1064839E+005  0.1043930E+01  0.7957747E-01            NaN
         13   -1    0    0    0    0  0.00000000000E+00  0.00000000000E+00  0.74505805969E-08  0.10566000000E+00  0.10566000000E+00 0.  1.
     999900   -1    0    0    0    0 -0.00000000000E+00 -0.00000000000E+00 -0.74505805969E-08  0.93827000000E+00  0.93827000000E+00 0. -1.
     999902    2    1    2    0    0  0.43677676197E-02  0.11492519714E-01  0.18226398692E-01  0.10219446182E+01  0.10217081020E+01 0.  0.
     999903    2    3    3    0    0 -0.76395593466E-01  0.53196012340E-01 -0.89525945632E-01  0.13072496543E+00  0.20199485505E-01 0.  0.
         14    1    1    2    0    0 -0.43677676197E-02 -0.11492519714E-01 -0.18226398692E-01  0.21985381794E-01  0.00000000000E+00 0. -1.
     999901    1    3    3    0    0  0.80763361086E-01 -0.41703492626E-01  0.10775234432E+00  0.89121965278E+00  0.88000000000E+00 0.  1.
        -11    1    4    4    0    0 -0.43642402886E-01  0.19492634250E-01 -0.51540947581E-01  0.70294754557E-01  0.51100000000E-03 0.  1.
         11    1    4    4    0    0 -0.32753190580E-01  0.33703378090E-01 -0.37984998051E-01  0.60430210870E-01  0.51100000000E-03 0. -1.
</event>
<event>
 8    1  0.1064839E+005  0.1043930E+01  0.7957747E-01            NaN
         13   -1    0    0    0    0  0.00000000000E+00  0.00000000000E+00  0.74505805969E-08  0.10566000000E+00  0.10566000000E+00 0. -1.
     999900   -1    0    0    0    0 -0.00000000000E+00 -0.00000000000E+00 -0.74505805969E-08  0.93827000000E+00  0.93827000000E+00 0.  1.
     999902    2    1    2    0    0  0.58747443748E-02  0.13275162566E-01  0.19669677018E-01  0.10194833488E+01  0.10191901980E+01 0.  0.
     999903    2    3    3    0    0 -0.41841342901E-01  0.70880688214E-01 -0.96827383083E-01  0.12865969249E+00  0.20074969961E-01 0.  0.
         14    1    1    2    0    0 -0.58747443748E-02 -0.13275162566E-01 -0.19669677018E-01  0.24446651235E-01  0.00000000000E+00 0.  1.
     999901    1    3    3    0    0  0.47716087275E-01 -0.57605525648E-01  0.11649706010E+00  0.89082365628E+00  0.88000000000E+00 0.  1.
        -11    1    4    4    0    0 -0.26806689834E-01  0.28435077268E-01 -0.52705825824E-01  0.65614917784E-01  0.51100000000E-03 0.  1.
         11    1    4    4    0    0 -0.15034653066E-01  0.42445610946E-01 -0.44121557259E-01  0.63044774703E-01  0.51100000000E-03 0. -1.
</event>
<event>
 8    1  0.1134587E+005  0.1043930E+01  0.7957747E-01            NaN
         13   -1    0    0    0    0  0.00000000000E+00  0.00000000000E+00  0.74505805969E-08  0.10566000000E+00  0.10566000000E+00 0.  1.
     999900   -1    0    0    0    0 -0.00000000000E+00 -0.00000000000E+00 -0.74505805969E-08  0.93827000000E+00  0.93827000000E+00 0. -1.
     999902    2    1    2    0    0  0.37981651919E-02 -0.70135219668E-02 -0.22934328132E-01  0.10196483412E+01  0.10193591814E+01 0.  0.
     999903    2    3    3    0    0  0.29094824261E-01  0.40693320810E-01  0.11524003562E+00  0.12723138782E+00  0.20127222360E-01 0.  0.
         14    1    1    2    0    0 -0.37981651919E-02  0.70135219668E-02  0.22934328132E-01  0.24281658841E-01  0.00000000000E+00 0.  1.
     999901    1    3    3    0    0 -0.25296659069E-01 -0.47706842776E-01 -0.13817436375E+00  0.89241695334E+00  0.88000000000E+00 0. -1.
        -11    1    4    4    0    0  0.22420846535E-01  0.28453985410E-01  0.58570408772E-01  0.68870004717E-01  0.51100000000E-03 0.  1.
         11    1    4    4    0    0  0.66739777259E-02  0.12239335400E-01  0.56669626848E-01  0.58361383104E-01  0.51100000000E-03 0. -1.
</event>
<event>
 8    1  0.1064839E+005  0.1043930E+01  0.7957747E-01            NaN
         13   -1    0    0    0    0  0.00000000000E+00  0.00000000000E+00  0.74505805969E-08  0.10566000000E+00  0.10566000000E+00 0.  1.
     999900   -1    0    0    0    0 -0.00000000000E+00 -0.00000000000E+00 -0.74505805969E-08  0.93827000000E+00  0.93827000000E+00 0. -1.
     999902    2    1    2    0    0 -0.46633176105E-02  0.22592130943E-01 -0.57815632937E-02  0.10201481291E+01  0.10198708878E+01 0.  0.
     999903    2    3    3    0    0  0.60457808869E-01 -0.10657869780E-01  0.11213232510E+00  0.12927776321E+00  0.19244346842E-01 0.  0.
         14    1    1    2    0    0  0.46633176105E-02 -0.22592130943E-01  0.57815632937E-02  0.23781870948E-01  0.00000000000E+00 0. -1.
     999901    1    3    3    0    0 -0.65121126480E-01  0.33250000723E-01 -0.11791388840E+00  0.89087036584E+00  0.88000000000E+00 0. -1.
        -11    1    4    4    0    0  0.30595078748E-01 -0.43351309117E-02  0.37185473878E-01  0.48351554185E-01  0.51100000000E-03 0.  1.
         11    1    4    4    0    0  0.29862730121E-01 -0.63227388688E-02  0.74946851226E-01  0.80926209023E-01  0.51100000000E-03 0. -1.
</event>
<event>
 8    1  0.1064839E+005  0.1043930E+01  0.7957747E-01            NaN
         13   -1    0    0    0    0  0.00000000000E+00  0.00000000000E+00  0.74505805969E-08  0.10566000000E+00  0.10566000000E+00 0.  1.
     999900   -1    0    0    0    0 -0.00000000000E+00 -0.00000000000E+00 -0.74505805969E-08  0.93827000000E+00  0.93827000000E+00 0.  1.
     999902    2    1    2    0    0 -0.20835273553E-01 -0.44211399418E-02  0.10563913425E-01  0.10201549843E+01  0.10198779048E+01 0.  0.
     999903    2    3    3    0    0  0.11494911551E+00  0.40323303322E-01  0.34944601530E-01  0.12828398276E+00  0.19909472853E-01 0.  0.
         14    1    1    2    0    0  0.20835273553E-01  0.44211399418E-02 -0.10563913425E-01  0.23775015652E-01  0.00000000000E+00 0. -1.
     999901    1    3    3    0    0 -0.13578438907E+00 -0.44744443264E-01 -0.24380688105E-01  0.89187100159E+00  0.88000000000E+00 0. -1.
        -11    1    4    4    0    0  0.47896297812E-01  0.27264360474E-01  0.16067444741E-01  0.57409272750E-01  0.51100000000E-03 0. -1.
         11    1    4    4    0    0  0.67052817701E-01  0.13058942848E-01  0.18877156788E-01  0.70874710012E-01  0.51100000000E-03 0.  1.
</event>
<event>
 8    1  0.1064839E+005  0.1043930E+01  0.7957747E-01            NaN
         13   -1    0    0    0    0  0.00000000000E+00  0.00000000000E+00  0.74505805969E-08  0.10566000000E+00  0.10566000000E+00 0.  1.
     999900   -1    0    0    0    0 -0.00000000000E+00 -0.00000000000E+00 -0.74505805969E-08  0.93827000000E+00  0.93827000000E+00 0. -1.
     999902    2    1    2    0    0  0.41568349254E-02 -0.11557557106E-01 -0.19886012016E-01  0.10205567273E+01  0.10202890393E+01 0.  0.
     999903    2    3    3    0    0 -0.28546320124E-02 -0.86366774606E-01  0.95011432287E-01  0.12991257704E+00  0.19563658324E-01 0.  0.
         14    1    1    2    0    0 -0.41568349254E-02  0.11557557106E-01  0.19886012016E-01  0.23373272701E-01  0.00000000000E+00 0.  1.
     999901    1    3    3    0    0  0.70114669378E-02  0.74809217500E-01 -0.11489744430E+00  0.89064415026E+00  0.88000000000E+00 0. -1.
        -11    1    4    4    0    0 -0.83233440691E-02 -0.24051150368E-01  0.20961272003E-01  0.32975323130E-01  0.51100000000E-03 0. -1.
         11    1    4    4    0    0  0.54687120567E-02 -0.62315624237E-01  0.74050160284E-01  0.96937253906E-01  0.51100000000E-03 0.  1.
</event>
<event>
 8    1  0.1064839E+005  0.1043930E+01  0.7957747E-01            NaN
         13   -1    0    0    0    0  0.00000000000E+00  0.00000000000E+00  0.74505805969E-08  0.10566000000E+00  0.10566000000E+00 0.  1.
     999900   -1    0    0    0    0 -0.00000000000E+00 -0.00000000000E+00 -0.74505805969E-08  0.93827000000E+00  0.93827000000E+00 0.  1.
     999902    2    1    2    0    0 -0.14375056206E-01 -0.10635390849E-01 -0.16588591468E-01  0.10195387076E+01  0.10192468990E+01 0.  0.
     999903    2    3    3    0    0 -0.44235554799E-01 -0.30001445658E-01  0.11543763893E+00  0.12897842384E+00  0.21277083506E-01 0.  0.
         14    1    1    2    0    0  0.14375056206E-01  0.10635390849E-01  0.16588591468E-01  0.24391292428E-01  0.00000000000E+00 0.  1.
     999901    1    3    3    0    0  0.29860498593E-01  0.19366054809E-01 -0.13202623040E+00  0.89056028374E+00  0.88000000000E+00 0.  1.
        -11    1    4    4    0    0 -0.26774166547E-01 -0.87249735855E-02  0.74494620687E-01  0.79641011989E-01  0.51100000000E-03 0.  1.
         11    1    4    4    0    0 -0.17461388252E-01 -0.21276472072E-01  0.40943018247E-01  0.49337411847E-01  0.51100000000E-03 0. -1.
</event>
<event>
 8    1  0.1064839E+005  0.1043930E+01  0.7957747E-01            NaN
         13   -1    0    0    0    0  0.00000000000E+00  0.00000000000E+00  0.74505805969E-08  0.10566000000E+00  0.10566000000E+00 0.  1.
     999900   -1    0    0    0    0 -0.00000000000E+00 -0.00000000000E+00 -0.74505805969E-08  0.93827000000E+00  0.93827000000E+00 0. -1.
     999902    2    1    2    0    0 -0.96908034048E-03  0.20962984524E-01  0.10504939234E-01  0.10204621585E+01  0.10201922747E+01 0.  0.
     999903    2    3    3    0    0  0.98605712644E-02 -0.10931452641E+00 -0.62124964611E-01  0.12784543551E+00  0.20929586793E-01 0.  0.
         14    1    1    2    0    0  0.96908034048E-03 -0.20962984524E-01 -0.10504939234E-01  0.23467841511E-01  0.00000000000E+00 0. -1.
     999901    1    3    3    0    0 -0.10829651605E-01  0.13027751093E+00  0.72629903845E-01  0.89261672298E+00  0.88000000000E+00 0.  1.
        -11    1    4    4    0    0  0.46258145658E-02 -0.98838534894E-01 -0.60584605899E-01  0.11602245357E+00  0.51100000000E-03 0. -1.
         11    1    4    4    0    0  0.52347566985E-02 -0.10475991515E-01 -0.15403587121E-02  0.11822981936E-01  0.51100000000E-03 0.  1.
</event>
<event>
 8    1  0.1064839E+005  0.1043930E+01  0.7957747E-01            NaN
         13   -1    0    0    0    0  0.00000000000E+00  0.00000000000E+00  0.74505805969E-08  0.10566000000E+00  0.10566000000E+00 0. -1.
     999900   -1    0    0    0    0 -0.00000000000E+00 -0.00000000000E+00 -0.74505805969E-08  0.93827000000E+00  0.93827000000E+00 0.  1.
     999902    2    1    2    0    0 -0.13730713606E-01 -0.15406767925E-02  0.96512073157E-02  0.10270761582E+01  0.10269378670E+01 0.  0.
     999903    2    3    3    0    0 -0.20525686976E-01  0.76562474158E-01 -0.10836307057E+00  0.13574364805E+00  0.20016659211E-01 0.  0.
         14    1    1    2    0    0  0.13730713606E-01  0.15406767925E-02 -0.96512073157E-02  0.16853841810E-01  0.00000000000E+00 0. -1.
     999901    1    3    3    0    0  0.67949733707E-02 -0.78103150951E-01  0.11801427789E+00  0.89133251014E+00  0.88000000000E+00 0. -1.
        -11    1    4    4    0    0 -0.14850027056E-01  0.54603540598E-01 -0.60875397946E-01  0.83115252184E-01  0.51100000000E-03 0.  1.
         11    1    4    4    0    0 -0.56756599200E-02  0.21958933560E-01 -0.47487672628E-01  0.52628395864E-01  0.51100000000E-03 0. -1.
</event>
<event>
 8    1  0.1064839E+005  0.1043930E+01  0.7957747E-01            NaN
         13   -1    0    0    0    0  0.00000000000E+00  0.00000000000E+00  0.74505805969E-08  0.10566000000E+00  0.10566000000E+00 0.  1.
     999900   -1    0    0    0    0 -0.00000000000E+00 -0.00000000000E+00 -0.74505805969E-08  0.93827000000E+00  0.93827000000E+00 0. -1.
     999902    2    1    2    0    0  0.16474378267E-01  0.17090636111E-02 -0.17628805843E-01  0.10197411424E+01  0.10194542151E+01 0.  0.
     999903    2    3    3    0    0  0.91620558171E-01 -0.21328164141E-01  0.87553330940E-01  0.12999907632E+00  0.19620316492E-01 0.  0.
         14    1    1    2    0    0 -0.16474378267E-01 -0.17090636111E-02  0.17628805843E-01  0.24188857625E-01  0.00000000000E+00 0.  1.
     999901    1    3    3    0    0 -0.75146179903E-01  0.23037227752E-01 -0.10518213678E+00  0.88974206606E+00  0.88000000000E+00 0.  1.
        -11    1    4    4    0    0  0.55541602991E-01 -0.81142374432E-02  0.40341046661E-01  0.69125767112E-01  0.51100000000E-03 0. -1.
         11    1    4    4    0    0  0.36078955179E-01 -0.13213926698E-01  0.47212284280E-01  0.60873309205E-01  0.51100000000E-03 0.  1.
</event>
<event>
 8    1  0.1064839E+005  0.1043930E+01  0.7957747E-01            NaN
         13   -1    0    0    0    0  0.00000000000E+00  0.00000000000E+00  0.74505805969E-08  0.10566000000E+00  0.10566000000E+00 0. -1.
     999900   -1    0    0    0    0 -0.00000000000E+00 -0.00000000000E+00 -0.74505805969E-08  0.93827000000E+00  0.93827000000E+00 0.  1.
     999902    2    1    2    0    0 -0.10099220355E-01  0.19884908357E-01  0.86898635517E-02  0.10199943036E+01  0.10197134214E+01 0.  0.
     999903    2    3    3    0    0 -0.12654421506E+00  0.13606553834E-01  0.28565419843E-01  0.13207882777E+00  0.20742633912E-01 0.  0.
         14    1    1    2    0    0  0.10099220355E-01 -0.19884908357E-01 -0.86898635517E-02  0.23935696369E-01  0.00000000000E+00 0.  1.
     999901    1    3    3    0    0  0.11644499471E+00  0.62783545223E-02 -0.19875556292E-01  0.88791547586E+00  0.88000000000E+00 0. -1.
        -11    1    4    4    0    0 -0.60047634086E-01  0.20844877100E-02  0.23082454734E-01  0.64367105620E-01  0.51100000000E-03 0.  1.
         11    1    4    4    0    0 -0.66496580979E-01  0.11522066124E-01  0.54829651097E-02  0.67711722154E-01  0.51100000000E-03 0. -1.
</event>
<event>
 8    1  0.1064839E+005  0.1043930E+01  0.7957747E-01            NaN
         13   -1    0    0    0    0  0.00000000000E+00  0.00000000000E+00  0.74505805969E-08  0.10566000000E+00  0.10566000000E+00 0.  1.
     999900   -1    0    0    0    0 -0.00000000000E+00 -0.00000000000E+00 -0.74505805969E-08  0.93827000000E+00  0.93827000000E+00 0.  1.
     999902    2    1    2    0    0 -0.32447301615E-02  0.23545367894E-01  0.28237324177E-02  0.10199949611E+01  0.10197140945E+01 0.  0.
     999903    2    3    3    0    0 -0.68466188477E-01 -0.86155223349E-01  0.63550157602E-01  0.12871736288E+00  0.20474264358E-01 0.  0.
         14    1    1    2    0    0  0.32447301615E-02 -0.23545367894E-01 -0.28237324177E-02  0.23935038915E-01  0.00000000000E+00 0.  1.
     999901    1    3    3    0    0  0.65221458316E-01  0.10970059124E+00 -0.60726425184E-01  0.89127759820E+00  0.88000000000E+00 0.  1.
        -11    1    4    4    0    0 -0.10680750660E-01 -0.27904902588E-01  0.16964943371E-01  0.34363242683E-01  0.51100000000E-03 0. -1.
         11    1    4    4    0    0 -0.57785437817E-01 -0.58250320761E-01  0.46585214231E-01  0.94354120199E-01  0.51100000000E-03 0.  1.
</event>
<event>
 8    1  0.1064839E+005  0.1043930E+01  0.7957747E-01            NaN
         13   -1    0    0    0    0  0.00000000000E+00  0.00000000000E+00  0.74505805969E-08  0.10566000000E+00  0.10566000000E+00 0.  1.
     999900   -1    0    0    0    0 -0.00000000000E+00 -0.00000000000E+00 -0.74505805969E-08  0.93827000000E+00  0.93827000000E+00 0. -1.
     999902    2    1    2    0    0  0.21371004305E-01  0.43526490824E-02 -0.10230819414E-01  0.10198398559E+01  0.10195552935E+01 0.  0.
     999903    2    3    3    0    0 -0.66376218228E-01  0.13799735174E-01 -0.10896537184E+00  0.12993124575E+00  0.20308651458E-01 0.  0.
         14    1    1    2    0    0 -0.21371004305E-01 -0.43526490824E-02  0.10230819414E-01  0.24090144145E-01  0.00000000000E+00 0.  1.
     999901    1    3    3    0    0  0.87747222533E-01 -0.94470860913E-02  0.98734552428E-01  0.88990861011E+00  0.88000000000E+00 0. -1.
        -11    1    4    4    0    0 -0.45110867115E-01  0.11448803371E-01 -0.56072397979E-01  0.72872768347E-01  0.51100000000E-03 0.  1.
         11    1    4    4    0    0 -0.21265351113E-01  0.23509318024E-02 -0.52892973863E-01  0.57058477402E-01  0.51100000000E-03 0. -1.
</event>
<event>
 8    1  0.1064839E+005  0.1043930E+01  0.7957747E-01            NaN
         13   -1    0    0    0    0  0.00000000000E+00  0.00000000000E+00  0.74505805969E-08  0.10566000000E+00  0.10566000000E+00 0.  1.
     999900   -1    0    0    0    0 -0.00000000000E+00 -0.00000000000E+00 -0.74505805969E-08  0.93827000000E+00  0.93827000000E+00 0.  1.
     999902    2    1    2    0    0  0.62031142833E-02 -0.15192788522E-02 -0.24590184713E-01  0.10185240161E+01  0.10182071043E+01 0.  0.
     999903    2    3    3    0    0 -0.36901476800E-01 -0.95329163144E-01  0.73027690272E-01  0.12712761173E+00  0.19468379016E-01 0.  0.
         14    1    1    2    0    0 -0.62031142833E-02  0.15192788522E-02  0.24590184713E-01  0.25405983926E-01  0.00000000000E+00 0.  1.
     999901    1    3    3    0    0  0.43104591083E-01  0.93809884292E-01 -0.97617874985E-01  0.89139640435E+00  0.88000000000E+00 0.  1.
        -11    1    4    4    0    0 -0.17653380267E-01 -0.68954865411E-01  0.46132037426E-01  0.84822410346E-01  0.51100000000E-03 0. -1.
         11    1    4    4    0    0 -0.19248096533E-01 -0.26374297733E-01  0.26895652846E-01  0.42305201383E-01  0.51100000000E-03 0.  1.
</event>
<event>
 8    1  0.1064839E+005  0.1043930E+01  0.7957747E-01            NaN
         13   -1    0    0    0    0  0.00000000000E+00  0.00000000000E+00  0.74505805969E-08  0.10566000000E+00  0.10566000000E+00 0.  1.
     999900   -1    0    0    0    0 -0.00000000000E+00 -0.00000000000E+00 -0.74505805969E-08  0.93827000000E+00  0.93827000000E+00 0. -1.
     999902    2    1    2    0    0 -0.12207084782E-01  0.47517903261E-02 -0.20040804100E-01  0.10199878560E+01  0.10197068207E+01 0.  0.
     999903    2    3    3    0    0 -0.39499389866E-01 -0.98731596206E-01 -0.75246933608E-01  0.13178664122E+00  0.19937098529E-01 0.  0.
         14    1    1    2    0    0  0.12207084782E-01 -0.47517903261E-02  0.20040804100E-01  0.23942143997E-01  0.00000000000E+00 0.  1.
     999901    1    3    3    0    0  0.27292305085E-01  0.10348338653E+00  0.55206129508E-01  0.88820121478E+00  0.88000000000E+00 0. -1.
        -11    1    4    4    0    0 -0.17569442076E-01 -0.59351875886E-01 -0.33677959559E-01  0.70468408149E-01  0.51100000000E-03 0. -1.
         11    1    4    4    0    0 -0.21929947790E-01 -0.39379720320E-01 -0.41568974049E-01  0.61318233072E-01  0.51100000000E-03 0.  1.
</event>
<event>
 8    1  0.1064839E+005  0.1043930E+01  0.7957747E-01            NaN
         13   -1    0    0    0    0  0.00000000000E+00  0.00000000000E+00  0.74505805969E-08  0.10566000000E+00  0.10566000000E+00 0. -1.
     999900   -1    0    0    0    0 -0.00000000000E+00 -0.00000000000E+00 -0.74505805969E-08  0.93827000000E+00  0.93827000000E+00 0.  1.
     999902    2    1    2    0    0 -0.65021503485E-03 -0.14512397622E-01  0.18035451484E-01  0.10207716327E+01  0.10205089006E+01 0.  0.
     999903    2    3    3    0    0  0.84607295178E-01  0.95238067599E-01 -0.10821835676E-01  0.12939811356E+00  0.19951835681E-01 0.  0.
         14    1    1    2    0    0  0.65021503485E-03  0.14512397622E-01 -0.18035451484E-01  0.23158367269E-01  0.00000000000E+00 0.  1.
     999901    1    3    3    0    0 -0.85257510213E-01 -0.10975046522E+00  0.28857287160E-01  0.89137351917E+00  0.88000000000E+00 0. -1.
        -11    1    4    4    0    0  0.36597119106E-01  0.32821008880E-01 -0.12147134597E-01  0.50639725026E-01  0.51100000000E-03 0.  1.
         11    1    4    4    0    0  0.48010176072E-01  0.62417058719E-01  0.13252989214E-02  0.78758388530E-01  0.51100000000E-03 0. -1.
</event>
<event>
 8    1  0.1064839E+005  0.1043930E+01  0.7957747E-01            NaN
         13   -1    0    0    0    0  0.00000000000E+00  0.00000000000E+00  0.74505805969E-08  0.10566000000E+00  0.10566000000E+00 0.  1.
     999900   -1    0    0    0    0 -0.00000000000E+00 -0.00000000000E+00 -0.74505805969E-08  0.93827000000E+00  0.93827000000E+00 0. -1.
     999902    2    1    2    0    0  0.11059529700E-01  0.21275352175E-01  0.26047207821E-02  0.10198107467E+01  0.10195254881E+01 0.  0.
     999903    2    3    3    0    0  0.83205098023E-01  0.51299314943E-03  0.99506994897E-01  0.13131420240E+00  0.20455469182E-01 0.  0.
         14    1    1    2    0    0 -0.11059529700E-01 -0.21275352175E-01 -0.26047207821E-02  0.24119253257E-01  0.00000000000E+00 0. -1.
     999901    1    3    3    0    0 -0.72145568323E-01  0.20762359025E-01 -0.96902274115E-01  0.88849654434E+00  0.88000000000E+00 0. -1.
        -11    1    4    4    0    0  0.47528595587E-01 -0.90457418789E-02  0.50402097259E-01  0.69867198124E-01  0.51100000000E-03 0.  1.
         11    1    4    4    0    0  0.35676502435E-01  0.95587350283E-02  0.49104897638E-01  0.61447004275E-01  0.51100000000E-03 0. -1.
</event>
<event>
 8    1  0.1064839E+005  0.1043930E+01  0.7957747E-01            NaN
         13   -1    0    0    0    0  0.00000000000E+00  0.00000000000E+00  0.74505805969E-08  0.10566000000E+00  0.10566000000E+00 0.  1.
     999900   -1    0    0    0    0 -0.00000000000E+00 -0.00000000000E+00 -0.74505805969E-08  0.93827000000E+00  0.93827000000E+00 0. -1.
     999902    2    1    2    0    0  0.69923668366E-02 -0.20345314240E-01  0.10118127325E-01  0.10201560330E+01  0.10198789782E+01 0.  0.
     999903    2    3    3    0    0 -0.98634078767E-01  0.79069886899E-01  0.76653566243E-02  0.12827804567E+00  0.20390458573E-01 0.  0.
         14    1    1    2    0    0 -0.69923668366E-02  0.20345314240E-01 -0.10118127325E-01  0.23773966982E-01  0.00000000000E+00 0. -1.
     999901    1    3    3    0    0  0.10562644560E+00 -0.99415201139E-01  0.24527707005E-02  0.89187798735E+00  0.88000000000E+00 0.  1.
        -11    1    4    4    0    0 -0.76133939503E-01  0.60925842947E-01 -0.27482365572E-02  0.97550750936E-01  0.51100000000E-03 0.  1.
         11    1    4    4    0    0 -0.22500139264E-01  0.18144043952E-01  0.10413593181E-01  0.30727294736E-01  0.51100000000E-03 0. -1.
</event>
<event>
 8    1  0.1064839E+005  0.1043930E+01  0.7957747E-01            NaN
         13   -1    0    0    0    0  0.00000000000E+00  0.00000000000E+00  0.74505805969E-08  0.10566000000E+00  0.10566000000E+00 0.  1.
     999900   -1    0    0    0    0 -0.00000000000E+00 -0.00000000000E+00 -0.74505805969E-08  0.93827000000E+00  0.93827000000E+00 0.  1.
     999902    2    1    2    0    0  0.53150630886E-02 -0.44896517178E-02 -0.23446331457E-01  0.10194731538E+01  0.10191797555E+01 0.  0.
     999903    2    3    3    0    0  0.75609651131E-01  0.46399528452E-01 -0.96096796626E-01  0.13222508934E+00  0.19471629216E-01 0.  0.
         14    1    1    2    0    0 -0.53150630886E-02  0.44896517178E-02  0.23446331457E-01  0.24456846219E-01  0.00000000000E+00 0.  1.
     999901    1    3    3    0    0 -0.70294588042E-01 -0.50889180169E-01  0.72650465169E-01  0.88724806444E+00  0.88000000000E+00 0. -1.
        -11    1    4    4    0    0  0.45402535686E-01  0.16686556851E-01 -0.53889992423E-01  0.72417013405E-01  0.51100000000E-03 0. -1.
         11    1    4    4    0    0  0.30207115445E-01  0.29712971600E-01 -0.42206804204E-01  0.59808075934E-01  0.51100000000E-03 0.  1.
</event>
<event>
 8    1  0.1064839E+005  0.1043930E+01  0.7957747E-01            NaN
         13   -1    0    0    0    0  0.00000000000E+00  0.00000000000E+00  0.74505805969E-08  0.10566000000E+00  0.10566000000E+00 0. -1.
     999900   -1    0    0    0    0 -0.00000000000E+00 -0.00000000000E+00 -0.74505805969E-08  0.93827000000E+00  0.93827000000E+00 0. -1.
     999902    2    1    2    0    0 -0.82380415573E-03  0.15069656055E-01 -0.14954151884E-01  0.10226838275E+01  0.10224631099E+01 0.  0.
     999903    2    3    3    0    0  0.21174320386E-01  0.99977518153E-01 -0.86031373571E-01  0.13547177057E+00  0.22524373560E-01 0.  0.
         14    1    1    2    0    0  0.82380415573E-03 -0.15069656055E-01  0.14954151884E-01  0.21246172490E-01  0.00000000000E+00 0. -1.
     999901    1    3    3    0    0 -0.21998124542E-01 -0.84907862098E-01  0.71077221687E-01  0.88721205694E+00  0.88000000000E+00 0. -1.
        -11    1    4    4    0    0  0.12020962646E-01  0.40153825194E-01 -0.21908575309E-01  0.47297780220E-01  0.51100000000E-03 0.  1.
         11    1    4    4    0    0  0.91533577407E-02  0.59823692958E-01 -0.64122798262E-01  0.88173990354E-01  0.51100000000E-03 0. -1.
</event>
<event>
 8    1  0.1064839E+005  0.1043930E+01  0.7957747E-01            NaN
         13   -1    0    0    0    0  0.00000000000E+00  0.00000000000E+00  0.74505805969E-08  0.10566000000E+00  0.10566000000E+00 0. -1.
     999900   -1    0    0    0    0 -0.00000000000E+00 -0.00000000000E+00 -0.74505805969E-08  0.93827000000E+00  0.93827000000E+00 0.  1.
     999902    2    1    2    0    0 -0.15506099352E-01  0.28372953238E-02  0.17801826497E-01  0.10201519768E+01  0.10198748263E+01 0.  0.
     999903    2    3    3    0    0  0.40543102952E-01 -0.10663315418E+00  0.60322276553E-01  0.13058282203E+00  0.19968064334E-01 0.  0.
         14    1    1    2    0    0  0.15506099352E-01 -0.28372953238E-02 -0.17801826497E-01  0.23778023226E-01  0.00000000000E+00 0. -1.
     999901    1    3    3    0    0 -0.56049202305E-01  0.10947044951E+00 -0.42520450056E-01  0.88956915474E+00  0.88000000000E+00 0. -1.
        -11    1    4    4    0    0  0.14602341746E-01 -0.43366205008E-01  0.35200093107E-01  0.57733558673E-01  0.51100000000E-03 0. -1.
         11    1    4    4    0    0  0.25940761206E-01 -0.63266949176E-01  0.25122183446E-01  0.72849263360E-01  0.51100000000E-03 0.  1.
</event>
<event>
 8    1  0.1064839E+005  0.1043930E+01  0.7957747E-01            NaN
         13   -1    0    0    0    0  0.00000000000E+00  0.00000000000E+00  0.74505805969E-08  0.10566000000E+00  0.10566000000E+00 0. -1.
     999900   -1    0    0    0    0 -0.00000000000E+00 -0.00000000000E+00 -0.74505805969E-08  0.93827000000E+00  0.93827000000E+00 0.  1.
     999902    2    1    2    0    0  0.44503878900E-02 -0.20940156548E-01  0.72020787647E-02  0.10213431444E+01  0.10210933613E+01 0.  0.
     999903    2    3    3    0    0  0.25780517557E-01 -0.13003532462E+00  0.55559861910E-02  0.13434853348E+00  0.21091200310E-01 0.  0.
         14    1    1    2    0    0 -0.44503878900E-02  0.20940156548E-01 -0.72020787647E-02  0.22586855628E-01  0.00000000000E+00 0. -1.
     999901    1    3    3    0    0 -0.21330129667E-01  0.10909516808E+00  0.16460925737E-02  0.88699461089E+00  0.88000000000E+00 0.  1.
        -11    1    4    4    0    0  0.60161619031E-02 -0.80539587679E-01  0.66501376013E-02  0.81038909412E-01  0.51100000000E-03 0. -1.
         11    1    4    4    0    0  0.19764355654E-01 -0.49495736944E-01 -0.10941514103E-02  0.53309624069E-01  0.51100000000E-03 0.  1.
</event>
<event>
 8    1  0.1064839E+005  0.1043930E+01  0.7957747E-01            NaN
         13   -1    0    0    0    0  0.00000000000E+00  0.00000000000E+00  0.74505805969E-08  0.10566000000E+00  0.10566000000E+00 0.  1.
     999900   -1    0    0    0    0 -0.00000000000E+00 -0.00000000000E+00 -0.74505805969E-08  0.93827000000E+00  0.93827000000E+00 0. -1.
     999902    2    1    2    0    0  0.10833846134E-01 -0.17576804523E-01  0.47737198794E-03  0.10232770544E+01  0.10230686125E+01 0.  0.
     999903    2    3    3    0    0 -0.48112534252E-01  0.29588231941E-01 -0.11800966554E+00  0.13213262472E+00  0.18505943176E-01 0.  0.
         14    1    1    2    0    0 -0.10833846134E-01  0.17576804523E-01 -0.47737198794E-03  0.20652945633E-01  0.00000000000E+00 0. -1.
     999901    1    3    3    0    0  0.58946380385E-01 -0.47165036465E-01  0.11848703753E+00  0.89114442965E+00  0.88000000000E+00 0.  1.
        -11    1    4    4    0    0 -0.13306519518E-01  0.16672626850E-01 -0.32121693077E-01  0.38562990482E-01  0.51100000000E-03 0. -1.
         11    1    4    4    0    0 -0.34806014734E-01  0.12915605091E-01 -0.85887972466E-01  0.93569634240E-01  0.51100000000E-03 0.  1.
</event>
<event>
 8    1  0.1064839E+005  0.1043930E+01  0.7957747E-01            NaN
         13   -1    0    0    0    0  0.00000000000E+00  0.00000000000E+00  0.74505805969E-08  0.10566000000E+00  0.10566000000E+00 0.  1.
     999900   -1    0    0    0    0 -0.00000000000E+00 -0.00000000000E+00 -0.74505805969E-08  0.93827000000E+00  0.93827000000E+00 0. -1.
     999902    2    1    2    0    0  0.20588799409E-01 -0.51496715180E-03  0.12642242411E-01  0.10197641119E+01  0.10194777358E+01 0.  0.
     999903    2    3    3    0    0  0.84411711294E-01 -0.52652913002E-01  0.86193371259E-01  0.13285853747E+00  0.18011870500E-01 0.  0.
         14    1    1    2    0    0 -0.20588799409E-01  0.51496715180E-03 -0.12642242411E-01  0.24165888054E-01  0.00000000000E+00 0. -1.
     999901    1    3    3    0    0 -0.63822911885E-01  0.52137945850E-01 -0.73551128848E-01  0.88690557447E+00  0.88000000000E+00 0. -1.
        -11    1    4    4    0    0  0.23160742191E-01 -0.16115419745E-01  0.35527095507E-01  0.45371382705E-01  0.51100000000E-03 0. -1.
         11    1    4    4    0    0  0.61250969103E-01 -0.36537493257E-01  0.50666275752E-01  0.87487154767E-01  0.51100000000E-03 0.  1.
</event>
<event>
 8    1  0.1064839E+005  0.1043930E+01  0.7957747E-01            NaN
         13   -1    0    0    0    0  0.00000000000E+00  0.00000000000E+00  0.74505805969E-08  0.10566000000E+00  0.10566000000E+00 0.  1.
     999900   -1    0    0    0    0 -0.00000000000E+00 -0.00000000000E+00 -0.74505805969E-08  0.93827000000E+00  0.93827000000E+00 0.  1.
     999902    2    1    2    0    0 -0.27271698243E-01 -0.66504345061E-02  0.13248775079E-02  0.10158278808E+01  0.10154390943E+01 0.  0.
     999903    2    3    3    0    0 -0.12079804940E+00  0.41783318785E-01  0.94718287640E-02  0.12951000347E+00  0.18577163211E-01 0.  0.
         14    1    1    2    0    0  0.27271698243E-01  0.66504345061E-02 -0.13248775079E-02  0.28102119219E-01  0.00000000000E+00 0.  1.
     999901    1    3    3    0    0  0.93526351154E-01 -0.48433753291E-01 -0.81469512561E-02  0.88631787731E+00  0.88000000000E+00 0. -1.
        -11    1    4    4    0    0 -0.44126087152E-01  0.65233631417E-02  0.63631153969E-02  0.45060139731E-01  0.51100000000E-03 0. -1.
         11    1    4    4    0    0 -0.76671962245E-01  0.35259955644E-01  0.31087133671E-02  0.84449863744E-01  0.51100000000E-03 0.  1.
</event>
<event>
 8    1  0.1064839E+005  0.1043930E+01  0.7957747E-01            NaN
         13   -1    0    0    0    0  0.00000000000E+00  0.00000000000E+00  0.74505805969E-08  0.10566000000E+00  0.10566000000E+00 0.  1.
     999900   -1    0    0    0    0 -0.00000000000E+00 -0.00000000000E+00 -0.74505805969E-08  0.93827000000E+00  0.93827000000E+00 0.  1.
     999902    2    1    2    0    0  0.55357073232E-02  0.21051639587E-01 -0.65419493477E-02  0.10212008846E+01  0.10209479096E+01 0.  0.
     999903    2    3    3    0    0  0.49973729947E-01  0.54465215352E-01  0.10737162223E+00  0.13211848872E+00  0.21512704013E-01 0.  0.
         14    1    1    2    0    0 -0.55357073232E-02 -0.21051639587E-01  0.65419493477E-02  0.22729115384E-01  0.00000000000E+00 0. -1.
     999901    1    3    3    0    0 -0.44438022623E-01 -0.33413575766E-01 -0.11391357158E+00  0.88908239589E+00  0.88000000000E+00 0.  1.
        -11    1    4    4    0    0  0.10718022321E-01  0.25571058830E-01  0.31840886212E-01  0.42223905645E-01  0.51100000000E-03 0.  1.
         11    1    4    4    0    0  0.39255707625E-01  0.28894156522E-01  0.75530736017E-01  0.89894583077E-01  0.51100000000E-03 0. -1.
</event>
<event>
 8    1  0.1064839E+005  0.1043930E+01  0.7957747E-01            NaN
         13   -1    0    0    0    0  0.00000000000E+00  0.00000000000E+00  0.74505805969E-08  0.10566000000E+00  0.10566000000E+00 0.  1.
     999900   -1    0    0    0    0 -0.00000000000E+00 -0.00000000000E+00 -0.74505805969E-08  0.93827000000E+00  0.93827000000E+00 0.  1.
     999902    2    1    2    0    0  0.33274468485E-02 -0.23672520423E-01  0.11953004202E-01  0.10172029643E+01  0.10168517769E+01 0.  0.
     999903    2    3    3    0    0  0.81909533253E-01 -0.29384904351E-01 -0.90866347146E-01  0.12772019630E+00  0.21979792016E-01 0.  0.
         14    1    1    2    0    0 -0.33274468485E-02  0.23672520423E-01 -0.11953004202E-01  0.26727035660E-01  0.00000000000E+00 0.  1.
     999901    1    3    3    0    0 -0.78582086404E-01  0.57123839281E-02  0.10281935135E+00  0.88948276804E+00  0.88000000000E+00 0. -1.
        -11    1    4    4    0    0  0.53519928162E-01 -0.29944481073E-01 -0.60707480599E-01  0.86294344999E-01  0.51100000000E-03 0.  1.
         11    1    4    4    0    0  0.28389605091E-01  0.55957672196E-03 -0.30158866548E-01  0.41425851298E-01  0.51100000000E-03 0. -1.
</event>
<event>
 8    1  0.1064839E+005  0.1043930E+01  0.7957747E-01            NaN
         13   -1    0    0    0    0  0.00000000000E+00  0.00000000000E+00  0.74505805969E-08  0.10566000000E+00  0.10566000000E+00 0.  1.
     999900   -1    0    0    0    0 -0.00000000000E+00 -0.00000000000E+00 -0.74505805969E-08  0.93827000000E+00  0.93827000000E+00 0. -1.
     999902    2    1    2    0    0 -0.30482474747E-02 -0.36463713582E-02 -0.22697771470E-01  0.10207399878E+01  0.10204765289E+01 0.  0.
     999903    2    3    3    0    0 -0.10739915009E+00 -0.42141142731E-01  0.57374464376E-01  0.13013203742E+00  0.18222641171E-01 0.  0.
         14    1    1    2    0    0  0.30482474747E-02  0.36463713582E-02  0.22697771470E-01  0.23190012213E-01  0.00000000000E+00 0.  1.
     999901    1    3    3    0    0  0.10435090261E+00  0.38494771373E-01 -0.80072235846E-01  0.89060795036E+00  0.88000000000E+00 0.  1.
        -11    1    4    4    0    0 -0.69082137694E-01 -0.18202167545E-01  0.38607627069E-01  0.81206346061E-01  0.51100000000E-03 0. -1.
         11    1    4    4    0    0 -0.38317012393E-01 -0.23938975186E-01  0.18766837307E-01  0.48925691361E-01  0.51100000000E-03 0.  1.
</event>
<event>
 8    1  0.1064839E+005  0.1043930E+01  0.7957747E-01            NaN
         13   -1    0    0    0    0  0.00000000000E+00  0.00000000000E+00  0.74505805969E-08  0.10566000000E+00  0.10566000000E+00 0.  1.
     999900   -1    0    0    0    0 -0.00000000000E+00 -0.00000000000E+00 -0.74505805969E-08  0.93827000000E+00  0.93827000000E+00 0. -1.
     999902    2    1    2    0    0  0.48761902792E-02  0.20612568549E-01 -0.99645233493E-02  0.10205217335E+01  0.10202532341E+01 0.  0.
     999903    2    3    3    0    0  0.84855585322E-01  0.85724095286E-01  0.50977179442E-01  0.13240569061E+00  0.19583237952E-01 0.  0.
         14    1    1    2    0    0 -0.48761902792E-02 -0.20612568549E-01  0.99645233493E-02  0.23408266476E-01  0.00000000000E+00 0. -1.
     999901    1    3    3    0    0 -0.79979395042E-01 -0.65111526737E-01 -0.60941702791E-01  0.88811604292E+00  0.88000000000E+00 0. -1.
        -11    1    4    4    0    0  0.59765005725E-01  0.67559985761E-01  0.45194358855E-01  0.10089102427E+00  0.51100000000E-03 0.  1.
         11    1    4    4    0    0  0.25090579596E-01  0.18164109525E-01  0.57828205865E-02  0.31514666336E-01  0.51100000000E-03 0. -1.
</event>
<event>
 8    1  0.1064839E+005  0.1043930E+01  0.7957747E-01            NaN
         13   -1    0    0    0    0  0.00000000000E+00  0.00000000000E+00  0.74505805969E-08  0.10566000000E+00  0.10566000000E+00 0. -1.
     999900   -1    0    0    0    0 -0.00000000000E+00 -0.00000000000E+00 -0.74505805969E-08  0.93827000000E+00  0.93827000000E+00 0. -1.
     999902    2    1    2    0    0 -0.32978548108E-02 -0.23679178486E-01  0.15966179465E-02  0.10199690207E+01  0.10196875378E+01 0.  0.
     999903    2    3    3    0    0  0.92316101444E-01 -0.88271790635E-01 -0.26466022096E-01  0.13199281272E+00  0.20186150598E-01 0.  0.
         14    1    1    2    0    0  0.32978548108E-02  0.23679178486E-01 -0.15966179465E-02  0.23960979300E-01  0.00000000000E+00 0.  1.
     999901    1    3    3    0    0 -0.95613956255E-01  0.64592612149E-01  0.28062640042E-01  0.88797620798E+00  0.88000000000E+00 0.  1.
        -11    1    4    4    0    0  0.25196904117E-01 -0.16169064128E-01  0.17983070582E-03  0.29943548086E-01  0.51100000000E-03 0. -1.
         11    1    4    4    0    0  0.67119197327E-01 -0.72102726507E-01 -0.26645852802E-01  0.10204926463E+00  0.51100000000E-03 0.  1.
</event>
<event>
 8    1  0.1064839E+005  0.1043930E+01  0.7957747E-01            NaN
         13   -1    0    0    0    0  0.00000000000E+00  0.00000000000E+00  0.74505805969E-08  0.10566000000E+00  0.10566000000E+00 0. -1.
     999900   -1    0    0    0    0 -0.00000000000E+00 -0.00000000000E+00 -0.74505805969E-08  0.93827000000E+00  0.93827000000E+00 0. -1.
     999902    2    1    2    0    0  0.10634614865E-01  0.15399512167E-01  0.14817401164E-01  0.10200596128E+01  0.10197802794E+01 0.  0.
     999903    2    3    3    0    0 -0.10919450102E+00 -0.64100982887E-01 -0.40400785447E-02  0.12818801314E+00  0.19582375186E-01 0.  0.
         14    1    1    2    0    0 -0.10634614865E-01 -0.15399512167E-01 -0.14817401164E-01  0.23870387210E-01  0.00000000000E+00 0. -1.
     999901    1    3    3    0    0  0.11982911588E+00  0.79500495054E-01  0.18857479709E-01  0.89187159965E+00  0.88000000000E+00 0. -1.
        -11    1    4    4    0    0 -0.21794556344E-01 -0.52410845275E-02 -0.42164944935E-02  0.22814723318E-01  0.51100000000E-03 0.  1.
         11    1    4    4    0    0 -0.87399944673E-01 -0.58859898360E-01  0.17641594885E-03  0.10537328982E+00  0.51100000000E-03 0. -1.
</event>
<event>
 8    1  0.1064839E+005  0.1043930E+01  0.7957747E-01            NaN
         13   -1    0    0    0    0  0.00000000000E+00  0.00000000000E+00  0.74505805969E-08  0.10566000000E+00  0.10566000000E+00 0. -1.
     999900   -1    0    0    0    0 -0.00000000000E+00 -0.00000000000E+00 -0.74505805969E-08  0.93827000000E+00  0.93827000000E+00 0.  1.
     999902    2    1    2    0    0  0.19967787848E-03 -0.15171173149E-01 -0.18490261774E-01  0.10200115104E+01  0.10197310367E+01 0.  0.
     999903    2    3    3    0    0  0.11890992580E+00 -0.46381509057E-02  0.47248459452E-01  0.12954834606E+00  0.19730031622E-01 0.  0.
         14    1    1    2    0    0 -0.19967787848E-03  0.15171173149E-01  0.18490261774E-01  0.23918489635E-01  0.00000000000E+00 0.  1.
     999901    1    3    3    0    0 -0.11871024792E+00 -0.10533022243E-01 -0.65738721226E-01  0.89046316431E+00  0.88000000000E+00 0.  1.
        -11    1    4    4    0    0  0.41707809681E-01 -0.72719593743E-02  0.87372886889E-02  0.43232211558E-01  0.51100000000E-03 0. -1.
         11    1    4    4    0    0  0.77202116120E-01  0.26338084686E-02  0.38511170763E-01  0.86316134500E-01  0.51100000000E-03 0.  1.
</event>
<event>
 8    1  0.1064839E+005  0.1043930E+01  0.7957747E-01            NaN
         13   -1    0    0    0    0  0.00000000000E+00  0.00000000000E+00  0.74505805969E-08  0.10566000000E+00  0.10566000000E+00 0. -1.
     999900   -1    0    0    0    0 -0.00000000000E+00 -0.00000000000E+00 -0.74505805969E-08  0.93827000000E+00  0.93827000000E+00 0.  1.
     999902    2    1    2    0    0 -0.11529497889E-01  0.15786607869E-01 -0.76385580301E-02  0.10229420540E+01  0.10227267240E+01 0.  0.
     999903    2    3    3    0    0  0.12961032823E+00  0.11446033483E-01 -0.22200295319E-02  0.13166844192E+00  0.20044979420E-01 0.  0.
         14    1    1    2    0    0  0.11529497889E-01 -0.15786607869E-01  0.76385580301E-02  0.20987946025E-01  0.00000000000E+00 0. -1.
     999901    1    3    3    0    0 -0.14113982612E+00  0.43405743862E-02 -0.54185284982E-02  0.89127361206E+00  0.88000000000E+00 0. -1.
        -11    1    4    4    0    0  0.48871943131E-01  0.14046905211E-01 -0.18152920312E-02  0.50885545861E-01  0.51100000000E-03 0. -1.
         11    1    4    4    0    0  0.80738385096E-01 -0.26008717283E-02 -0.40473750079E-03  0.80782896055E-01  0.51100000000E-03 0.  1.
</event>
<event>
 8    1  0.1064839E+005  0.1043930E+01  0.7957747E-01            NaN
         13   -1    0    0    0    0  0.00000000000E+00  0.00000000000E+00  0.74505805969E-08  0.10566000000E+00  0.10566000000E+00 0.  1.
     999900   -1    0    0    0    0 -0.00000000000E+00 -0.00000000000E+00 -0.74505805969E-08  0.93827000000E+00  0.93827000000E+00 0.  1.
     999902    2    1    2    0    0 -0.11143027261E-01  0.11176129792E-02 -0.22510490716E-01  0.10187876392E+01  0.10184773515E+01 0.  0.
     999903    2    3    3    0    0 -0.11198602441E+00  0.84808854376E-02  0.59438410979E-01  0.12921518550E+00  0.23470074216E-01 0.  0.
         14    1    1    2    0    0  0.11143027261E-01 -0.11176129792E-02  0.22510490716E-01  0.25142360820E-01  0.00000000000E+00 0.  1.
     999901    1    3    3    0    0  0.10084299715E+00 -0.73632724584E-02 -0.81948901695E-01  0.88957245368E+00  0.88000000000E+00 0.  1.
        -11    1    4    4    0    0 -0.73932809763E-01  0.97728444952E-02  0.27401464517E-01  0.79452314175E-01  0.51100000000E-03 0. -1.
         11    1    4    4    0    0 -0.38053214645E-01 -0.12919590576E-02  0.32036946462E-01  0.49762871326E-01  0.51100000000E-03 0.  1.
</event>
<event>
 8    1  0.1064839E+005  0.1043930E+01  0.7957747E-01            NaN
         13   -1    0    0    0    0  0.00000000000E+00  0.00000000000E+00  0.74505805969E-08  0.10566000000E+00  0.10566000000E+00 0. -1.
     999900   -1    0    0    0    0 -0.00000000000E+00 -0.00000000000E+00 -0.74505805969E-08  0.93827000000E+00  0.93827000000E+00 0.  1.
     999902    2    1    2    0    0 -0.60677161717E-02  0.10927852590E-01 -0.19813505180E-01  0.10205033031E+01  0.10202343757E+01 0.  0.
     999903    2    3    3    0    0 -0.11116443898E+00 -0.78128824329E-02 -0.69597160977E-01  0.13265480885E+00  0.18301908903E-01 0.  0.
         14    1    1    2    0    0  0.60677161717E-02 -0.10927852590E-01  0.19813505180E-01  0.23426696936E-01  0.00000000000E+00 0. -1.
     999901    1    3    3    0    0  0.10509672281E+00  0.18740735023E-01  0.49783655797E-01  0.88784849421E+00  0.88000000000E+00 0. -1.
        -11    1    4    4    0    0 -0.67306184531E-01 -0.40059164625E-02 -0.52379236368E-01  0.85381586811E-01  0.51100000000E-03 0.  1.
         11    1    4    4    0    0 -0.43858254448E-01 -0.38069659704E-02 -0.17217924610E-01  0.47273222039E-01  0.51100000000E-03 0. -1.
</event>
<event>
 8    1  0.1064839E+005  0.1043930E+01  0.7957747E-01            NaN
         13   -1    0    0    0    0  0.00000000000E+00  0.00000000000E+00  0.74505805969E-08  0.10566000000E+00  0.10566000000E+00 0. -1.
     999900   -1    0    0    0    0 -0.00000000000E+00 -0.00000000000E+00 -0.74505805969E-08  0.93827000000E+00  0.93827000000E+00 0. -1.
     999902    2    1    2    0    0 -0.91499067117E-02 -0.11241172624E-01 -0.18530770925E-01  0.10204039671E+01  0.10201327275E+01 0.  0.
     999903    2    3    3    0    0  0.62603692243E-01  0.90648431401E-02 -0.11404373782E+00  0.13210016763E+00  0.21049619663E-01 0.  0.
         14    1    1    2    0    0  0.91499067117E-02  0.11241172624E-01  0.18530770925E-01  0.23526032940E-01  0.00000000000E+00 0. -1.
     999901    1    3    3    0    0 -0.71753598955E-01 -0.20306015764E-01  0.95512966895E-01  0.88830379943E+00  0.88000000000E+00 0.  1.
        -11    1    4    4    0    0  0.20810752620E-01  0.67613609899E-02 -0.59133039498E-01  0.63053793767E-01  0.51100000000E-03 0.  1.
         11    1    4    4    0    0  0.41792939623E-01  0.23034821502E-02 -0.54910698322E-01  0.69046373862E-01  0.51100000000E-03 0. -1.
</event>
<event>
 8    1  0.1064839E+005  0.1043930E+01  0.7957747E-01            NaN
         13   -1    0    0    0    0  0.00000000000E+00  0.00000000000E+00  0.74505805969E-08  0.10566000000E+00  0.10566000000E+00 0. -1.
     999900   -1    0    0    0    0 -0.00000000000E+00 -0.00000000000E+00 -0.74505805969E-08  0.93827000000E+00  0.93827000000E+00 0.  1.
     999902    2    1    2    0    0  0.20808739597E-01  0.11006012277E-02  0.11269365926E-01  0.10202400533E+01  0.10199649762E+01 0.  0.
     999903    2    3    3    0    0  0.78063929985E-01 -0.29602718894E-01 -0.98879757082E-01  0.13099673451E+00  0.20313541341E-01 0.  0.
         14    1    1    2    0    0 -0.20808739597E-01 -0.11006012277E-02 -0.11269365926E-01  0.23689946709E-01  0.00000000000E+00 0.  1.
     999901    1    3    3    0    0 -0.57255190388E-01  0.30703320121E-01  0.11014912301E+00  0.88924331878E+00  0.88000000000E+00 0. -1.
        -11    1    4    4    0    0  0.34375251724E-01 -0.75960024891E-02 -0.28567610797E-01  0.45340122326E-01  0.51100000000E-03 0.  1.
         11    1    4    4    0    0  0.43688678261E-01 -0.22006716405E-01 -0.70312146285E-01  0.85656612187E-01  0.51100000000E-03 0. -1.
</event>
<event>
 8    1  0.1064839E+005  0.1043930E+01  0.7957747E-01            NaN
         13   -1    0    0    0    0  0.00000000000E+00  0.00000000000E+00  0.74505805969E-08  0.10566000000E+00  0.10566000000E+00 0.  1.
     999900   -1    0    0    0    0 -0.00000000000E+00 -0.00000000000E+00 -0.74505805969E-08  0.93827000000E+00  0.93827000000E+00 0. -1.
     999902    2    1    2    0    0 -0.79877780455E-02  0.18257996004E-01  0.11116805766E-01  0.10211102194E+01  0.10208551992E+01 0.  0.
     999903    2    3    3    0    0 -0.34459463585E-01 -0.70056217590E-01  0.10376453435E+00  0.13145649347E+00  0.20454897504E-01 0.  0.
         14    1    1    2    0    0  0.79877780455E-02 -0.18257996004E-01 -0.11116805766E-01  0.22819780600E-01  0.00000000000E+00 0.  1.
     999901    1    3    3    0    0  0.26471685540E-01  0.88314213594E-01 -0.92647728584E-01  0.88965372593E+00  0.88000000000E+00 0. -1.
        -11    1    4    4    0    0 -0.17384391038E-01 -0.55728094531E-01  0.73394847343E-01  0.93781140478E-01  0.51100000000E-03 0.  1.
         11    1    4    4    0    0 -0.17075072547E-01 -0.14328123059E-01  0.30369687006E-01  0.37675352988E-01  0.51100000000E-03 0. -1.
</event>
<event>
 8    1  0.1064839E+005  0.1043930E+01  0.7957747E-01            NaN
         13   -1    0    0    0    0  0.00000000000E+00  0.00000000000E+00  0.74505805969E-08  0.10566000000E+00  0.10566000000E+00 0. -1.
     999900   -1    0    0    0    0 -0.00000000000E+00 -0.00000000000E+00 -0.74505805969E-08  0.93827000000E+00  0.93827000000E+00 0. -1.
     999902    2    1    2    0    0  0.26519965956E-01 -0.61854911205E-02  0.54527188513E-02  0.10161576930E+01  0.10157781037E+01 0.  0.
     999903    2    3    3    0    0  0.86430694625E-01  0.43711570340E-01  0.83234343612E-01  0.12929299455E+00  0.20192972276E-01 0.  0.
         14    1    1    2    0    0 -0.26519965956E-01  0.61854911205E-02 -0.54527188513E-02  0.27772307027E-01  0.00000000000E+00 0. -1.
     999901    1    3    3    0    0 -0.59910728669E-01 -0.49897061460E-01 -0.77781624761E-01  0.88686469842E+00  0.88000000000E+00 0. -1.
        -11    1    4    4    0    0  0.16930414302E-01  0.12585636401E-01  0.28717314958E-01  0.35636813430E-01  0.51100000000E-03 0. -1.
         11    1    4    4    0    0  0.69500280322E-01  0.31125933939E-01  0.54517028654E-01  0.93656181124E-01  0.51100000000E-03 0.  1.
</event>
<event>
 8    1  0.1064839E+005  0.1043930E+01  0.7957747E-01            NaN
         13   -1    0    0    0    0  0.00000000000E+00  0.00000000000E+00  0.74505805969E-08  0.10566000000E+00  0.10566000000E+00 0. -1.
     999900   -1    0    0    0    0 -0.00000000000E+00 -0.00000000000E+00 -0.74505805969E-08  0.93827000000E+00  0.93827000000E+00 0.  1.
     999902    2    1    2    0    0  0.14029108872E-01 -0.11016632435E-01 -0.18411222558E-01  0.10182949614E+01  0.10179722360E+01 0.  0.
     999903    2    3    3    0    0  0.54361591194E-01 -0.57568717452E-02 -0.11819487992E+00  0.13172226138E+00  0.19809097293E-01 0.  0.
         14    1    1    2    0    0 -0.14029108872E-01  0.11016632435E-01  0.18411222558E-01  0.25635038561E-01  0.00000000000E+00 0. -1.
     999901    1    3    3    0    0 -0.40332482321E-01 -0.52597606894E-02  0.99783657358E-01  0.88657270006E+00  0.88000000000E+00 0. -1.
        -11    1    4    4    0    0  0.30499082088E-01 -0.11519633359E-01 -0.55193476842E-01  0.64105202346E-01  0.51100000000E-03 0. -1.
         11    1    4    4    0    0  0.23862509106E-01  0.57627616133E-02 -0.63001403074E-01  0.67617059035E-01  0.51100000000E-03 0.  1.
</event>
<event>
 8    1  0.1064839E+005  0.1043930E+01  0.7957747E-01            NaN
         13   -1    0    0    0    0  0.00000000000E+00  0.00000000000E+00  0.74505805969E-08  0.10566000000E+00  0.10566000000E+00 0.  1.
     999900   -1    0    0    0    0 -0.00000000000E+00 -0.00000000000E+00 -0.74505805969E-08  0.93827000000E+00  0.93827000000E+00 0. -1.
     999902    2    1    2    0    0 -0.97799199641E-02  0.21320053332E-01  0.95815267088E-02  0.10185923371E+01  0.10182771489E+01 0.  0.
     999903    2    3    3    0    0  0.63613122379E-01 -0.52158566226E-01 -0.93314243841E-01  0.12653113637E+00  0.23139468413E-01 0.  0.
         14    1    1    2    0    0  0.97799199641E-02 -0.21320053332E-01 -0.95815267088E-02  0.25337662928E-01  0.00000000000E+00 0. -1.
     999901    1    3    3    0    0 -0.73393042343E-01  0.73478619558E-01  0.10289577055E+00  0.89206120070E+00  0.88000000000E+00 0.  1.
        -11    1    4    4    0    0  0.14297706417E-01 -0.16554756048E-01 -0.40242756664E-01  0.45806385380E-01  0.51100000000E-03 0.  1.
         11    1    4    4    0    0  0.49315415961E-01 -0.35603810178E-01 -0.53071487177E-01  0.80724750992E-01  0.51100000000E-03 0. -1.
</event>
<event>
 8    1  0.1064839E+005  0.1043930E+01  0.7957747E-01            NaN
         13   -1    0    0    0    0  0.00000000000E+00  0.00000000000E+00  0.74505805969E-08  0.10566000000E+00  0.10566000000E+00 0.  1.
     999900   -1    0    0    0    0 -0.00000000000E+00 -0.00000000000E+00 -0.74505805969E-08  0.93827000000E+00  0.93827000000E+00 0. -1.
     999902    2    1    2    0    0 -0.19249503695E-01 -0.21013923839E-02  0.14288188585E-01  0.10198652628E+01  0.10195813076E+01 0.  0.
     999903    2    3    3    0    0 -0.11431109529E+00 -0.64174692568E-01  0.25391281507E-02  0.13249395316E+00  0.19046857433E-01 0.  0.
         14    1    1    2    0    0  0.19249503695E-01  0.21013923839E-02 -0.14288188585E-01  0.24064737179E-01  0.00000000000E+00 0.  1.
     999901    1    3    3    0    0  0.95061591599E-01  0.62073300184E-01  0.11749060435E-01  0.88737130966E+00  0.88000000000E+00 0. -1.
        -11    1    4    4    0    0 -0.95468927223E-01 -0.60760372913E-01  0.43782949613E-02  0.11325003121E+00  0.51100000000E-03 0. -1.
         11    1    4    4    0    0 -0.18842168070E-01 -0.34143196552E-02 -0.18391668106E-02  0.19243921945E-01  0.51100000000E-03 0.  1.
</event>
<event>
 8    1  0.1064839E+005  0.1043930E+01  0.7957747E-01            NaN
         13   -1    0    0    0    0  0.00000000000E+00  0.00000000000E+00  0.74505805969E-08  0.10566000000E+00  0.10566000000E+00 0.  1.
     999900   -1    0    0    0    0 -0.00000000000E+00 -0.00000000000E+00 -0.74505805969E-08  0.93827000000E+00  0.93827000000E+00 0.  1.
     999902    2    1    2    0    0  0.80447870817E-02  0.21399631738E-01 -0.29997399205E-02  0.10208722187E+01  0.10206117899E+01 0.  0.
     999903    2    3    3    0    0 -0.49848730932E-01 -0.16356823591E-01  0.11744671136E+00  0.12998246294E+00  0.18688740138E-01 0.  0.
         14    1    1    2    0    0 -0.80447870817E-02 -0.21399631738E-01  0.29997399205E-02  0.23057781274E-01  0.00000000000E+00 0. -1.
     999901    1    3    3    0    0  0.57893518014E-01  0.37756455328E-01 -0.12044645128E+00  0.89088975579E+00  0.88000000000E+00 0.  1.
        -11    1    4    4    0    0 -0.33458090854E-01 -0.13616741766E-01  0.58679410601E-01  0.68908590534E-01  0.51100000000E-03 0.  1.
         11    1    4    4    0    0 -0.16390640078E-01 -0.27400818247E-02  0.58767300759E-01  0.61073872401E-01  0.51100000000E-03 0. -1.
</event>
<event>
 8    1  0.1064839E+005  0.1043930E+01  0.7957747E-01            NaN
         13   -1    0    0    0    0  0.00000000000E+00  0.00000000000E+00  0.74505805969E-08  0.10566000000E+00  0.10566000000E+00 0.  1.
     999900   -1    0    0    0    0 -0.00000000000E+00 -0.00000000000E+00 -0.74505805969E-08  0.93827000000E+00  0.93827000000E+00 0.  1.
     999902    2    1    2    0    0  0.11774650742E-01 -0.96566704008E-02 -0.18448373743E-01  0.10200085415E+01  0.10197279973E+01 0.  0.
     999903    2    3    3    0    0  0.36702486923E-01 -0.70899541168E-01 -0.10480272155E+00  0.13331290058E+00  0.20369131850E-01 0.  0.
         14    1    1    2    0    0 -0.11774650742E-01  0.96566704008E-02  0.18448373743E-01  0.23921458507E-01  0.00000000000E+00 0.  1.
     999901    1    3    3    0    0 -0.24927836181E-01  0.61242870767E-01  0.86354347804E-01  0.88669564092E+00  0.88000000000E+00 0. -1.
        -11    1    4    4    0    0  0.22128515546E-01 -0.32648245701E-01 -0.66115932758E-01  0.76988030453E-01  0.51100000000E-03 0.  1.
         11    1    4    4    0    0  0.14573971377E-01 -0.38251295467E-01 -0.38686788789E-01  0.56324870123E-01  0.51100000000E-03 0. -1.
</event>
<event>
 8    1  0.1064839E+005  0.1043930E+01  0.7957747E-01            NaN
         13   -1    0    0    0    0  0.00000000000E+00  0.00000000000E+00  0.74505805969E-08  0.10566000000E+00  0.10566000000E+00 0. -1.
     999900   -1    0    0    0    0 -0.00000000000E+00 -0.00000000000E+00 -0.74505805969E-08  0.93827000000E+00  0.93827000000E+00 0. -1.
     999902    2    1    2    0    0  0.11537265200E-01  0.89753054481E-02 -0.18570234693E-01  0.10202970101E+01  0.10200232696E+01 0.  0.
     999903    2    3    3    0    0  0.88387265715E-01  0.16346203440E-01  0.91806412504E-01  0.13004802414E+00  0.20113778812E-01 0.  0.
         14    1    1    2    0    0 -0.11537265200E-01 -0.89753054481E-02  0.18570234693E-01  0.23632989924E-01  0.00000000000E+00 0. -1.
     999901    1    3    3    0    0 -0.76850000515E-01 -0.73708979923E-02 -0.11037664720E+00  0.89024898594E+00  0.88000000000E+00 0. -1.
        -11    1    4    4    0    0  0.27677690368E-01  0.25700337809E-02  0.41775015703E-01  0.50180401311E-01  0.51100000000E-03 0.  1.
         11    1    4    4    0    0  0.60709575348E-01  0.13776169660E-01  0.50031396800E-01  0.79867622828E-01  0.51100000000E-03 0. -1.
</event>
<event>
 8    1  0.1064839E+005  0.1043930E+01  0.7957747E-01            NaN
         13   -1    0    0    0    0  0.00000000000E+00  0.00000000000E+00  0.74505805969E-08  0.10566000000E+00  0.10566000000E+00 0. -1.
     999900   -1    0    0    0    0 -0.00000000000E+00 -0.00000000000E+00 -0.74505805969E-08  0.93827000000E+00  0.93827000000E+00 0.  1.
     999902    2    1    2    0    0 -0.96181350715E-02 -0.21007405033E-02  0.21771510709E-01  0.10200360612E+01  0.10197561698E+01 0.  0.
     999903    2    3    3    0    0 -0.67668576462E-02  0.12753672125E+00 -0.12003211239E-01  0.12989296421E+00  0.20413217318E-01 0.  0.
         14    1    1    2    0    0  0.96181350715E-02  0.21007405033E-02 -0.21771510709E-01  0.23893938801E-01  0.00000000000E+00 0.  1.
     999901    1    3    3    0    0 -0.28512774253E-02 -0.12963746175E+00  0.33774721948E-01  0.89014309699E+00  0.88000000000E+00 0. -1.
        -11    1    4    4    0    0 -0.81025951001E-02  0.57966181470E-01 -0.14360304009E-01  0.60267816402E-01  0.51100000000E-03 0.  1.
         11    1    4    4    0    0  0.13357374539E-02  0.69570539782E-01  0.23570927704E-02  0.69625147809E-01  0.51100000000E-03 0. -1.
</event>
<event>
 8    1  0.1064839E+005  0.1043930E+01  0.7957747E-01            NaN
         13   -1    0    0    0    0  0.00000000000E+00  0.00000000000E+00  0.74505805969E-08  0.10566000000E+00  0.10566000000E+00 0.  1.
     999900   -1    0    0    0    0 -0.00000000000E+00 -0.00000000000E+00 -0.74505805969E-08  0.93827000000E+00  0.93827000000E+00 0.  1.
     999902    2    1    2    0    0 -0.14548355508E-02 -0.23177076989E-01 -0.45870542298E-02  0.10202586141E+01  0.10199839730E+01 0.  0.
     999903    2    3    3    0    0  0.75084790354E-01 -0.38139492129E-02 -0.10528736565E+00  0.13100398365E+00  0.20599573185E-01 0.  0.
         14    1    1    2    0    0  0.14548355508E-02  0.23177076989E-01  0.45870542298E-02  0.23671385907E-01  0.00000000000E+00 0.  1.
     999901    1    3    3    0    0 -0.76539625905E-01 -0.19363127776E-01  0.10070031142E+00  0.88925463045E+00  0.88000000000E+00 0. -1.
        -11    1    4    4    0    0  0.46780424591E-01  0.24676753633E-02 -0.79096797893E-01  0.91929658460E-01  0.51100000000E-03 0.  1.
         11    1    4    4    0    0  0.28304365763E-01 -0.62816245762E-02 -0.26190567754E-01  0.39074325187E-01  0.51100000000E-03 0. -1.
</event>
<event>
 8    1  0.1064839E+005  0.1043930E+01  0.7957747E-01            NaN
         13   -1    0    0    0    0  0.00000000000E+00  0.00000000000E+00  0.74505805969E-08  0.10566000000E+00  0.10566000000E+00 0. -1.
     999900   -1    0    0    0    0 -0.00000000000E+00 -0.00000000000E+00 -0.74505805969E-08  0.93827000000E+00  0.93827000000E+00 0. -1.
     999902    2    1    2    0    0 -0.14288372356E-01  0.18552428930E-01  0.46800700795E-02  0.10200500239E+01  0.10197704634E+01 0.  0.
     999903    2    3    3    0    0  0.69937335449E-01  0.81485359412E-01  0.72727484374E-01  0.13118278171E+00  0.19711431876E-01 0.  0.
         14    1    1    2    0    0  0.14288372356E-01 -0.18552428930E-01 -0.46800700795E-02  0.23879976125E-01  0.00000000000E+00 0. -1.
     999901    1    3    3    0    0 -0.84225707805E-01 -0.62932930482E-01 -0.68047414295E-01  0.88886724216E+00  0.88000000000E+00 0. -1.
        -11    1    4    4    0    0  0.48488916914E-02  0.38676947653E-03  0.14183063799E-02  0.50925489935E-02  0.51100000000E-03 0.  1.
         11    1    4    4    0    0  0.65088443758E-01  0.81098589935E-01  0.71309177995E-01  0.12609023272E+00  0.51100000000E-03 0. -1.
</event>
<event>
 8    1  0.1064839E+005  0.1043930E+01  0.7957747E-01            NaN
         13   -1    0    0    0    0  0.00000000000E+00  0.00000000000E+00  0.74505805969E-08  0.10566000000E+00  0.10566000000E+00 0.  1.
     999900   -1    0    0    0    0 -0.00000000000E+00 -0.00000000000E+00 -0.74505805969E-08  0.93827000000E+00  0.93827000000E+00 0. -1.
     999902    2    1    2    0    0  0.86844441905E-02 -0.15339798711E-01 -0.14842893199E-01  0.10208856846E+01  0.10206255633E+01 0.  0.
     999903    2    3    3    0    0 -0.10255699332E+00 -0.70379078127E-01 -0.38897080784E-01  0.13185104877E+00  0.20014111332E-01 0.  0.
         14    1    1    2    0    0 -0.86844441905E-02  0.15339798711E-01  0.14842893199E-01  0.23044315436E-01  0.00000000000E+00 0. -1.
     999901    1    3    3    0    0  0.11124143751E+00  0.55039279416E-01  0.24054187585E-01  0.88903463579E+00  0.88000000000E+00 0.  1.
        -11    1    4    4    0    0 -0.50994590710E-01 -0.42602997168E-01 -0.12540260334E-01  0.67623833814E-01  0.51100000000E-03 0.  1.
         11    1    4    4    0    0 -0.51562402608E-01 -0.27776080959E-01 -0.26356820450E-01  0.64227214959E-01  0.51100000000E-03 0. -1.
</event>
<event>
 8    1  0.1064839E+005  0.1043930E+01  0.7957747E-01            NaN
         13   -1    0    0    0    0  0.00000000000E+00  0.00000000000E+00  0.74505805969E-08  0.10566000000E+00  0.10566000000E+00 0.  1.
     999900   -1    0    0    0    0 -0.00000000000E+00 -0.00000000000E+00 -0.74505805969E-08  0.93827000000E+00  0.93827000000E+00 0.  1.
     999902    2    1    2    0    0 -0.23600841000E-01  0.33825083603E-02 -0.14230455792E-02  0.10200455675E+01  0.10197659014E+01 0.  0.
     999903    2    3    3    0    0  0.24470673614E-01 -0.69797437398E-01 -0.10469858979E+00  0.12969057478E+00  0.19681319752E-01 0.  0.
         14    1    1    2    0    0  0.23600841000E-01 -0.33825083603E-02  0.14230455792E-02  0.23884432533E-01  0.00000000000E+00 0. -1.
     999901    1    3    3    0    0 -0.48071514614E-01  0.73179945758E-01  0.10327554421E+00  0.89035499269E+00  0.88000000000E+00 0. -1.
        -11    1    4    4    0    0  0.27711648653E-01 -0.65008307035E-01 -0.98055719467E-01  0.12086852649E+00  0.51100000000E-03 0.  1.
         11    1    4    4    0    0 -0.32409750384E-02 -0.47891303624E-02 -0.66428703228E-02  0.88220482856E-02  0.51100000000E-03 0. -1.
</event>
<event>
 8    1  0.1064839E+005  0.1043930E+01  0.7957747E-01            NaN
         13   -1    0    0    0    0  0.00000000000E+00  0.00000000000E+00  0.74505805969E-08  0.10566000000E+00  0.10566000000E+00 0.  1.
     999900   -1    0    0    0    0 -0.00000000000E+00 -0.00000000000E+00 -0.74505805969E-08  0.93827000000E+00  0.93827000000E+00 0. -1.
     999902    2    1    2    0    0 -0.12442396090E-02  0.14401762777E-01 -0.10324203205E-01  0.10261663271E+01  0.10260125646E+01 0.  0.
     999903    2    3    3    0    0  0.37853394077E-01 -0.10592598289E-01  0.12704037490E+00  0.13430178000E+00  0.18778409847E-01 0.  0.
         14    1    1    2    0    0  0.12442396090E-02 -0.14401762777E-01  0.10324203205E-01  0.17763672906E-01  0.00000000000E+00 0. -1.
     999901    1    3    3    0    0 -0.39097633686E-01  0.24994361066E-01 -0.13736457810E+00  0.89186454709E+00  0.88000000000E+00 0. -1.
        -11    1    4    4    0    0  0.18472201596E-01  0.42272667519E-02  0.49193467190E-01  0.52719544299E-01  0.51100000000E-03 0.  1.
         11    1    4    4    0    0  0.19381192481E-01 -0.14819865041E-01  0.77846907706E-01  0.81582235702E-01  0.51100000000E-03 0. -1.
</event>
<event>
 8    1  0.1064839E+005  0.1043930E+01  0.7957747E-01            NaN
         13   -1    0    0    0    0  0.00000000000E+00  0.00000000000E+00  0.74505805969E-08  0.10566000000E+00  0.10566000000E+00 0.  1.
     999900   -1    0    0    0    0 -0.00000000000E+00 -0.00000000000E+00 -0.74505805969E-08  0.93827000000E+00  0.93827000000E+00 0. -1.
     999902    2    1    2    0    0 -0.19360990689E-01 -0.19878003874E-02 -0.10528675587E-01  0.10218019111E+01  0.10215622806E+01 0.  0.
     999903    2    3    3    0    0 -0.11058761399E+00  0.51853854178E-01 -0.51155604716E-01  0.13451854711E+00  0.23662228554E-01 0.  0.
         14    1    1    2    0    0  0.19360990689E-01  0.19878003874E-02  0.10528675587E-01  0.22128088947E-01  0.00000000000E+00 0.  1.
     999901    1    3    3    0    0  0.91226623304E-01 -0.53841654565E-01  0.40626929129E-01  0.88728336395E+00  0.88000000000E+00 0.  1.
        -11    1    4    4    0    0 -0.10341483144E+00  0.40870402129E-01 -0.47252938059E-01  0.12082267340E+00  0.51100000000E-03 0. -1.
         11    1    4    4    0    0 -0.71727825504E-02  0.10983452049E-01 -0.39026666568E-02  0.13695873702E-01  0.51100000000E-03 0.  1.
</event>
<event>
 8    1  0.1181939E+005  0.1043930E+01  0.7957747E-01            NaN
         13   -1    0    0    0    0  0.00000000000E+00  0.00000000000E+00  0.74505805969E-08  0.10566000000E+00  0.10566000000E+00 0. -1.
     999900   -1    0    0    0    0 -0.00000000000E+00 -0.00000000000E+00 -0.74505805969E-08  0.93827000000E+00  0.93827000000E+00 0. -1.
     999902    2    1    2    0    0  0.24681679743E-01  0.99920387710E-02 -0.17769764888E-01  0.10119176477E+01  0.10114111603E+01 0.  0.
     999903    2    3    3    0    0  0.36733397573E-01 -0.59859934303E-01 -0.10154137089E+00  0.12510186978E+00  0.20181020483E-01 0.  0.
         14    1    1    2    0    0 -0.24681679743E-01 -0.99920387710E-02  0.17769764888E-01  0.32012352271E-01  0.00000000000E+00 0. -1.
     999901    1    3    3    0    0 -0.12051717830E-01  0.69851973074E-01  0.83771606006E-01  0.88681577795E+00  0.88000000000E+00 0.  1.
        -11    1    4    4    0    0  0.15386443438E-01 -0.17190885109E-01 -0.19580890572E-01  0.30264526580E-01  0.51100000000E-03 0.  1.
         11    1    4    4    0    0  0.21346954135E-01 -0.42669049194E-01 -0.81960480322E-01  0.94837343201E-01  0.51100000000E-03 0. -1.
</event>
<event>
 8    1  0.1064839E+005  0.1043930E+01  0.7957747E-01            NaN
         13   -1    0    0    0    0  0.00000000000E+00  0.00000000000E+00  0.74505805969E-08  0.10566000000E+00  0.10566000000E+00 0.  1.
     999900   -1    0    0    0    0 -0.00000000000E+00 -0.00000000000E+00 -0.74505805969E-08  0.93827000000E+00  0.93827000000E+00 0. -1.
     999902    2    1    2    0    0  0.96789958837E-02 -0.17087910088E-01  0.96527798177E-02  0.10220472262E+01  0.10218129363E+01 0.  0.
     999903    2    3    3    0    0 -0.10203563894E+00 -0.51109881552E-01 -0.62172655977E-01  0.13143140135E+00  0.19628614413E-01 0.  0.
         14    1    1    2    0    0 -0.96789958837E-02  0.17087910088E-01 -0.96527798177E-02  0.21882773835E-01  0.00000000000E+00 0. -1.
     999901    1    3    3    0    0  0.11171463483E+00  0.34021971464E-01  0.71825435795E-01  0.89061582481E+00  0.88000000000E+00 0.  1.
        -11    1    4    4    0    0 -0.57786171399E-01 -0.28946556508E-01 -0.46120839337E-01  0.79401118889E-01  0.51100000000E-03 0.  1.
         11    1    4    4    0    0 -0.44249467545E-01 -0.22163325044E-01 -0.16051816640E-01  0.52030282465E-01  0.51100000000E-03 0. -1.
</event>
<event>
 8    1  0.1064839E+005  0.1043930E+01  0.7957747E-01            NaN
         13   -1    0    0    0    0  0.00000000000E+00  0.00000000000E+00  0.74505805969E-08  0.10566000000E+00  0.10566000000E+00 0. -1.
     999900   -1    0    0    0    0 -0.00000000000E+00 -0.00000000000E+00 -0.74505805969E-08  0.93827000000E+00  0.93827000000E+00 0. -1.
     999902    2    1    2    0    0  0.87599074875E-02 -0.11161203148E-01 -0.20681258978E-01  0.10188496709E+01  0.10185409314E+01 0.  0.
     999903    2    3    3    0    0 -0.83478444892E-01 -0.46324153582E-01 -0.87016654302E-01  0.13084925907E+00  0.20857912339E-01 0.  0.
         14    1    1    2    0    0 -0.87599074875E-02  0.11161203148E-01  0.20681258978E-01  0.25080329100E-01  0.00000000000E+00 0. -1.
     999901    1    3    3    0    0  0.92238352379E-01  0.35162950434E-01  0.66335395324E-01  0.88800041183E+00  0.88000000000E+00 0.  1.
        -11    1    4    4    0    0 -0.42540867209E-01 -0.35407267359E-01 -0.49061757143E-01  0.73964296115E-01  0.51100000000E-03 0.  1.
         11    1    4    4    0    0 -0.40937577683E-01 -0.10916886222E-01 -0.37954897159E-01  0.56884962957E-01  0.51100000000E-03 0. -1.
</event>
<event>
 8    1  0.1064839E+005  0.1043930E+01  0.7957747E-01            NaN
         13   -1    0    0    0    0  0.00000000000E+00  0.00000000000E+00  0.74505805969E-08  0.10566000000E+00  0.10566000000E+00 0.  1.
     999900   -1    0    0    0    0 -0.00000000000E+00 -0.00000000000E+00 -0.74505805969E-08  0.93827000000E+00  0.93827000000E+00 0.  1.
     999902    2    1    2    0    0  0.12051476768E-01  0.12149517910E-01  0.71370441408E-02  0.10253885255E+01  0.10252208747E+01 0.  0.
     999903    2    3    3    0    0  0.48600548112E-01  0.11344668666E+00 -0.55427153765E-01  0.13661902227E+00  0.18984832886E-01 0.  0.
         14    1    1    2    0    0 -0.12051476768E-01 -0.12149517910E-01 -0.71370441408E-02  0.18541474505E-01  0.00000000000E+00 0. -1.
     999901    1    3    3    0    0 -0.36549071344E-01 -0.10129716875E+00  0.62564197906E-01  0.88876950323E+00  0.88000000000E+00 0.  1.
        -11    1    4    4    0    0  0.13968941075E-01  0.56364020741E-01 -0.27283947583E-01  0.64161585591E-01  0.51100000000E-03 0. -1.
         11    1    4    4    0    0  0.34631607037E-01  0.57082665917E-01 -0.28143206183E-01  0.72457436674E-01  0.51100000000E-03 0.  1.
</event>
<event>
 8    1  0.1064839E+005  0.1043930E+01  0.7957747E-01            NaN
         13   -1    0    0    0    0  0.00000000000E+00  0.00000000000E+00  0.74505805969E-08  0.10566000000E+00  0.10566000000E+00 0.  1.
     999900   -1    0    0    0    0 -0.00000000000E+00 -0.00000000000E+00 -0.74505805969E-08  0.93827000000E+00  0.93827000000E+00 0. -1.
     999902    2    1    2    0    0  0.18502670040E-02 -0.23470282938E-01 -0.11415080576E-02  0.10203592404E+01  0.10200869564E+01 0.  0.
     999903    2    3    3    0    0  0.33172218802E-01  0.35916299281E-01 -0.11870026720E+00  0.13000656155E+00  0.20532314993E-01 0.  0.
         14    1    1    2    0    0 -0.18502670040E-02  0.23470282938E-01  0.11415080576E-02  0.23570759636E-01  0.00000000000E+00 0.  1.
     999901    1    3    3    0    0 -0.31321951798E-01 -0.59386582220E-01  0.11755875914E+00  0.89035267881E+00  0.88000000000E+00 0.  1.
        -11    1    4    4    0    0  0.14608863765E-01  0.13927401177E-01 -0.25866365190E-01  0.32813432817E-01  0.51100000000E-03 0. -1.
         11    1    4    4    0    0  0.18563355037E-01  0.21988898104E-01 -0.92833902012E-01  0.97193128737E-01  0.51100000000E-03 0.  1.
</event>
<event>
 8    1  0.1064839E+005  0.1043930E+01  0.7957747E-01            NaN
         13   -1    0    0    0    0  0.00000000000E+00  0.00000000000E+00  0.74505805969E-08  0.10566000000E+00  0.10566000000E+00 0. -1.
     999900   -1    0    0    0    0 -0.00000000000E+00 -0.00000000000E+00 -0.74505805969E-08  0.93827000000E+00  0.93827000000E+00 0.  1.
     999902    2    1    2    0    0  0.98974084844E-02  0.21078832814E-01 -0.68820534214E-03  0.10206330149E+01  0.10203670916E+01 0.  0.
     999903    2    3    3    0    0  0.32008406227E-01 -0.10393146759E+00 -0.66594458174E-01  0.12908374225E+00  0.20037530502E-01 0.  0.
         14    1    1    2    0    0 -0.98974084844E-02 -0.21078832814E-01  0.68820534214E-03  0.23296985086E-01  0.00000000000E+00 0.  1.
     999901    1    3    3    0    0 -0.22110997743E-01  0.12501030040E+00  0.65906252832E-01  0.89154927267E+00  0.88000000000E+00 0.  1.
        -11    1    4    4    0    0  0.24179245464E-01 -0.81620537432E-01 -0.61150425266E-01  0.10481499737E+00  0.51100000000E-03 0. -1.
         11    1    4    4    0    0  0.78291607633E-02 -0.22310930158E-01 -0.54440329077E-02  0.24268744880E-01  0.51100000000E-03 0.  1.
</event>
<event>
 8    1  0.1064839E+005  0.1043930E+01  0.7957747E-01            NaN
         13   -1    0    0    0    0  0.00000000000E+00  0.00000000000E+00  0.74505805969E-08  0.10566000000E+00  0.10566000000E+00 0.  1.
     999900   -1    0    0    0    0 -0.00000000000E+00 -0.00000000000E+00 -0.74505805969E-08  0.93827000000E+00  0.93827000000E+00 0.  1.
     999902    2    1    2    0    0 -0.47679130025E-02  0.50470699031E-03 -0.23798797097E-01  0.10196530466E+01  0.10193640002E+01 0.  0.
     999903    2    3    3    0    0 -0.35667592378E-01 -0.52187667347E-01 -0.11515395215E+00  0.13281763861E+00  0.19605169241E-01 0.  0.
         14    1    1    2    0    0  0.47679130025E-02 -0.50470699031E-03  0.23798797097E-01  0.24276953408E-01  0.00000000000E+00 0.  1.
     999901    1    3    3    0    0  0.30899679375E-01  0.52692374337E-01  0.91355155052E-01  0.88683540798E+00  0.88000000000E+00 0. -1.
        -11    1    4    4    0    0 -0.16000386494E-01 -0.29360852612E-01 -0.78767918481E-01  0.85572882018E-01  0.51100000000E-03 0. -1.
         11    1    4    4    0    0 -0.19667205884E-01 -0.22826814735E-01 -0.36386033667E-01  0.47244756590E-01  0.51100000000E-03 0.  1.
</event>
<event>
 8    1  0.1064839E+005  0.1043930E+01  0.7957747E-01            NaN
         13   -1    0    0    0    0  0.00000000000E+00  0.00000000000E+00  0.74505805969E-08  0.10566000000E+00  0.10566000000E+00 0. -1.
     999900   -1    0    0    0    0 -0.00000000000E+00 -0.00000000000E+00 -0.74505805969E-08  0.93827000000E+00  0.93827000000E+00 0.  1.
     999902    2    1    2    0    0 -0.14443707257E-01  0.18320060973E-01  0.65994996551E-02  0.10196854396E+01  0.10193971733E+01 0.  0.
     999903    2    3    3    0    0  0.21591614416E-01 -0.12387509029E+00 -0.26496757792E-02  0.12749512767E+00  0.20898588216E-01 0.  0.
         14    1    1    2    0    0  0.14443707257E-01 -0.18320060973E-01 -0.65994996551E-02  0.24244560402E-01  0.00000000000E+00 0.  1.
     999901    1    3    3    0    0 -0.36035321673E-01  0.14219515127E+00  0.92491754343E-02  0.89219031193E+00  0.88000000000E+00 0. -1.
        -11    1    4    4    0    0  0.15233793890E-01 -0.11733227262E+00 -0.29117571132E-02  0.11835400342E+00  0.51100000000E-03 0.  1.
         11    1    4    4    0    0  0.63578205267E-02 -0.65428176720E-02  0.26208133405E-03  0.91411242506E-02  0.51100000000E-03 0. -1.
</event>
<event>
 8    1  0.1064839E+005  0.1043930E+01  0.7957747E-01            NaN
         13   -1    0    0    0    0  0.00000000000E+00  0.00000000000E+00  0.74505805969E-08  0.10566000000E+00  0.10566000000E+00 0. -1.
     999900   -1    0    0    0    0 -0.00000000000E+00 -0.00000000000E+00 -0.74505805969E-08  0.93827000000E+00  0.93827000000E+00 0.  1.
     999902    2    1    2    0    0  0.19065735511E-01 -0.11298475318E-01 -0.96850052424E-02  0.10197441128E+01  0.10194572568E+01 0.  0.
     999903    2    3    3    0    0 -0.27369977308E-01 -0.10222692454E+00 -0.74990443544E-01  0.13143726342E+00  0.21277401981E-01 0.  0.
         14    1    1    2    0    0 -0.19065735511E-01  0.11298475318E-01  0.96850052424E-02  0.24185887241E-01  0.00000000000E+00 0.  1.
     999901    1    3    3    0    0  0.46435712819E-01  0.90928449221E-01  0.65305438302E-01  0.88830684933E+00  0.88000000000E+00 0. -1.
        -11    1    4    4    0    0 -0.23639073735E-01 -0.95065769796E-01 -0.61378624303E-01  0.11560234875E+00  0.51100000000E-03 0.  1.
         11    1    4    4    0    0 -0.37309035728E-02 -0.71611547430E-02 -0.13611819242E-01  0.15834914676E-01  0.51100000000E-03 0. -1.
</event>
<event>
 8    1  0.1064839E+005  0.1043930E+01  0.7957747E-01            NaN
         13   -1    0    0    0    0  0.00000000000E+00  0.00000000000E+00  0.74505805969E-08  0.10566000000E+00  0.10566000000E+00 0. -1.
     999900   -1    0    0    0    0 -0.00000000000E+00 -0.00000000000E+00 -0.74505805969E-08  0.93827000000E+00  0.93827000000E+00 0. -1.
     999902    2    1    2    0    0  0.13243581460E-01 -0.17898859494E-01  0.87460696645E-02  0.10200081406E+01  0.10197275870E+01 0.  0.
     999903    2    3    3    0    0 -0.12631385383E+00 -0.12064316973E-01 -0.90377108724E-02  0.12881423217E+00  0.20265457720E-01 0.  0.
         14    1    1    2    0    0 -0.13243581460E-01  0.17898859494E-01 -0.87460696645E-02  0.23921859369E-01  0.00000000000E+00 0.  1.
     999901    1    3    3    0    0  0.13955743529E+00 -0.58345425211E-02  0.17783780537E-01  0.89119390846E+00  0.88000000000E+00 0. -1.
        -11    1    4    4    0    0 -0.68419953218E-01 -0.93820465712E-03 -0.13284732356E-01  0.69705921278E-01  0.51100000000E-03 0. -1.
         11    1    4    4    0    0 -0.57893900616E-01 -0.11126112316E-01  0.42470214832E-02  0.59108310890E-01  0.51100000000E-03 0.  1.
</event>
<event>
 8    1  0.1064839E+005  0.1043930E+01  0.7957747E-01            NaN
         13   -1    0    0    0    0  0.00000000000E+00  0.00000000000E+00  0.74505805969E-08  0.10566000000E+00  0.10566000000E+00 0. -1.
     999900   -1    0    0    0    0 -0.00000000000E+00 -0.00000000000E+00 -0.74505805969E-08  0.93827000000E+00  0.93827000000E+00 0.  1.
     999902    2    1    2    0    0  0.65151353273E-02  0.12602278781E-02 -0.23032895636E-01  0.10199602390E+01  0.10196785472E+01 0.  0.
     999903    2    3    3    0    0 -0.92718225943E-02 -0.57181346462E-01  0.11178038173E+00  0.12763783904E+00  0.20997407879E-01 0.  0.
         14    1    1    2    0    0 -0.65151353273E-02 -0.12602278781E-02  0.23032895636E-01  0.23969761034E-01  0.00000000000E+00 0. -1.
     999901    1    3    3    0    0  0.15786957922E-01  0.58441574340E-01 -0.13481327737E+00  0.89232239992E+00  0.88000000000E+00 0.  1.
        -11    1    4    4    0    0 -0.84215297594E-02 -0.10912494118E-01  0.39221490811E-01  0.41576329249E-01  0.51100000000E-03 0.  1.
         11    1    4    4    0    0 -0.85029283491E-03 -0.46268852344E-01  0.72558890921E-01  0.86061509793E-01  0.51100000000E-03 0. -1.
</event>
<event>
 8    1  0.1064839E+005  0.1043930E+01  0.7957747E-01            NaN
         13   -1    0    0    0    0  0.00000000000E+00  0.00000000000E+00  0.74505805969E-08  0.10566000000E+00  0.10566000000E+00 0.  1.
     999900   -1    0    0    0    0 -0.00000000000E+00 -0.00000000000E+00 -0.74505805969E-08  0.93827000000E+00  0.93827000000E+00 0. -1.
     999902    2    1    2    0    0  0.27582583421E-02  0.71037131312E-02 -0.21461691679E-01  0.10211555639E+01  0.10209015676E+01 0.  0.
     999903    2    3    3    0    0  0.11109970853E+00  0.37069912050E-01  0.54518439539E-01  0.13075743765E+00  0.20197119538E-01 0.  0.
         14    1    1    2    0    0 -0.27582583421E-02 -0.71037131312E-02  0.21461691679E-01  0.22774436087E-01  0.00000000000E+00 0.  1.
     999901    1    3    3    0    0 -0.10834145019E+00 -0.29966198919E-01 -0.75980131218E-01  0.89039812626E+00  0.88000000000E+00 0.  1.
        -11    1    4    4    0    0  0.38953755080E-01  0.23305209277E-01  0.20260579631E-01  0.49711970614E-01  0.51100000000E-03 0. -1.
         11    1    4    4    0    0  0.72145953448E-01  0.13764702773E-01  0.34257859908E-01  0.81045467041E-01  0.51100000000E-03 0.  1.
</event>
<event>
 8    1  0.1064839E+005  0.1043930E+01  0.7957747E-01            NaN
         13   -1    0    0    0    0  0.00000000000E+00  0.00000000000E+00  0.74505805969E-08  0.10566000000E+00  0.10566000000E+00 0.  1.
     999900   -1    0    0    0    0 -0.00000000000E+00 -0.00000000000E+00 -0.74505805969E-08  0.93827000000E+00  0.93827000000E+00 0.  1.
     999902    2    1    2    0    0  0.33822213510E-02  0.23223770370E-01  0.25171138192E-02  0.10203266360E+01  0.10200535894E+01 0.  0.
     999903    2    3    3    0    0 -0.30009894787E-01  0.39312151711E-01 -0.11976116744E+00  0.13109896687E+00  0.19954017882E-01 0.  0.
         14    1    1    2    0    0 -0.33822213510E-02 -0.23223770370E-01 -0.25171138192E-02  0.23603364028E-01  0.00000000000E+00 0. -1.
     999901    1    3    3    0    0  0.33392116138E-01 -0.16088381341E-01  0.12227828126E+00  0.88922766911E+00  0.88000000000E+00 0. -1.
        -11    1    4    4    0    0 -0.28263324968E-01  0.24663776773E-01 -0.73189896024E-01  0.82244388404E-01  0.51100000000E-03 0. -1.
         11    1    4    4    0    0 -0.17465698191E-02  0.14648374938E-01 -0.46571271416E-01  0.48854578463E-01  0.51100000000E-03 0.  1.
</event>
<event>
 8    1  0.1064839E+005  0.1043930E+01  0.7957747E-01            NaN
         13   -1    0    0    0    0  0.00000000000E+00  0.00000000000E+00  0.74505805969E-08  0.10566000000E+00  0.10566000000E+00 0. -1.
     999900   -1    0    0    0    0 -0.00000000000E+00 -0.00000000000E+00 -0.74505805969E-08  0.93827000000E+00  0.93827000000E+00 0. -1.
     999902    2    1    2    0    0 -0.14917277373E-01 -0.89405110630E-02  0.21880801719E-01  0.10159795548E+01  0.10155950120E+01 0.  0.
     999903    2    3    3    0    0 -0.93271726108E-01 -0.71505926566E-01 -0.45316202890E-01  0.12774012297E+00  0.21243077615E-01 0.  0.
         14    1    1    2    0    0  0.14917277373E-01  0.89405110630E-02 -0.21880801719E-01  0.27950445187E-01  0.00000000000E+00 0.  1.
     999901    1    3    3    0    0  0.78354448736E-01  0.62565415503E-01  0.67197004609E-01  0.88823943184E+00  0.88000000000E+00 0. -1.
        -11    1    4    4    0    0 -0.82149703093E-01 -0.64667580551E-01 -0.46882349269E-01  0.11458047603E+00  0.51100000000E-03 0. -1.
         11    1    4    4    0    0 -0.11122023015E-01 -0.68383460143E-02  0.15661463785E-02  0.13159646942E-01  0.51100000000E-03 0.  1.
</event>
<event>
 8    1  0.1064839E+005  0.1043930E+01  0.7957747E-01            NaN
         13   -1    0    0    0    0  0.00000000000E+00  0.00000000000E+00  0.74505805969E-08  0.10566000000E+00  0.10566000000E+00 0. -1.
     999900   -1    0    0    0    0 -0.00000000000E+00 -0.00000000000E+00 -0.74505805969E-08  0.93827000000E+00  0.93827000000E+00 0.  1.
     999902    2    1    2    0    0  0.92656978474E-02 -0.13879001692E-01  0.16382559478E-01  0.10205447889E+01  0.10202768242E+01 0.  0.
     999903    2    3    3    0    0 -0.80015556126E-02 -0.76501261274E-01 -0.10332015852E+00  0.13006826131E+00  0.18061826483E-01 0.  0.
         14    1    1    2    0    0 -0.92656978474E-02  0.13879001692E-01 -0.16382559478E-01  0.23385211131E-01  0.00000000000E+00 0. -1.
     999901    1    3    3    0    0  0.17267253460E-01  0.62622259582E-01  0.11970271799E+00  0.89047652756E+00  0.88000000000E+00 0. -1.
        -11    1    4    4    0    0 -0.53830677976E-02 -0.22141240460E-01 -0.44071356823E-01  0.49616101835E-01  0.51100000000E-03 0. -1.
         11    1    4    4    0    0 -0.26184878150E-02 -0.54360020814E-01 -0.59248801693E-01  0.80452159476E-01  0.51100000000E-03 0.  1.
</event>
<event>
 8    1  0.1064839E+005  0.1043930E+01  0.7957747E-01            NaN
         13   -1    0    0    0    0  0.00000000000E+00  0.00000000000E+00  0.74505805969E-08  0.10566000000E+00  0.10566000000E+00 0. -1.
     999900   -1    0    0    0    0 -0.00000000000E+00 -0.00000000000E+00 -0.74505805969E-08  0.93827000000E+00  0.93827000000E+00 0.  1.
     999902    2    1    2    0    0  0.13736513328E-01  0.41072720935E-02  0.18878772937E-01  0.10202241031E+01  0.10199486511E+01 0.  0.
     999903    2    3    3    0    0 -0.34343962467E-01  0.94545970934E-01  0.83018516112E-01  0.13196468315E+00  0.20103611675E-01 0.  0.
         14    1    1    2    0    0 -0.13736513328E-01 -0.41072720935E-02 -0.18878772937E-01  0.23705896947E-01  0.00000000000E+00 0.  1.
     999901    1    3    3    0    0  0.48080475795E-01 -0.90438698840E-01 -0.64139743175E-01  0.88825941991E+00  0.88000000000E+00 0. -1.
        -11    1    4    4    0    0 -0.29008571967E-01  0.68126988681E-01  0.50039413706E-01  0.89369949532E-01  0.51100000000E-03 0.  1.
         11    1    4    4    0    0 -0.53353905001E-02  0.26418982253E-01  0.32979102406E-01  0.42594733613E-01  0.51100000000E-03 0. -1.
</event>
<event>
 8    1  0.1064839E+005  0.1043930E+01  0.7957747E-01            NaN
         13   -1    0    0    0    0  0.00000000000E+00  0.00000000000E+00  0.74505805969E-08  0.10566000000E+00  0.10566000000E+00 0. -1.
     999900   -1    0    0    0    0 -0.00000000000E+00 -0.00000000000E+00 -0.74505805969E-08  0.93827000000E+00  0.93827000000E+00 0. -1.
     999902    2    1    2    0    0  0.99458009368E-02 -0.22174553498E-01  0.34362860459E-02  0.10193853908E+01  0.10190898572E+01 0.  0.
     999903    2    3    3    0    0  0.11006199822E+00 -0.69523281984E-01 -0.94688827807E-02  0.13235004853E+00  0.21903091447E-01 0.  0.
         14    1    1    2    0    0 -0.99458009368E-02  0.22174553498E-01 -0.34362860459E-02  0.24544609203E-01  0.00000000000E+00 0.  1.
     999901    1    3    3    0    0 -0.10011619728E+00  0.47348728486E-01  0.12905168827E-01  0.88703534227E+00  0.88000000000E+00 0. -1.
        -11    1    4    4    0    0  0.82970080493E-01 -0.47509962398E-01 -0.15685605300E-01  0.96889267304E-01  0.51100000000E-03 0. -1.
         11    1    4    4    0    0  0.27091917727E-01 -0.22013319586E-01  0.62167225195E-02  0.35460781227E-01  0.51100000000E-03 0.  1.
</event>
<event>
 8    1  0.1064839E+005  0.1043930E+01  0.7957747E-01            NaN
         13   -1    0    0    0    0  0.00000000000E+00  0.00000000000E+00  0.74505805969E-08  0.10566000000E+00  0.10566000000E+00 0. -1.
     999900   -1    0    0    0    0 -0.00000000000E+00 -0.00000000000E+00 -0.74505805969E-08  0.93827000000E+00  0.93827000000E+00 0. -1.
     999902    2    1    2    0    0 -0.17726045154E-01 -0.16031491856E-01  0.20510552337E-03  0.10200288813E+01  0.10197488196E+01 0.  0.
     999903    2    3    3    0    0 -0.33481749359E-01  0.10367373100E+00  0.66698580378E-01  0.12929942471E+00  0.20009262015E-01 0.  0.
         14    1    1    2    0    0  0.17726045154E-01  0.16031491856E-01 -0.20510552337E-03  0.23901118723E-01  0.00000000000E+00 0.  1.
     999901    1    3    3    0    0  0.15755704205E-01 -0.11970522286E+00 -0.66493474855E-01  0.89072945657E+00  0.88000000000E+00 0.  1.
        -11    1    4    4    0    0 -0.11543818461E-01  0.44647868603E-01  0.17276580258E-01  0.49248687920E-01  0.51100000000E-03 0. -1.
         11    1    4    4    0    0 -0.21937930897E-01  0.59025862399E-01  0.49422000120E-01  0.80050736792E-01  0.51100000000E-03 0.  1.
</event>
<event>
 8    1  0.1778304E+005  0.1043930E+01  0.7957747E-01            NaN
         13   -1    0    0    0    0  0.00000000000E+00  0.00000000000E+00  0.74505805969E-08  0.10566000000E+00  0.10566000000E+00 0. -1.
     999900   -1    0    0    0    0 -0.00000000000E+00 -0.00000000000E+00 -0.74505805969E-08  0.93827000000E+00  0.93827000000E+00 0.  1.
     999902    2    1    2    0    0 -0.44629739898E-02  0.20255157413E-02 -0.23287892405E-01  0.10201319584E+01  0.10198543356E+01 0.  0.
     999903    2    3    3    0    0 -0.99828681961E-01 -0.55868616144E-01 -0.65274886706E-01  0.13209521567E+00  0.10063158382E-01 0.  0.
         14    1    1    2    0    0  0.44629739898E-02 -0.20255157413E-02  0.23287892405E-01  0.23798041590E-01  0.00000000000E+00 0. -1.
     999901    1    3    3    0    0  0.95365707972E-01  0.57894131885E-01  0.41986994301E-01  0.88803674274E+00  0.88000000000E+00 0. -1.
        -11    1    4    4    0    0 -0.69676041722E-01 -0.33673732596E-01 -0.43246376511E-01  0.88652023436E-01  0.51100000000E-03 0. -1.
         11    1    4    4    0    0 -0.30152640239E-01 -0.22194883548E-01 -0.22028510195E-01  0.43443192235E-01  0.51100000000E-03 0.  1.
</event>
<event>
 8    1  0.1064839E+005  0.1043930E+01  0.7957747E-01            NaN
         13   -1    0    0    0    0  0.00000000000E+00  0.00000000000E+00  0.74505805969E-08  0.10566000000E+00  0.10566000000E+00 0.  1.
     999900   -1    0    0    0    0 -0.00000000000E+00 -0.00000000000E+00 -0.74505805969E-08  0.93827000000E+00  0.93827000000E+00 0. -1.
     999902    2    1    2    0    0  0.22248220887E-01  0.40495726131E-02  0.75253601919E-02  0.10200969679E+01  0.10198185185E+01 0.  0.
     999903    2    3    3    0    0 -0.10066590540E+00  0.38659795534E-01  0.67502338197E-01  0.12886019364E+00  0.20498281455E-01 0.  0.
         14    1    1    2    0    0 -0.22248220887E-01 -0.40495726131E-02 -0.75253601919E-02  0.23833032056E-01  0.00000000000E+00 0. -1.
     999901    1    3    3    0    0  0.12291412629E+00 -0.34610222921E-01 -0.59976978005E-01  0.89123677430E+00  0.88000000000E+00 0. -1.
        -11    1    4    4    0    0 -0.54215588291E-01  0.31165089449E-01  0.42099376420E-01  0.75387077342E-01  0.51100000000E-03 0. -1.
         11    1    4    4    0    0 -0.46450317112E-01  0.74947060855E-02  0.25402961777E-01  0.53473116303E-01  0.51100000000E-03 0.  1.
</event>
<event>
 8    1  0.1064839E+005  0.1043930E+01  0.7957747E-01            NaN
         13   -1    0    0    0    0  0.00000000000E+00  0.00000000000E+00  0.74505805969E-08  0.10566000000E+00  0.10566000000E+00 0.  1.
     999900   -1    0    0    0    0 -0.00000000000E+00 -0.00000000000E+00 -0.74505805969E-08  0.93827000000E+00  0.93827000000E+00 0. -1.
     999902    2    1    2    0    0  0.65756964258E-02  0.17515157499E-01 -0.14569181886E-01  0.10202175226E+01  0.10199419159E+01 0.  0.
     999903    2    3    3    0    0 -0.36666977975E-01 -0.90344399971E-01  0.79846257308E-01  0.12757095858E+00  0.19807745607E-01 0.  0.
         14    1    1    2    0    0 -0.65756964258E-02 -0.17515157499E-01  0.14569181886E-01  0.23712477444E-01  0.00000000000E+00 0.  1.
     999901    1    3    3    0    0  0.43242674400E-01  0.10785955747E+00 -0.94415439194E-01  0.89264656398E+00  0.88000000000E+00 0. -1.
        -11    1    4    4    0    0 -0.30349543438E-01 -0.86635414877E-01  0.76521686349E-01  0.11950991382E+00  0.51100000000E-03 0.  1.
         11    1    4    4    0    0 -0.63174345368E-02 -0.37089850946E-02  0.33245709587E-02  0.80610447597E-02  0.51100000000E-03 0. -1.
</event>
<event>
 8    1  0.1064839E+005  0.1043930E+01  0.7957747E-01            NaN
         13   -1    0    0    0    0  0.00000000000E+00  0.00000000000E+00  0.74505805969E-08  0.10566000000E+00  0.10566000000E+00 0.  1.
     999900   -1    0    0    0    0 -0.00000000000E+00 -0.00000000000E+00 -0.74505805969E-08  0.93827000000E+00  0.93827000000E+00 0. -1.
     999902    2    1    2    0    0  0.19572754191E-01  0.12468540865E-01  0.10097379340E-01  0.10186216163E+01  0.10183071653E+01 0.  0.
     999903    2    3    3    0    0  0.11404000185E+00 -0.38508550296E-01 -0.45912996905E-01  0.13033118687E+00  0.19753088840E-01 0.  0.
         14    1    1    2    0    0 -0.19572754191E-01 -0.12468540865E-01 -0.10097379340E-01  0.25308383739E-01  0.00000000000E+00 0. -1.
     999901    1    3    3    0    0 -0.94467247656E-01  0.50977091161E-01  0.56010376245E-01  0.88829042939E+00  0.88000000000E+00 0.  1.
        -11    1    4    4    0    0  0.61118235016E-01 -0.18242835757E-01 -0.14040900343E-01  0.65311926257E-01  0.51100000000E-03 0.  1.
         11    1    4    4    0    0  0.52921766831E-01 -0.20265714539E-01 -0.31872096562E-01  0.65019260612E-01  0.51100000000E-03 0. -1.
</event>
<event>
 8    1  0.1064839E+005  0.1043930E+01  0.7957747E-01            NaN
         13   -1    0    0    0    0  0.00000000000E+00  0.00000000000E+00  0.74505805969E-08  0.10566000000E+00  0.10566000000E+00 0. -1.
     999900   -1    0    0    0    0 -0.00000000000E+00 -0.00000000000E+00 -0.74505805969E-08  0.93827000000E+00  0.93827000000E+00 0.  1.
     999902    2    1    2    0    0  0.19037656388E-01  0.10897970998E-01 -0.72952423701E-02  0.10208125024E+01  0.10205507074E+01 0.  0.
     999903    2    3    3    0    0  0.63323516964E-02 -0.10068372723E+00 -0.80713913700E-01  0.13064274253E+00  0.19377272844E-01 0.  0.
         14    1    1    2    0    0 -0.19037656388E-01 -0.10897970998E-01  0.72952423701E-02  0.23117497569E-01  0.00000000000E+00 0. -1.
     999901    1    3    3    0    0  0.12705304691E-01  0.11158169823E+00  0.73418671330E-01  0.89016975990E+00  0.88000000000E+00 0.  1.
        -11    1    4    4    0    0  0.68239600948E-02 -0.60740097261E-01 -0.37122955471E-01  0.71514339755E-01  0.51100000000E-03 0.  1.
         11    1    4    4    0    0 -0.49160839842E-03 -0.39943629971E-01 -0.43590958229E-01  0.59128402772E-01  0.51100000000E-03 0. -1.
</event>
<event>
 8    1  0.1064839E+005  0.1043930E+01  0.7957747E-01            NaN
         13   -1    0    0    0    0  0.00000000000E+00  0.00000000000E+00  0.74505805969E-08  0.10566000000E+00  0.10566000000E+00 0.  1.
     999900   -1    0    0    0    0 -0.00000000000E+00 -0.00000000000E+00 -0.74505805969E-08  0.93827000000E+00  0.93827000000E+00 0. -1.
     999902    2    1    2    0    0 -0.99859727685E-02 -0.10819595075E-01 -0.24914342377E-01  0.10149902739E+01  0.10145776207E+01 0.  0.
     999903    2    3    3    0    0  0.10306075206E+00  0.61484597733E-01  0.21391315660E-01  0.12361399408E+00  0.20517231147E-01 0.  0.
         14    1    1    2    0    0  0.99859727685E-02  0.10819595075E-01  0.24914342377E-01  0.28939726083E-01  0.00000000000E+00 0.  1.
     999901    1    3    3    0    0 -0.11304672482E+00 -0.72304192808E-01 -0.46305658037E-01  0.89137627984E+00  0.88000000000E+00 0. -1.
        -11    1    4    4    0    0  0.90933621287E-01  0.45601331918E-01  0.18899738651E-01  0.10346915577E+00  0.51100000000E-03 0.  1.
         11    1    4    4    0    0  0.12127130768E-01  0.15883265815E-01  0.24915770084E-02  0.20144838312E-01  0.51100000000E-03 0. -1.
</event>
<event>
 8    1  0.1064839E+005  0.1043930E+01  0.7957747E-01            NaN
         13   -1    0    0    0    0  0.00000000000E+00  0.00000000000E+00  0.74505805969E-08  0.10566000000E+00  0.10566000000E+00 0.  1.
     999900   -1    0    0    0    0 -0.00000000000E+00 -0.00000000000E+00 -0.74505805969E-08  0.93827000000E+00  0.93827000000E+00 0.  1.
     999902    2    1    2    0    0  0.85160791676E-02  0.21436876939E-01  0.51153003215E-02  0.10203031171E+01  0.10200295198E+01 0.  0.
     999903    2    3    3    0    0  0.33517148765E-01 -0.49367742704E-01 -0.11298601175E+00  0.12924404637E+00  0.19432225594E-01 0.  0.
         14    1    1    2    0    0 -0.85160791676E-02 -0.21436876939E-01 -0.51153003215E-02  0.23626882881E-01  0.00000000000E+00 0. -1.
     999901    1    3    3    0    0 -0.25001069598E-01  0.70804619643E-01  0.11810131207E+00  0.89105907074E+00  0.88000000000E+00 0.  1.
        -11    1    4    4    0    0  0.28757396979E-01 -0.47912435883E-01 -0.91767408612E-01  0.10744350980E+00  0.51100000000E-03 0. -1.
         11    1    4    4    0    0  0.47597517867E-02 -0.14553068209E-02 -0.21218603136E-01  0.21800536577E-01  0.51100000000E-03 0.  1.
</event>
<event>
 8    1  0.1064839E+005  0.1043930E+01  0.7957747E-01            NaN
         13   -1    0    0    0    0  0.00000000000E+00  0.00000000000E+00  0.74505805969E-08  0.10566000000E+00  0.10566000000E+00 0.  1.
     999900   -1    0    0    0    0 -0.00000000000E+00 -0.00000000000E+00 -0.74505805969E-08  0.93827000000E+00  0.93827000000E+00 0.  1.
     999902    2    1    2    0    0 -0.54337600318E-02  0.13384724391E-01  0.19137273854E-01  0.10199526806E+01  0.10196708090E+01 0.  0.
     999903    2    3    3    0    0 -0.57134528448E-01 -0.28495176865E-01 -0.10921323613E+00  0.12815631988E+00  0.20498339762E-01 0.  0.
         14    1    1    2    0    0  0.54337600318E-02 -0.13384724391E-01 -0.19137273854E-01  0.23977319402E-01  0.00000000000E+00 0.  1.
     999901    1    3    3    0    0  0.51700768416E-01  0.41879901256E-01  0.12835050998E+00  0.89179636072E+00  0.88000000000E+00 0. -1.
        -11    1    4    4    0    0 -0.23455062726E-01 -0.14693571274E-01 -0.29114004802E-01  0.40173715298E-01  0.51100000000E-03 0. -1.
         11    1    4    4    0    0 -0.33679465722E-01 -0.13801605591E-01 -0.80099231327E-01  0.87982604578E-01  0.51100000000E-03 0.  1.
</event>
<event>
 8    1  0.1064839E+005  0.1043930E+01  0.7957747E-01            NaN
         13   -1    0    0    0    0  0.00000000000E+00  0.00000000000E+00  0.74505805969E-08  0.10566000000E+00  0.10566000000E+00 0. -1.
     999900   -1    0    0    0    0 -0.00000000000E+00 -0.00000000000E+00 -0.74505805969E-08  0.93827000000E+00  0.93827000000E+00 0.  1.
     999902    2    1    2    0    0 -0.20350378082E-01  0.79042134633E-03  0.13027856150E-01  0.10197538198E+01  0.10194671968E+01 0.  0.
     999903    2    3    3    0    0 -0.69295704521E-01 -0.10984510110E+00  0.48081641726E-03  0.13138830266E+00  0.19869926776E-01 0.  0.
         14    1    1    2    0    0  0.20350378082E-01 -0.79042134633E-03 -0.13027856150E-01  0.24176180216E-01  0.00000000000E+00 0.  1.
     999901    1    3    3    0    0  0.48945326439E-01  0.11063552245E+00  0.12547039732E-01  0.88836551712E+00  0.88000000000E+00 0.  1.
        -11    1    4    4    0    0 -0.24905917591E-01 -0.52882952717E-01 -0.65822454656E-02  0.58826001866E-01  0.51100000000E-03 0.  1.
         11    1    4    4    0    0 -0.44389786930E-01 -0.56962148386E-01  0.70630618829E-02  0.72562300795E-01  0.51100000000E-03 0. -1.
</event>
<event>
 8    1  0.1064839E+005  0.1043930E+01  0.7957747E-01            NaN
         13   -1    0    0    0    0  0.00000000000E+00  0.00000000000E+00  0.74505805969E-08  0.10566000000E+00  0.10566000000E+00 0. -1.
     999900   -1    0    0    0    0 -0.00000000000E+00 -0.00000000000E+00 -0.74505805969E-08  0.93827000000E+00  0.93827000000E+00 0. -1.
     999902    2    1    2    0    0  0.16227705174E-01 -0.15695097995E-01  0.69864012560E-02  0.10202977272E+01  0.10200240035E+01 0.  0.
     999903    2    3    3    0    0 -0.51491193819E-01 -0.50604605586E-01  0.10770415787E+00  0.13128221016E+00  0.20558792172E-01 0.  0.
         14    1    1    2    0    0 -0.16227705174E-01  0.15695097995E-01 -0.69864012560E-02  0.23632272823E-01  0.00000000000E+00 0.  1.
     999901    1    3    3    0    0  0.67718898993E-01  0.34909507591E-01 -0.10071775661E+00  0.88901551702E+00  0.88000000000E+00 0. -1.
        -11    1    4    4    0    0 -0.14893642688E-01 -0.19557919417E-01  0.53520005687E-01  0.58898089393E-01  0.51100000000E-03 0.  1.
         11    1    4    4    0    0 -0.36597551131E-01 -0.31046686168E-01  0.54184152178E-01  0.72384120766E-01  0.51100000000E-03 0. -1.
</event>
<event>
 8    1  0.1064839E+005  0.1043930E+01  0.7957747E-01            NaN
         13   -1    0    0    0    0  0.00000000000E+00  0.00000000000E+00  0.74505805969E-08  0.10566000000E+00  0.10566000000E+00 0. -1.
     999900   -1    0    0    0    0 -0.00000000000E+00 -0.00000000000E+00 -0.74505805969E-08  0.93827000000E+00  0.93827000000E+00 0.  1.
     999902    2    1    2    0    0  0.15124503649E-01 -0.14358528676E-01  0.11723279013E-01  0.10200060951E+01  0.10197254928E+01 0.  0.
     999903    2    3    3    0    0 -0.59237278750E-01 -0.27584711602E-01  0.11193642048E+00  0.13110380555E+00  0.19709746070E-01 0.  0.
         14    1    1    2    0    0 -0.15124503649E-01  0.14358528676E-01 -0.11723279013E-01  0.23923904931E-01  0.00000000000E+00 0.  1.
     999901    1    3    3    0    0  0.74361782399E-01  0.13226182927E-01 -0.10021314147E+00  0.88890228952E+00  0.88000000000E+00 0.  1.
        -11    1    4    4    0    0 -0.43916684050E-01 -0.11662307718E-01  0.83763893130E-01  0.95296041222E-01  0.51100000000E-03 0. -1.
         11    1    4    4    0    0 -0.15320594700E-01 -0.15922403884E-01  0.28172527353E-01  0.35807764323E-01  0.51100000000E-03 0.  1.
</event>
<event>
 8    1  0.1064839E+005  0.1043930E+01  0.7957747E-01            NaN
         13   -1    0    0    0    0  0.00000000000E+00  0.00000000000E+00  0.74505805969E-08  0.10566000000E+00  0.10566000000E+00 0. -1.
     999900   -1    0    0    0    0 -0.00000000000E+00 -0.00000000000E+00 -0.74505805969E-08  0.93827000000E+00  0.93827000000E+00 0. -1.
     999902    2    1    2    0    0 -0.10770458719E-01 -0.65232464365E-02 -0.20373114586E-01  0.10199796488E+01  0.10196984185E+01 0.  0.
     999903    2    3    3    0    0  0.50033524203E-02  0.66224409529E-01 -0.11246503224E+00  0.13204837000E+00  0.19434057449E-01 0.  0.
         14    1    1    2    0    0  0.10770458719E-01  0.65232464365E-02  0.20373114586E-01  0.23950351209E-01  0.00000000000E+00 0. -1.
     999901    1    3    3    0    0 -0.15773811139E-01 -0.72747655965E-01  0.92091917654E-01  0.88793127880E+00  0.88000000000E+00 0. -1.
        -11    1    4    4    0    0 -0.13189079852E-02  0.29212372524E-01 -0.66830664415E-01  0.72949990089E-01  0.51100000000E-03 0. -1.
         11    1    4    4    0    0  0.63222604055E-02  0.37012037005E-01 -0.45634367825E-01  0.59098379907E-01  0.51100000000E-03 0.  1.
</event>
<event>
 8    1  0.1064839E+005  0.1043930E+01  0.7957747E-01            NaN
         13   -1    0    0    0    0  0.00000000000E+00  0.00000000000E+00  0.74505805969E-08  0.10566000000E+00  0.10566000000E+00 0. -1.
     999900   -1    0    0    0    0 -0.00000000000E+00 -0.00000000000E+00 -0.74505805969E-08  0.93827000000E+00  0.93827000000E+00 0. -1.
     999902    2    1    2    0    0 -0.20165114811E-01 -0.92733790333E-02 -0.40548120856E-02  0.10213674444E+01  0.10211182045E+01 0.  0.
     999903    2    3    3    0    0 -0.74372604594E-01  0.13889532911E-02  0.10799724894E+00  0.13254361391E+00  0.19266299647E-01 0.  0.
         14    1    1    2    0    0  0.20165114811E-01  0.92733790333E-02  0.40548120856E-02  0.22562555597E-01  0.00000000000E+00 0. -1.
     999901    1    3    3    0    0  0.54207489783E-01 -0.10662332324E-01 -0.11205206103E+00  0.88882383050E+00  0.88000000000E+00 0. -1.
        -11    1    4    4    0    0 -0.90436749676E-02 -0.19043362667E-02  0.26323131600E-01  0.27903098963E-01  0.51100000000E-03 0. -1.
         11    1    4    4    0    0 -0.65328929626E-01  0.32932895578E-02  0.81674117345E-01  0.10464051494E+00  0.51100000000E-03 0.  1.
</event>
<event>
 8    1  0.1064839E+005  0.1043930E+01  0.7957747E-01            NaN
         13   -1    0    0    0    0  0.00000000000E+00  0.00000000000E+00  0.74505805969E-08  0.10566000000E+00  0.10566000000E+00 0.  1.
     999900   -1    0    0    0    0 -0.00000000000E+00 -0.00000000000E+00 -0.74505805969E-08  0.93827000000E+00  0.93827000000E+00 0.  1.
     999902    2    1    2    0    0  0.77435225469E-02  0.46854997141E-02  0.22999170515E-01  0.10192140559E+01  0.10189143310E+01 0.  0.
     999903    2    3    3    0    0  0.97549259984E-01  0.18753785731E-01  0.85050832288E-01  0.13235815109E+00  0.20432167871E-01 0.  0.
         14    1    1    2    0    0 -0.77435225469E-02 -0.46854997141E-02 -0.22999170515E-01  0.24715944113E-01  0.00000000000E+00 0. -1.
     999901    1    3    3    0    0 -0.89805737438E-01 -0.14068286017E-01 -0.62051661773E-01  0.88685590480E+00  0.88000000000E+00 0.  1.
        -11    1    4    4    0    0  0.47289858224E-01  0.12492385511E-02  0.31367362713E-01  0.56763226233E-01  0.51100000000E-03 0.  1.
         11    1    4    4    0    0  0.50259401760E-01  0.17504547180E-01  0.53683469575E-01  0.75594924855E-01  0.51100000000E-03 0. -1.
</event>
<event>
 8    1  0.1064839E+005  0.1043930E+01  0.7957747E-01            NaN
         13   -1    0    0    0    0  0.00000000000E+00  0.00000000000E+00  0.74505805969E-08  0.10566000000E+00  0.10566000000E+00 0. -1.
     999900   -1    0    0    0    0 -0.00000000000E+00 -0.00000000000E+00 -0.74505805969E-08  0.93827000000E+00  0.93827000000E+00 0.  1.
     999902    2    1    2    0    0  0.21307596329E-01  0.41798128932E-03  0.76268201151E-02  0.10212947011E+01  0.10210438334E+01 0.  0.
     999903    2    3    3    0    0  0.63429295675E-01 -0.99853554874E-01  0.57787893619E-01  0.13318167240E+00  0.20097493437E-01 0.  0.
         14    1    1    2    0    0 -0.21307596329E-01 -0.41798128932E-03 -0.76268201151E-02  0.22635298866E-01  0.00000000000E+00 0. -1.
     999901    1    3    3    0    0 -0.42121699345E-01  0.10027153616E+00 -0.50161073504E-01  0.88811302874E+00  0.88000000000E+00 0.  1.
        -11    1    4    4    0    0  0.42760938974E-01 -0.76728163746E-01  0.50481166260E-01  0.10131297193E+00  0.51100000000E-03 0.  1.
         11    1    4    4    0    0  0.20668356701E-01 -0.23125391128E-01  0.73067273587E-02  0.31868700463E-01  0.51100000000E-03 0. -1.
</event>
<event>
 8    1  0.1064839E+005  0.1043930E+01  0.7957747E-01            NaN
         13   -1    0    0    0    0  0.00000000000E+00  0.00000000000E+00  0.74505805969E-08  0.10566000000E+00  0.10566000000E+00 0. -1.
     999900   -1    0    0    0    0 -0.00000000000E+00 -0.00000000000E+00 -0.74505805969E-08  0.93827000000E+00  0.93827000000E+00 0. -1.
     999902    2    1    2    0    0  0.19179090294E-01 -0.10576194465E-01 -0.61411355439E-02  0.10211834192E+01  0.10209300508E+01 0.  0.
     999903    2    3    3    0    0  0.50382280998E-01  0.10612400469E+00 -0.55712509227E-01  0.13154872072E+00  0.20012586732E-01 0.  0.
         14    1    1    2    0    0 -0.19179090294E-01  0.10576194465E-01  0.61411355439E-02  0.22746580834E-01  0.00000000000E+00 0. -1.
     999901    1    3    3    0    0 -0.31203190705E-01 -0.11670019916E+00  0.49571373683E-01  0.88963469845E+00  0.88000000000E+00 0.  1.
        -11    1    4    4    0    0  0.34644233567E-01  0.50011808546E-01 -0.26594739391E-01  0.66399888537E-01  0.51100000000E-03 0.  1.
         11    1    4    4    0    0  0.15738047432E-01  0.56112196147E-01 -0.29117769836E-01  0.65148832182E-01  0.51100000000E-03 0. -1.
</event>
<event>
 8    1  0.1064839E+005  0.1043930E+01  0.7957747E-01            NaN
         13   -1    0    0    0    0  0.00000000000E+00  0.00000000000E+00  0.74505805969E-08  0.10566000000E+00  0.10566000000E+00 0.  1.
     999900   -1    0    0    0    0 -0.00000000000E+00 -0.00000000000E+00 -0.74505805969E-08  0.93827000000E+00  0.93827000000E+00 0.  1.
     999902    2    1    2    0    0  0.12321443629E-01  0.20046251613E-01  0.19709964988E-02  0.10203173973E+01  0.10200441345E+01 0.  0.
     999903    2    3    3    0    0  0.49510971257E-01 -0.26755835786E-01  0.11646808846E+00  0.13088888397E+00  0.19996832073E-01 0.  0.
         14    1    1    2    0    0 -0.12321443629E-01 -0.20046251613E-01 -0.19709964988E-02  0.23612602653E-01  0.00000000000E+00 0. -1.
     999901    1    3    3    0    0 -0.37189527628E-01  0.46802087399E-01 -0.11449709196E+00  0.88942851338E+00  0.88000000000E+00 0.  1.
        -11    1    4    4    0    0  0.22538276636E-01 -0.12556526614E-01  0.32128700907E-01  0.41208674055E-01  0.51100000000E-03 0.  1.
         11    1    4    4    0    0  0.26972694621E-01 -0.14199309172E-01  0.84339387551E-01  0.89680209911E-01  0.51100000000E-03 0. -1.
</event>
<event>
 8    1  0.1064839E+005  0.1043930E+01  0.7957747E-01            NaN
         13   -1    0    0    0    0  0.00000000000E+00  0.00000000000E+00  0.74505805969E-08  0.10566000000E+00  0.10566000000E+00 0.  1.
     999900   -1    0    0    0    0 -0.00000000000E+00 -0.00000000000E+00 -0.74505805969E-08  0.93827000000E+00  0.93827000000E+00 0. -1.
     999902    2    1    2    0    0 -0.27674144943E-02  0.18550436519E-01  0.15092531704E-01  0.10198559104E+01  0.10195717317E+01 0.  0.
     999903    2    3    3    0    0  0.92354371634E-01 -0.49364645568E-01  0.74646701095E-01  0.13013274463E+00  0.19904849885E-01 0.  0.
         14    1    1    2    0    0  0.27674144943E-02 -0.18550436519E-01 -0.15092531704E-01  0.24074089624E-01  0.00000000000E+00 0. -1.
     999901    1    3    3    0    0 -0.95121786128E-01  0.67915082086E-01 -0.59554169391E-01  0.88972316574E+00  0.88000000000E+00 0. -1.
        -11    1    4    4    0    0  0.24110280697E-01 -0.67282873998E-02  0.26032744856E-01  0.36118422064E-01  0.51100000000E-03 0. -1.
         11    1    4    4    0    0  0.68244090937E-01 -0.42636358168E-01  0.48613956239E-01  0.94014322567E-01  0.51100000000E-03 0.  1.
</event>
<event>
 8    1  0.1064839E+005  0.1043930E+01  0.7957747E-01            NaN
         13   -1    0    0    0    0  0.00000000000E+00  0.00000000000E+00  0.74505805969E-08  0.10566000000E+00  0.10566000000E+00 0. -1.
     999900   -1    0    0    0    0 -0.00000000000E+00 -0.00000000000E+00 -0.74505805969E-08  0.93827000000E+00  0.93827000000E+00 0.  1.
     999902    2    1    2    0    0  0.11616507342E-01 -0.19900579784E-01 -0.27349121019E-02  0.10207253439E+01  0.10204615484E+01 0.  0.
     999903    2    3    3    0    0 -0.10560712597E+00 -0.33767752962E-01 -0.65490078869E-01  0.13062878196E+00  0.21949989738E-01 0.  0.
         14    1    1    2    0    0 -0.11616507342E-01  0.19900579784E-01  0.27349121019E-02  0.23204656058E-01  0.00000000000E+00 0. -1.
     999901    1    3    3    0    0  0.11722363331E+00  0.13867173177E-01  0.62755166767E-01  0.89009656198E+00  0.88000000000E+00 0. -1.
        -11    1    4    4    0    0 -0.84723485690E-01 -0.34698178867E-01 -0.48037572785E-01  0.10339198307E+00  0.51100000000E-03 0. -1.
         11    1    4    4    0    0 -0.20883640282E-01  0.93042590502E-03 -0.17452506084E-01  0.27236798884E-01  0.51100000000E-03 0.  1.
</event>
<event>
 7    1  0.1064839E+005  0.1043930E+01  0.7957747E-01            NaN
         13   -1    0    0    0    0  0.00000000000E+00  0.00000000000E+00  0.74505805969E-08  0.10566000000E+00  0.10566000000E+00 0. -1.
     999900   -1    0    0    0    0 -0.00000000000E+00 -0.00000000000E+00 -0.74505805969E-08  0.93827000000E+00  0.93827000000E+00 0.  1.
     999902    2    1    2    0    0 -0.10664956034E-01  0.14245381457E-01 -0.16874546922E-01  0.10194060828E+01  0.10191110534E+01 0.  0.
         14    1    1    2    0    0  0.10664956034E-01 -0.14245381457E-01  0.16874546922E-01  0.24523917180E-01  0.00000000000E+00 0. -1.
     999901    1    3    3    0    0 -0.10089783632E+00  0.64994659695E-01  0.60367972300E-01  0.89019602967E+00  0.88000000000E+00 0. -1.
        -11    1    3    3    0    0  0.44887380043E-01 -0.24174065528E-01 -0.39664036073E-01  0.64596897834E-01  0.51100000000E-03 0. -1.
         11    1    3    3    0    0  0.45345500244E-01 -0.26575212710E-01 -0.37578483149E-01  0.64613155314E-01  0.51100000000E-03 0.  1.
</event>
<event>
 8    1  0.1064839E+005  0.1043930E+01  0.7957747E-01            NaN
         13   -1    0    0    0    0  0.00000000000E+00  0.00000000000E+00  0.74505805969E-08  0.10566000000E+00  0.10566000000E+00 0. -1.
     999900   -1    0    0    0    0 -0.00000000000E+00 -0.00000000000E+00 -0.74505805969E-08  0.93827000000E+00  0.93827000000E+00 0.  1.
     999902    2    1    2    0    0 -0.10456089253E-01 -0.11497469875E-01  0.17497323156E-01  0.10205274802E+01  0.10202591141E+01 0.  0.
     999903    2    3    3    0    0 -0.12219981697E+00  0.94741701131E-02  0.46902034117E-01  0.13272620321E+00  0.19846638224E-01 0.  0.
         14    1    1    2    0    0  0.10456089253E-01  0.11497469875E-01 -0.17497323156E-01  0.23402519813E-01  0.00000000000E+00 0.  1.
     999901    1    3    3    0    0  0.11174372772E+00 -0.20971639988E-01 -0.29404710961E-01  0.88780127697E+00  0.88000000000E+00 0.  1.
        -11    1    4    4    0    0 -0.87967278312E-01  0.27243957274E-02  0.41894179892E-01  0.97473318480E-01  0.51100000000E-03 0.  1.
         11    1    4    4    0    0 -0.34232538656E-01  0.67497743858E-02  0.50078542256E-02  0.35252884734E-01  0.51100000000E-03 0. -1.
</event>
<event>
 8    1  0.1064839E+005  0.1043930E+01  0.7957747E-01            NaN
         13   -1    0    0    0    0  0.00000000000E+00  0.00000000000E+00  0.74505805969E-08  0.10566000000E+00  0.10566000000E+00 0.  1.
     999900   -1    0    0    0    0 -0.00000000000E+00 -0.00000000000E+00 -0.74505805969E-08  0.93827000000E+00  0.93827000000E+00 0.  1.
     999902    2    1    2    0    0  0.21828816578E-01 -0.93406870118E-02 -0.79949278737E-02  0.10188767659E+01  0.10185687014E+01 0.  0.
     999903    2    3    3    0    0 -0.43538774748E-01  0.10675945929E+00  0.49046487535E-01  0.12702145867E+00  0.20873091968E-01 0.  0.
         14    1    1    2    0    0 -0.21828816578E-01  0.93406870118E-02  0.79949278737E-02  0.25053234098E-01  0.00000000000E+00 0.  1.
     999901    1    3    3    0    0  0.65367591326E-01 -0.11610014630E+00 -0.57041415409E-01  0.89185530723E+00  0.88000000000E+00 0.  1.
        -11    1    4    4    0    0 -0.32497804968E-01  0.94808626582E-01  0.37271994184E-01  0.10693103232E+00  0.51100000000E-03 0. -1.
         11    1    4    4    0    0 -0.11040969780E-01  0.11950832709E-01  0.11774493351E-01  0.20090426347E-01  0.51100000000E-03 0.  1.
</event>
<event>
 8    1  0.1064839E+005  0.1043930E+01  0.7957747E-01            NaN
         13   -1    0    0    0    0  0.00000000000E+00  0.00000000000E+00  0.74505805969E-08  0.10566000000E+00  0.10566000000E+00 0.  1.
     999900   -1    0    0    0    0 -0.00000000000E+00 -0.00000000000E+00 -0.74505805969E-08  0.93827000000E+00  0.93827000000E+00 0.  1.
     999902    2    1    2    0    0 -0.11814095740E-01 -0.13811422598E-01  0.15175669373E-01  0.10202523905E+01  0.10199776032E+01 0.  0.
     999903    2    3    3    0    0  0.56694074165E-01 -0.43262450822E-01  0.10925432523E+00  0.13210176929E+00  0.20700535553E-01 0.  0.
         14    1    1    2    0    0  0.11814095740E-01  0.13811422598E-01 -0.15175669373E-01  0.23677609534E-01  0.00000000000E+00 0.  1.
     999901    1    3    3    0    0 -0.68508169905E-01  0.29451028224E-01 -0.94078655854E-01  0.88815062118E+00  0.88000000000E+00 0.  1.
        -11    1    4    4    0    0  0.44153720660E-01 -0.39398419762E-01  0.75818103900E-01  0.96179168887E-01  0.51100000000E-03 0.  1.
         11    1    4    4    0    0  0.12540353505E-01 -0.38640310601E-02  0.33436221327E-01  0.35922600403E-01  0.51100000000E-03 0. -1.
</event>
<event>
 7    1  0.1064839E+005  0.1043930E+01  0.7957747E-01            NaN
         13   -1    0    0    0    0  0.00000000000E+00  0.00000000000E+00  0.74505805969E-08  0.10566000000E+00  0.10566000000E+00 0. -1.
     999900   -1    0    0    0    0 -0.00000000000E+00 -0.00000000000E+00 -0.74505805969E-08  0.93827000000E+00  0.93827000000E+00 0.  1.
     999902    2    1    2    0    0  0.15972285080E-01 -0.23699496651E-01  0.35015399572E-02  0.10151369311E+01  0.10147285096E+01 0.  0.
         14    1    1    2    0    0 -0.15972285080E-01  0.23699496651E-01 -0.35015399572E-02  0.28793068858E-01  0.00000000000E+00 0. -1.
     999901    1    3    3    0    0  0.11608222679E+00  0.29146208332E-01  0.12467132084E-01  0.88818917704E+00  0.88000000000E+00 0.  1.
        -11    1    3    3    0    0 -0.25926963685E-01  0.11458766109E-02  0.17678074820E-01  0.31405348740E-01  0.51100000000E-03 0. -1.
         11    1    3    3    0    0 -0.74182978028E-01 -0.53991581593E-01 -0.26643666946E-01  0.95542405357E-01  0.51100000000E-03 0.  1.
</event>
<event>
 8    1  0.1064839E+005  0.1043930E+01  0.7957747E-01            NaN
         13   -1    0    0    0    0  0.00000000000E+00  0.00000000000E+00  0.74505805969E-08  0.10566000000E+00  0.10566000000E+00 0.  1.
     999900   -1    0    0    0    0 -0.00000000000E+00 -0.00000000000E+00 -0.74505805969E-08  0.93827000000E+00  0.93827000000E+00 0.  1.
     999902    2    1    2    0    0  0.37710660953E-02  0.73369280891E-02  0.22239263643E-01  0.10202100443E+01  0.10199342617E+01 0.  0.
     999903    2    3    3    0    0  0.92373875402E-01 -0.26323742182E-01  0.89041029084E-01  0.13260316370E+00  0.20722497519E-01 0.  0.
         14    1    1    2    0    0 -0.37710660953E-02 -0.73369280891E-02 -0.22239263643E-01  0.23719955747E-01  0.00000000000E+00 0. -1.
     999901    1    3    3    0    0 -0.88602809306E-01  0.33660670271E-01 -0.66801765442E-01  0.88760688055E+00  0.88000000000E+00 0.  1.
        -11    1    4    4    0    0  0.22840383940E-01 -0.75870925853E-02  0.35382552783E-01  0.42795248274E-01  0.51100000000E-03 0. -1.
         11    1    4    4    0    0  0.69533491461E-01 -0.18736649596E-01  0.53658476301E-01  0.89807915425E-01  0.51100000000E-03 0.  1.
</event>
<event>
 8    1  0.1064839E+005  0.1043930E+01  0.7957747E-01            NaN
         13   -1    0    0    0    0  0.00000000000E+00  0.00000000000E+00  0.74505805969E-08  0.10566000000E+00  0.10566000000E+00 0.  1.
     999900   -1    0    0    0    0 -0.00000000000E+00 -0.00000000000E+00 -0.74505805969E-08  0.93827000000E+00  0.93827000000E+00 0.  1.
     999902    2    1    2    0    0  0.13347990543E-01 -0.19963320036E-01  0.81200304767E-02  0.10185796964E+01  0.10182641897E+01 0.  0.
     999903    2    3    3    0    0  0.73296214709E-01  0.82558815834E-01  0.63380683945E-01  0.12888406430E+00  0.20141940610E-01 0.  0.
         14    1    1    2    0    0 -0.13347990543E-01  0.19963320036E-01 -0.81200304767E-02  0.25350303614E-01  0.00000000000E+00 0. -1.
     999901    1    3    3    0    0 -0.59948224166E-01 -0.10252213587E+00 -0.55260653468E-01  0.88969563208E+00  0.88000000000E+00 0.  1.
        -11    1    4    4    0    0  0.16730450169E-01  0.23832056286E-01  0.76259593469E-02  0.30104671508E-01  0.51100000000E-03 0. -1.
         11    1    4    4    0    0  0.56565764541E-01  0.58726759548E-01  0.55754724598E-01  0.98779392796E-01  0.51100000000E-03 0.  1.
</event>
<event>
 8    1  0.1064839E+005  0.1043930E+01  0.7957747E-01            NaN
         13   -1    0    0    0    0  0.00000000000E+00  0.00000000000E+00  0.74505805969E-08  0.10566000000E+00  0.10566000000E+00 0.  1.
     999900   -1    0    0    0    0 -0.00000000000E+00 -0.00000000000E+00 -0.74505805969E-08  0.93827000000E+00  0.93827000000E+00 0. -1.
     999902    2    1    2    0    0 -0.68439280421E-03  0.50954701828E-02  0.22143164150E-01  0.10211978217E+01  0.10209447777E+01 0.  0.
     999903    2    3    3    0    0 -0.20232843088E-01  0.61136012098E-01 -0.11038277032E+00  0.12929771099E+00  0.19661184298E-01 0.  0.
         14    1    1    2    0    0  0.68439280421E-03 -0.50954701828E-02 -0.22143164150E-01  0.22732178260E-01  0.00000000000E+00 0. -1.
     999901    1    3    3    0    0  0.19548450283E-01 -0.56040541915E-01  0.13252593447E+00  0.89190011075E+00  0.88000000000E+00 0.  1.
        -11    1    4    4    0    0 -0.57521805000E-02  0.45860830883E-01 -0.78213892207E-01  0.90851403098E-01  0.51100000000E-03 0.  1.
         11    1    4    4    0    0 -0.14480662588E-01  0.15275181216E-01 -0.32168878118E-01  0.38446307892E-01  0.51100000000E-03 0. -1.
</event>
<event>
 8    1  0.1064839E+005  0.1043930E+01  0.7957747E-01            NaN
         13   -1    0    0    0    0  0.00000000000E+00  0.00000000000E+00  0.74505805969E-08  0.10566000000E+00  0.10566000000E+00 0. -1.
     999900   -1    0    0    0    0 -0.00000000000E+00 -0.00000000000E+00 -0.74505805969E-08  0.93827000000E+00  0.93827000000E+00 0. -1.
     999902    2    1    2    0    0 -0.82206303726E-02 -0.99748474217E-02 -0.18522662676E-01  0.10213431592E+01  0.10210933765E+01 0.  0.
     999903    2    3    3    0    0 -0.69218825030E-01  0.50686863633E-01 -0.99988019734E-01  0.13340328097E+00  0.20938658047E-01 0.  0.
         14    1    1    2    0    0  0.82206303726E-02  0.99748474217E-02  0.18522662676E-01  0.22586840802E-01  0.00000000000E+00 0. -1.
     999901    1    3    3    0    0  0.60998194657E-01 -0.60661711055E-01  0.81465357059E-01  0.88793987822E+00  0.88000000000E+00 0.  1.
        -11    1    4    4    0    0 -0.40360957898E-01  0.17203209832E-01 -0.54592191595E-01  0.70039459272E-01  0.51100000000E-03 0. -1.
         11    1    4    4    0    0 -0.28857867132E-01  0.33483653801E-01 -0.45395828139E-01  0.63363821702E-01  0.51100000000E-03 0.  1.
</event>
<event>
 8    1  0.1064839E+005  0.1043930E+01  0.7957747E-01            NaN
         13   -1    0    0    0    0  0.00000000000E+00  0.00000000000E+00  0.74505805969E-08  0.10566000000E+00  0.10566000000E+00 0.  1.
     999900   -1    0    0    0    0 -0.00000000000E+00 -0.00000000000E+00 -0.74505805969E-08  0.93827000000E+00  0.93827000000E+00 0.  1.
     999902    2    1    2    0    0  0.19609733630E-01  0.50805461402E-02  0.20095063580E-02  0.10235733864E+01  0.10233709423E+01 0.  0.
     999903    2    3    3    0    0 -0.13543814766E-01 -0.10833360507E+00 -0.72900032953E-01  0.13252155481E+00  0.18109190478E-01 0.  0.
         14    1    1    2    0    0 -0.19609733630E-01 -0.50805461402E-02 -0.20095063580E-02  0.20356613616E-01  0.00000000000E+00 0. -1.
     999901    1    3    3    0    0  0.33153548396E-01  0.11341415121E+00  0.74909539311E-01  0.89105183157E+00  0.88000000000E+00 0.  1.
        -11    1    4    4    0    0 -0.82787644414E-02 -0.51056699670E-01 -0.45139094765E-01  0.68652192384E-01  0.51100000000E-03 0. -1.
         11    1    4    4    0    0 -0.52650503247E-02 -0.57276905400E-01 -0.27760938187E-01  0.63869362429E-01  0.51100000000E-03 0.  1.
</event>
<event>
 8    1  0.1064839E+005  0.1043930E+01  0.7957747E-01            NaN
         13   -1    0    0    0    0  0.00000000000E+00  0.00000000000E+00  0.74505805969E-08  0.10566000000E+00  0.10566000000E+00 0. -1.
     999900   -1    0    0    0    0 -0.00000000000E+00 -0.00000000000E+00 -0.74505805969E-08  0.93827000000E+00  0.93827000000E+00 0.  1.
     999902    2    1    2    0    0 -0.16769765130E-01 -0.49913775891E-02 -0.13175202021E-01  0.10220273787E+01  0.10217926590E+01 0.  0.
     999903    2    3    3    0    0 -0.87162749548E-01 -0.54412950859E-02 -0.10088171948E+00  0.13487022918E+00  0.19644459614E-01 0.  0.
         14    1    1    2    0    0  0.16769765130E-01  0.49913775891E-02  0.13175202021E-01  0.21902621328E-01  0.00000000000E+00 0.  1.
     999901    1    3    3    0    0  0.70392984417E-01  0.44991749674E-03  0.87706517462E-01  0.88715714949E+00  0.88000000000E+00 0.  1.
        -11    1    4    4    0    0 -0.37299753843E-02 -0.41885869080E-02 -0.10106678064E-01  0.11569919582E-01  0.51100000000E-03 0.  1.
         11    1    4    4    0    0 -0.83432774164E-01 -0.12527081779E-02 -0.90775041419E-01  0.12330030960E+00  0.51100000000E-03 0. -1.
</event>
<event>
 8    1  0.1064839E+005  0.1043930E+01  0.7957747E-01            NaN
         13   -1    0    0    0    0  0.00000000000E+00  0.00000000000E+00  0.74505805969E-08  0.10566000000E+00  0.10566000000E+00 0.  1.
     999900   -1    0    0    0    0 -0.00000000000E+00 -0.00000000000E+00 -0.74505805969E-08  0.93827000000E+00  0.93827000000E+00 0. -1.
     999902    2    1    2    0    0  0.90905643029E-02 -0.40830385268E-02 -0.22619690365E-01  0.10192123958E+01  0.10189126302E+01 0.  0.
     999903    2    3    3    0    0  0.37676019711E-02  0.36478057104E-02 -0.13115947525E+00  0.13249429815E+00  0.18011934442E-01 0.  0.
         14    1    1    2    0    0 -0.90905643029E-02  0.40830385268E-02  0.22619690365E-01  0.24717604155E-01  0.00000000000E+00 0.  1.
     999901    1    3    3    0    0  0.53229623318E-02 -0.77308442372E-02  0.10853978489E+00  0.88671809770E+00  0.88000000000E+00 0.  1.
        -11    1    4    4    0    0  0.20661475410E-02 -0.65269799589E-02 -0.28441875553E-01  0.29258705354E-01  0.51100000000E-03 0. -1.
         11    1    4    4    0    0  0.17014544301E-02  0.10174785669E-01 -0.10271759970E+00  0.10323559279E+00  0.51100000000E-03 0.  1.
</event>
<event>
 8    1  0.1064839E+005  0.1043930E+01  0.7957747E-01            NaN
         13   -1    0    0    0    0  0.00000000000E+00  0.00000000000E+00  0.74505805969E-08  0.10566000000E+00  0.10566000000E+00 0.  1.
     999900   -1    0    0    0    0 -0.00000000000E+00 -0.00000000000E+00 -0.74505805969E-08  0.93827000000E+00  0.93827000000E+00 0. -1.
     999902    2    1    2    0    0  0.88815488922E-03 -0.16120491853E-01  0.16651879782E-01  0.10207363764E+01  0.10204728345E+01 0.  0.
     999903    2    3    3    0    0  0.11888817566E-01 -0.10990760744E+00  0.72813849747E-01  0.13390425895E+00  0.20185829004E-01 0.  0.
         14    1    1    2    0    0 -0.88815488922E-03  0.16120491853E-01 -0.16651879782E-01  0.23193623627E-01  0.00000000000E+00 0.  1.
     999901    1    3    3    0    0 -0.11000662677E-01  0.93787115587E-01 -0.56161969965E-01  0.88683211743E+00  0.88000000000E+00 0. -1.
        -11    1    4    4    0    0 -0.19815183781E-02 -0.45667997360E-02  0.80259071092E-02  0.94582440673E-02  0.51100000000E-03 0. -1.
         11    1    4    4    0    0  0.13870335945E-01 -0.10534080770E+00  0.64787942638E-01  0.12444601488E+00  0.51100000000E-03 0.  1.
</event>
<event>
 8    1  0.1064839E+005  0.1043930E+01  0.7957747E-01            NaN
         13   -1    0    0    0    0  0.00000000000E+00  0.00000000000E+00  0.74505805969E-08  0.10566000000E+00  0.10566000000E+00 0. -1.
     999900   -1    0    0    0    0 -0.00000000000E+00 -0.00000000000E+00 -0.74505805969E-08  0.93827000000E+00  0.93827000000E+00 0. -1.
     999902    2    1    2    0    0  0.16453057580E-01 -0.17856886251E-01  0.19845206157E-01  0.10125707319E+01  0.10120850178E+01 0.  0.
     999903    2    3    3    0    0 -0.77069996894E-01 -0.46035402292E-01 -0.79602275306E-01  0.12159913184E+00  0.19768256010E-01 0.  0.
         14    1    1    2    0    0 -0.16453057580E-01  0.17856886251E-01 -0.19845206157E-01  0.31359268131E-01  0.00000000000E+00 0. -1.
     999901    1    3    3    0    0  0.93523054473E-01  0.28178516041E-01  0.99447481462E-01  0.89097160003E+00  0.88000000000E+00 0.  1.
        -11    1    4    4    0    0 -0.56316131645E-01 -0.36012038880E-01 -0.47196504095E-01  0.81829974628E-01  0.51100000000E-03 0. -1.
         11    1    4    4    0    0 -0.20753865249E-01 -0.10023363412E-01 -0.32405771211E-01  0.39769157215E-01  0.51100000000E-03 0.  1.
</event>
<event>
 8    1  0.1064839E+005  0.1043930E+01  0.7957747E-01            NaN
         13   -1    0    0    0    0  0.00000000000E+00  0.00000000000E+00  0.74505805969E-08  0.10566000000E+00  0.10566000000E+00 0.  1.
     999900   -1    0    0    0    0 -0.00000000000E+00 -0.00000000000E+00 -0.74505805969E-08  0.93827000000E+00  0.93827000000E+00 0. -1.
     999902    2    1    2    0    0  0.17906012687E-01  0.16649400784E-01  0.19069276800E-03  0.10194787383E+01  0.10191854755E+01 0.  0.
     999903    2    3    3    0    0  0.65710384924E-01  0.10077236482E+00 -0.51711933785E-01  0.13265529827E+00  0.21222155006E-01 0.  0.
         14    1    1    2    0    0 -0.17906012687E-01 -0.16649400784E-01 -0.19069276800E-03  0.24451261738E-01  0.00000000000E+00 0.  1.
     999901    1    3    3    0    0 -0.47804372237E-01 -0.84122964040E-01  0.51902626553E-01  0.88682344000E+00  0.88000000000E+00 0.  1.
        -11    1    4    4    0    0  0.23461491618E-01  0.54275942117E-01 -0.21257176196E-01  0.62836678321E-01  0.51100000000E-03 0. -1.
         11    1    4    4    0    0  0.42248893306E-01  0.46496422708E-01 -0.30454757590E-01  0.69818619945E-01  0.51100000000E-03 0.  1.
</event>
<event>
 8    1  0.1064839E+005  0.1043930E+01  0.7957747E-01            NaN
         13   -1    0    0    0    0  0.00000000000E+00  0.00000000000E+00  0.74505805969E-08  0.10566000000E+00  0.10566000000E+00 0. -1.
     999900   -1    0    0    0    0 -0.00000000000E+00 -0.00000000000E+00 -0.74505805969E-08  0.93827000000E+00  0.93827000000E+00 0. -1.
     999902    2    1    2    0    0  0.83913672239E-02 -0.14038553212E-02  0.21321801593E-01  0.10209734089E+01  0.10207152867E+01 0.  0.
     999903    2    3    3    0    0 -0.82754886791E-01 -0.40003983768E-01 -0.87768117594E-01  0.12873004519E+00  0.20481505421E-01 0.  0.
         14    1    1    2    0    0 -0.83913672239E-02  0.14038553212E-02 -0.21321801593E-01  0.22956591141E-01  0.00000000000E+00 0.  1.
     999901    1    3    3    0    0  0.91146254015E-01  0.38600128447E-01  0.10908991919E+00  0.89224336367E+00  0.88000000000E+00 0.  1.
        -11    1    4    4    0    0 -0.25070888083E-01 -0.86098902416E-02 -0.14071170613E-01  0.30015639301E-01  0.51100000000E-03 0. -1.
         11    1    4    4    0    0 -0.57683998708E-01 -0.31394093527E-01 -0.73696946981E-01  0.98714405892E-01  0.51100000000E-03 0.  1.
</event>
<event>
 8    1  0.1064839E+005  0.1043930E+01  0.7957747E-01            NaN
         13   -1    0    0    0    0  0.00000000000E+00  0.00000000000E+00  0.74505805969E-08  0.10566000000E+00  0.10566000000E+00 0. -1.
     999900   -1    0    0    0    0 -0.00000000000E+00 -0.00000000000E+00 -0.74505805969E-08  0.93827000000E+00  0.93827000000E+00 0.  1.
     999902    2    1    2    0    0  0.11965976512E-01  0.47581110644E-03  0.19942173846E-01  0.10206684161E+01  0.10204033096E+01 0.  0.
     999903    2    3    3    0    0 -0.11374872123E-01 -0.10205360294E+00 -0.75943270489E-01  0.12923636906E+00  0.19756851144E-01 0.  0.
         14    1    1    2    0    0 -0.11965976512E-01 -0.47581110644E-03 -0.19942173846E-01  0.23261583948E-01  0.00000000000E+00 0.  1.
     999901    1    3    3    0    0  0.23340848635E-01  0.10252941405E+00  0.95885444335E-01  0.89143204699E+00  0.88000000000E+00 0. -1.
        -11    1    4    4    0    0 -0.15344690582E-01 -0.94841834388E-01 -0.72186057069E-01  0.12017287978E+00  0.51100000000E-03 0.  1.
         11    1    4    4    0    0  0.39698184588E-02 -0.72117685546E-02 -0.37572134200E-02  0.90634892819E-02  0.51100000000E-03 0. -1.
</event>
<event>
 8    1  0.1064839E+005  0.1043930E+01  0.7957747E-01            NaN
         13   -1    0    0    0    0  0.00000000000E+00  0.00000000000E+00  0.74505805969E-08  0.10566000000E+00  0.10566000000E+00 0. -1.
     999900   -1    0    0    0    0 -0.00000000000E+00 -0.00000000000E+00 -0.74505805969E-08  0.93827000000E+00  0.93827000000E+00 0. -1.
     999902    2    1    2    0    0  0.79442030806E-02 -0.15381642043E-01 -0.15638840970E-01  0.10206002203E+01  0.10203335391E+01 0.  0.
     999903    2    3    3    0    0 -0.10148809916E+00 -0.32231090796E-01  0.72178659160E-01  0.12932515274E+00  0.13287543413E-01 0.  0.
         14    1    1    2    0    0 -0.79442030806E-02  0.15381642043E-01  0.15638840970E-01  0.23329779712E-01  0.00000000000E+00 0. -1.
     999901    1    3    3    0    0  0.10943230224E+00  0.16849448753E-01 -0.87817500130E-01  0.89127506754E+00  0.88000000000E+00 0.  1.
        -11    1    4    4    0    0 -0.70242871020E-01 -0.15959782535E-01  0.46756802212E-01  0.85879189923E-01  0.51100000000E-03 0. -1.
         11    1    4    4    0    0 -0.31245228136E-01 -0.16271308261E-01  0.25421856947E-01  0.43445962821E-01  0.51100000000E-03 0.  1.
</event>
<event>
 8    1  0.1064839E+005  0.1043930E+01  0.7957747E-01            NaN
         13   -1    0    0    0    0  0.00000000000E+00  0.00000000000E+00  0.74505805969E-08  0.10566000000E+00  0.10566000000E+00 0. -1.
     999900   -1    0    0    0    0 -0.00000000000E+00 -0.00000000000E+00 -0.74505805969E-08  0.93827000000E+00  0.93827000000E+00 0. -1.
     999902    2    1    2    0    0  0.73804947030E-02  0.18771537620E-02 -0.22138449347E-01  0.10205183288E+01  0.10202497504E+01 0.  0.
     999903    2    3    3    0    0 -0.10814525244E+00 -0.68006151397E-01 -0.15428726789E-01  0.13019541269E+00  0.19813319344E-01 0.  0.
         14    1    1    2    0    0 -0.73804947030E-02 -0.18771537620E-02  0.22138449347E-01  0.23411671188E-01  0.00000000000E+00 0. -1.
     999901    1    3    3    0    0  0.11552574714E+00  0.69883305159E-01 -0.67097225585E-02  0.89032291612E+00  0.88000000000E+00 0.  1.
        -11    1    4    4    0    0 -0.11956419288E-01 -0.18415557574E-02 -0.45726668559E-02  0.12942862627E-01  0.51100000000E-03 0. -1.
         11    1    4    4    0    0 -0.96188833148E-01 -0.66164595640E-01 -0.10856059933E-01  0.11725255007E+00  0.51100000000E-03 0.  1.
</event>
<event>
 8    1  0.1064839E+005  0.1043930E+01  0.7957747E-01            NaN
         13   -1    0    0    0    0  0.00000000000E+00  0.00000000000E+00  0.74505805969E-08  0.10566000000E+00  0.10566000000E+00 0.  1.
     999900   -1    0    0    0    0 -0.00000000000E+00 -0.00000000000E+00 -0.74505805969E-08  0.93827000000E+00  0.93827000000E+00 0.  1.
     999902    2    1    2    0    0 -0.23331484955E-01  0.34044248774E-02  0.27153841901E-02  0.10201956028E+01  0.10199194803E+01 0.  0.
     999903    2    3    3    0    0 -0.11248271427E+00 -0.66876452736E-01  0.11430321425E-01  0.13286066403E+00  0.19911877291E-01 0.  0.
         14    1    1    2    0    0  0.23331484955E-01 -0.34044248774E-02 -0.27153841901E-02  0.23734397196E-01  0.00000000000E+00 0.  1.
     999901    1    3    3    0    0  0.89151229314E-01  0.70280877614E-01 -0.87149372345E-02  0.88733493878E+00  0.88000000000E+00 0. -1.
        -11    1    4    4    0    0 -0.41703557192E-01 -0.31120036460E-01  0.12643526665E-01  0.53551500813E-01  0.51100000000E-03 0. -1.
         11    1    4    4    0    0 -0.70779157077E-01 -0.35756416276E-01 -0.12132052401E-02  0.79309163212E-01  0.51100000000E-03 0.  1.
</event>
<event>
 8    1  0.1064839E+005  0.1043930E+01  0.7957747E-01            NaN
         13   -1    0    0    0    0  0.00000000000E+00  0.00000000000E+00  0.74505805969E-08  0.10566000000E+00  0.10566000000E+00 0. -1.
     999900   -1    0    0    0    0 -0.00000000000E+00 -0.00000000000E+00 -0.74505805969E-08  0.93827000000E+00  0.93827000000E+00 0.  1.
     999902    2    1    2    0    0  0.22364333367E-01  0.13863854010E-01  0.22994083040E-02  0.10175168000E+01  0.10171739188E+01 0.  0.
     999903    2    3    3    0    0 -0.83802402437E-01 -0.40426395594E-01  0.82209086841E-01  0.12588662796E+00  0.20783960759E-01 0.  0.
         14    1    1    2    0    0 -0.22364333367E-01 -0.13863854010E-01 -0.22994083040E-02  0.26413199987E-01  0.00000000000E+00 0.  1.
     999901    1    3    3    0    0  0.10616673580E+00  0.54290249604E-01 -0.79909678537E-01  0.89163017205E+00  0.88000000000E+00 0.  1.
        -11    1    4    4    0    0 -0.56797934864E-02 -0.64007479362E-02  0.18718976765E-02  0.87746652417E-02  0.51100000000E-03 0.  1.
         11    1    4    4    0    0 -0.78122608951E-01 -0.34025647657E-01  0.80337189164E-01  0.11711196272E+00  0.51100000000E-03 0. -1.
</event>
<event>
 8    1  0.1064839E+005  0.1043930E+01  0.7957747E-01            NaN
         13   -1    0    0    0    0  0.00000000000E+00  0.00000000000E+00  0.74505805969E-08  0.10566000000E+00  0.10566000000E+00 0. -1.
     999900   -1    0    0    0    0 -0.00000000000E+00 -0.00000000000E+00 -0.74505805969E-08  0.93827000000E+00  0.93827000000E+00 0. -1.
     999902    2    1    2    0    0 -0.62596273234E-02  0.21740343861E-01  0.73402617588E-02  0.10201454477E+01  0.10198681432E+01 0.  0.
     999903    2    3    3    0    0 -0.19445004541E-02 -0.10781720521E+00 -0.64741764450E-01  0.12773321261E+00  0.22269861188E-01 0.  0.
         14    1    1    2    0    0  0.62596273234E-02 -0.21740343861E-01 -0.73402617588E-02  0.23784552300E-01  0.00000000000E+00 0.  1.
     999901    1    3    3    0    0 -0.43151268693E-02  0.12955754907E+00  0.72082026208E-01  0.89241223509E+00  0.88000000000E+00 0.  1.
        -11    1    4    4    0    0 -0.77898441048E-02 -0.81728076293E-01 -0.56816947858E-01  0.99842810510E-01  0.51100000000E-03 0.  1.
         11    1    4    4    0    0  0.58453436506E-02 -0.26089128919E-01 -0.79248165915E-02  0.27890402097E-01  0.51100000000E-03 0. -1.
</event>
<event>
 8    1  0.1064839E+005  0.1043930E+01  0.7957747E-01            NaN
         13   -1    0    0    0    0  0.00000000000E+00  0.00000000000E+00  0.74505805969E-08  0.10566000000E+00  0.10566000000E+00 0.  1.
     999900   -1    0    0    0    0 -0.00000000000E+00 -0.00000000000E+00 -0.74505805969E-08  0.93827000000E+00  0.93827000000E+00 0. -1.
     999902    2    1    2    0    0  0.73641742765E-02  0.22784886928E-02  0.22458788703E-01  0.10201851108E+01  0.10199087413E+01 0.  0.
     999903    2    3    3    0    0  0.50544458682E-01 -0.60342295157E-02 -0.11597017818E+00  0.12827916445E+00  0.20379096562E-01 0.  0.
         14    1    1    2    0    0 -0.73641742765E-02 -0.22784886928E-02 -0.22458788703E-01  0.23744889208E-01  0.00000000000E+00 0. -1.
     999901    1    3    3    0    0 -0.43180284406E-01  0.83127182084E-02  0.13842896688E+00  0.89190594634E+00  0.88000000000E+00 0.  1.
        -11    1    4    4    0    0  0.95896598405E-02 -0.55285196983E-02 -0.44927505582E-01  0.46273836936E-01  0.51100000000E-03 0. -1.
         11    1    4    4    0    0  0.40954798842E-01 -0.50570981733E-03 -0.71042672595E-01  0.82005327516E-01  0.51100000000E-03 0.  1.
</event>
<event>
 8    1  0.1064839E+005  0.1043930E+01  0.7957747E-01            NaN
         13   -1    0    0    0    0  0.00000000000E+00  0.00000000000E+00  0.74505805969E-08  0.10566000000E+00  0.10566000000E+00 0.  1.
     999900   -1    0    0    0    0 -0.00000000000E+00 -0.00000000000E+00 -0.74505805969E-08  0.93827000000E+00  0.93827000000E+00 0.  1.
     999902    2    1    2    0    0 -0.14076544488E-02 -0.18594297741E-01  0.14724649942E-01  0.10201698503E+01  0.10198931212E+01 0.  0.
     999903    2    3    3    0    0 -0.87783922170E-01  0.22157714450E-01 -0.89362762930E-01  0.12890346156E+00  0.20818686356E-01 0.  0.
         14    1    1    2    0    0  0.14076544488E-02  0.18594297741E-01 -0.14724649942E-01  0.23760149735E-01  0.00000000000E+00 0. -1.
     999901    1    3    3    0    0  0.86376267721E-01 -0.40752012191E-01  0.10408741287E+00  0.89126638871E+00  0.88000000000E+00 0. -1.
        -11    1    4    4    0    0 -0.56553368943E-01  0.60613112919E-02 -0.63653165693E-01  0.85363983371E-01  0.51100000000E-03 0.  1.
         11    1    4    4    0    0 -0.31230553227E-01  0.16096403159E-01 -0.25709597237E-01  0.43539478185E-01  0.51100000000E-03 0. -1.
</event>
<event>
 8    1  0.1064839E+005  0.1043930E+01  0.7957747E-01            NaN
         13   -1    0    0    0    0  0.00000000000E+00  0.00000000000E+00  0.74505805969E-08  0.10566000000E+00  0.10566000000E+00 0.  1.
     999900   -1    0    0    0    0 -0.00000000000E+00 -0.00000000000E+00 -0.74505805969E-08  0.93827000000E+00  0.93827000000E+00 0.  1.
     999902    2    1    2    0    0  0.81637881711E-02 -0.23213623504E-01 -0.46276834947E-02  0.10188913258E+01  0.10185836237E+01 0.  0.
     999903    2    3    3    0    0 -0.56679518386E-01 -0.10483477198E+00 -0.51754031471E-01  0.13148636805E+00  0.20181377261E-01 0.  0.
         14    1    1    2    0    0 -0.81637881711E-02  0.23213623504E-01  0.46276834947E-02  0.25038674246E-01  0.00000000000E+00 0.  1.
     999901    1    3    3    0    0  0.64843306557E-01  0.81621148479E-01  0.47126347976E-01  0.88740495770E+00  0.88000000000E+00 0. -1.
        -11    1    4    4    0    0 -0.10005431708E-01 -0.30417139895E-01 -0.21523246026E-01  0.38585260185E-01  0.51100000000E-03 0.  1.
         11    1    4    4    0    0 -0.46674086677E-01 -0.74417632089E-01 -0.30230785445E-01  0.92901107864E-01  0.51100000000E-03 0. -1.
</event>
<event>
 8    1  0.1064839E+005  0.1043930E+01  0.7957747E-01            NaN
         13   -1    0    0    0    0  0.00000000000E+00  0.00000000000E+00  0.74505805969E-08  0.10566000000E+00  0.10566000000E+00 0. -1.
     999900   -1    0    0    0    0 -0.00000000000E+00 -0.00000000000E+00 -0.74505805969E-08  0.93827000000E+00  0.93827000000E+00 0.  1.
     999902    2    1    2    0    0 -0.15636104110E-01 -0.15994894920E-01  0.82691870944E-02  0.10200824871E+01  0.10198036952E+01 0.  0.
     999903    2    3    3    0    0 -0.93518777863E-01  0.87953370236E-01 -0.11808803919E-01  0.13032180108E+00  0.19046438998E-01 0.  0.
         14    1    1    2    0    0  0.15636104110E-01  0.15994894920E-01 -0.82691870944E-02  0.23847512878E-01  0.00000000000E+00 0.  1.
     999901    1    3    3    0    0  0.77882673753E-01 -0.10394826516E+00  0.20077991013E-01  0.88976068604E+00  0.88000000000E+00 0.  1.
        -11    1    4    4    0    0 -0.46310176656E-01  0.32129201338E-01 -0.69552062940E-03  0.56370762905E-01  0.51100000000E-03 0.  1.
         11    1    4    4    0    0 -0.47208601207E-01  0.55824168898E-01 -0.11113283290E-01  0.73951038177E-01  0.51100000000E-03 0. -1.
</event>
<event>
 8    1  0.1064839E+005  0.1043930E+01  0.7957747E-01            NaN
         13   -1    0    0    0    0  0.00000000000E+00  0.00000000000E+00  0.74505805969E-08  0.10566000000E+00  0.10566000000E+00 0.  1.
     999900   -1    0    0    0    0 -0.00000000000E+00 -0.00000000000E+00 -0.74505805969E-08  0.93827000000E+00  0.93827000000E+00 0.  1.
     999902    2    1    2    0    0 -0.21531402171E-01 -0.99610061954E-02 -0.74194702011E-03  0.10201945116E+01  0.10199183635E+01 0.  0.
     999903    2    3    3    0    0  0.84391804399E-01 -0.49508522094E-01  0.81869354936E-01  0.12912304482E+00  0.19927343457E-01 0.  0.
         14    1    1    2    0    0  0.21531402171E-01  0.99610061954E-02  0.74194702011E-03  0.23735488393E-01  0.00000000000E+00 0.  1.
     999901    1    3    3    0    0 -0.10592320657E+00  0.39547515899E-01 -0.82611301957E-01  0.89107146678E+00  0.88000000000E+00 0.  1.
        -11    1    4    4    0    0  0.61545593939E-01 -0.27425055311E-01  0.62510997015E-01  0.91912347707E-01  0.51100000000E-03 0.  1.
         11    1    4    4    0    0  0.22846210460E-01 -0.22083466784E-01  0.19358357922E-01  0.37210697118E-01  0.51100000000E-03 0. -1.
</event>
<event>
 8    1  0.1064839E+005  0.1043930E+01  0.7957747E-01            NaN
         13   -1    0    0    0    0  0.00000000000E+00  0.00000000000E+00  0.74505805969E-08  0.10566000000E+00  0.10566000000E+00 0.  1.
     999900   -1    0    0    0    0 -0.00000000000E+00 -0.00000000000E+00 -0.74505805969E-08  0.93827000000E+00  0.93827000000E+00 0. -1.
     999902    2    1    2    0    0 -0.11535364258E-01  0.13481436942E-01  0.15627037785E-01  0.10202864368E+01  0.10200124485E+01 0.  0.
     999903    2    3    3    0    0 -0.30464329834E-01  0.12415679005E+00 -0.26995297036E-01  0.13212879148E+00  0.19654199769E-01 0.  0.
         14    1    1    2    0    0  0.11535364258E-01 -0.13481436942E-01 -0.15627037785E-01  0.23643563195E-01  0.00000000000E+00 0. -1.
     999901    1    3    3    0    0  0.18928965576E-01 -0.11067535311E+00  0.42622334821E-01  0.88815764532E+00  0.88000000000E+00 0.  1.
        -11    1    4    4    0    0 -0.32090249652E-01  0.10463348317E+00 -0.19622017065E-01  0.11119008318E+00  0.51100000000E-03 0. -1.
         11    1    4    4    0    0  0.16259198179E-02  0.19523306878E-01 -0.73732799706E-02  0.20938708299E-01  0.51100000000E-03 0.  1.
</event>
<event>
 8    1  0.1064839E+005  0.1043930E+01  0.7957747E-01            NaN
         13   -1    0    0    0    0  0.00000000000E+00  0.00000000000E+00  0.74505805969E-08  0.10566000000E+00  0.10566000000E+00 0. -1.
     999900   -1    0    0    0    0 -0.00000000000E+00 -0.00000000000E+00 -0.74505805969E-08  0.93827000000E+00  0.93827000000E+00 0.  1.
     999902    2    1    2    0    0  0.24155428575E-01 -0.26791206939E-02 -0.10194225788E-02  0.10196050819E+01  0.10193148785E+01 0.  0.
     999903    2    3    3    0    0 -0.34041369612E-01 -0.12157910433E+00 -0.20892132983E-01  0.12948205781E+00  0.19718737797E-01 0.  0.
         14    1    1    2    0    0 -0.24155428575E-01  0.26791206939E-02  0.10194225788E-02  0.24324918083E-01  0.00000000000E+00 0. -1.
     999901    1    3    3    0    0  0.58196798187E-01  0.11889998363E+00  0.19872710405E-01  0.89012302411E+00  0.88000000000E+00 0. -1.
        -11    1    4    4    0    0 -0.23274397318E-01 -0.78892204321E-01 -0.22982330809E-01  0.85405656274E-01  0.51100000000E-03 0.  1.
         11    1    4    4    0    0 -0.10766972294E-01 -0.42686900005E-01  0.20901978256E-02  0.44076401536E-01  0.51100000000E-03 0. -1.
</event>
<event>
 8    1  0.1064839E+005  0.1043930E+01  0.7957747E-01            NaN
         13   -1    0    0    0    0  0.00000000000E+00  0.00000000000E+00  0.74505805969E-08  0.10566000000E+00  0.10566000000E+00 0.  1.
     999900   -1    0    0    0    0 -0.00000000000E+00 -0.00000000000E+00 -0.74505805969E-08  0.93827000000E+00  0.93827000000E+00 0.  1.
     999902    2    1    2    0    0  0.15422914659E-01  0.16250265313E-01  0.63713693181E-02  0.10206376887E+01  0.10203718733E+01 0.  0.
     999903    2    3    3    0    0  0.63037146969E-01  0.87488699371E-01 -0.75009942677E-01  0.13273851223E+00  0.19106719074E-01 0.  0.
         14    1    1    2    0    0 -0.15422914659E-01 -0.16250265313E-01 -0.63713693181E-02  0.23292311313E-01  0.00000000000E+00 0. -1.
     999901    1    3    3    0    0 -0.47614232310E-01 -0.71238434057E-01  0.81381311995E-01  0.88789917645E+00  0.88000000000E+00 0. -1.
        -11    1    4    4    0    0  0.36294752395E-01  0.38088035292E-01 -0.28691418445E-01  0.59928841948E-01  0.51100000000E-03 0. -1.
         11    1    4    4    0    0  0.26742394574E-01  0.49400664079E-01 -0.46318524232E-01  0.72809670285E-01  0.51100000000E-03 0.  1.
</event>
<event>
 8    1  0.1064839E+005  0.1043930E+01  0.7957747E-01            NaN
         13   -1    0    0    0    0  0.00000000000E+00  0.00000000000E+00  0.74505805969E-08  0.10566000000E+00  0.10566000000E+00 0. -1.
     999900   -1    0    0    0    0 -0.00000000000E+00 -0.00000000000E+00 -0.74505805969E-08  0.93827000000E+00  0.93827000000E+00 0.  1.
     999902    2    1    2    0    0  0.18901073520E-01 -0.96073659050E-02 -0.10156714776E-01  0.10204201953E+01  0.10201493342E+01 0.  0.
     999903    2    3    3    0    0 -0.11651192657E+00 -0.43959315043E-01 -0.28607481593E-01  0.12920912731E+00  0.19213541179E-01 0.  0.
         14    1    1    2    0    0 -0.18901073520E-01  0.96073659050E-02  0.10156714776E-01  0.23509804654E-01  0.00000000000E+00 0.  1.
     999901    1    3    3    0    0  0.13541300009E+00  0.34351949138E-01  0.18450766818E-01  0.89121106804E+00  0.88000000000E+00 0. -1.
        -11    1    4    4    0    0 -0.43780854165E-01 -0.14310977275E-01 -0.19921941563E-01  0.50186772547E-01  0.51100000000E-03 0.  1.
         11    1    4    4    0    0 -0.72731072401E-01 -0.29648337767E-01 -0.86855400308E-02  0.79022354758E-01  0.51100000000E-03 0. -1.
</event>
<event>
 8    1  0.1064839E+005  0.1043930E+01  0.7957747E-01            NaN
         13   -1    0    0    0    0  0.00000000000E+00  0.00000000000E+00  0.74505805969E-08  0.10566000000E+00  0.10566000000E+00 0.  1.
     999900   -1    0    0    0    0 -0.00000000000E+00 -0.00000000000E+00 -0.74505805969E-08  0.93827000000E+00  0.93827000000E+00 0.  1.
     999902    2    1    2    0    0  0.27196607218E-02  0.19336275680E-01 -0.13474946389E-01  0.10202052810E+01  0.10199293863E+01 0.  0.
     999903    2    3    3    0    0  0.91086849720E-01 -0.72038154242E-01  0.50707302827E-01  0.12875847515E+00  0.22829903747E-01 0.  0.
         14    1    1    2    0    0 -0.27196607218E-02 -0.19336275680E-01  0.13474946389E-01  0.23724719003E-01  0.00000000000E+00 0.  1.
     999901    1    3    3    0    0 -0.88367188998E-01  0.91374429922E-01 -0.64182249216E-01  0.89144680584E+00  0.88000000000E+00 0.  1.
        -11    1    4    4    0    0  0.33604277234E-01 -0.40581906707E-01  0.19571829260E-01  0.56209040393E-01  0.51100000000E-03 0.  1.
         11    1    4    4    0    0  0.57482572486E-01 -0.31456247536E-01  0.31135473567E-01  0.72549434759E-01  0.51100000000E-03 0. -1.
</event>
<event>
 8    1  0.1064839E+005  0.1043930E+01  0.7957747E-01            NaN
         13   -1    0    0    0    0  0.00000000000E+00  0.00000000000E+00  0.74505805969E-08  0.10566000000E+00  0.10566000000E+00 0. -1.
     999900   -1    0    0    0    0 -0.00000000000E+00 -0.00000000000E+00 -0.74505805969E-08  0.93827000000E+00  0.93827000000E+00 0.  1.
     999902    2    1    2    0    0 -0.13079244660E-01 -0.19395635044E-01 -0.89170442536E-03  0.10205194802E+01  0.10202509285E+01 0.  0.
     999903    2    3    3    0    0  0.25151600515E-01  0.82453841868E-01 -0.93874148693E-01  0.12895868677E+00  0.19665910962E-01 0.  0.
         14    1    1    2    0    0  0.13079244660E-01  0.19395635044E-01  0.89170442536E-03  0.23410519780E-01  0.00000000000E+00 0.  1.
     999901    1    3    3    0    0 -0.38230845175E-01 -0.10184947691E+00  0.92982444267E-01  0.89156079345E+00  0.88000000000E+00 0. -1.
        -11    1    4    4    0    0  0.23878622096E-01  0.45521342243E-01 -0.52363459197E-01  0.73379657760E-01  0.51100000000E-03 0. -1.
         11    1    4    4    0    0  0.12729784194E-02  0.36932499625E-01 -0.41510689495E-01  0.55579029013E-01  0.51100000000E-03 0.  1.
</event>
<event>
 8    1  0.1064839E+005  0.1043930E+01  0.7957747E-01            NaN
         13   -1    0    0    0    0  0.00000000000E+00  0.00000000000E+00  0.74505805969E-08  0.10566000000E+00  0.10566000000E+00 0.  1.
     999900   -1    0    0    0    0 -0.00000000000E+00 -0.00000000000E+00 -0.74505805969E-08  0.93827000000E+00  0.93827000000E+00 0. -1.
     999902    2    1    2    0    0 -0.96140895761E-02 -0.15949871107E-01 -0.14636932362E-01  0.10202431071E+01  0.10199681018E+01 0.  0.
     999903    2    3    3    0    0 -0.11146556086E-01 -0.12470928646E+00 -0.39771421948E-01  0.13319028936E+00  0.21937076660E-01 0.  0.
         14    1    1    2    0    0  0.96140895761E-02  0.15949871107E-01  0.14636932362E-01  0.23686892909E-01  0.00000000000E+00 0.  1.
     999901    1    3    3    0    0  0.15324665102E-02  0.10875941536E+00  0.25134489585E-01  0.88705281773E+00  0.88000000000E+00 0.  1.
        -11    1    4    4    0    0  0.62699449107E-02 -0.47977914620E-01 -0.16776145390E-01  0.51214184320E-01  0.51100000000E-03 0.  1.
         11    1    4    4    0    0 -0.17416500997E-01 -0.76731371844E-01 -0.22995276558E-01  0.81976105037E-01  0.51100000000E-03 0. -1.
</event>
<event>
 8    1  0.1412249E+005  0.1043930E+01  0.7957747E-01            NaN
         13   -1    0    0    0    0  0.00000000000E+00  0.00000000000E+00  0.74505805969E-08  0.10566000000E+00  0.10566000000E+00 0.  1.
     999900   -1    0    0    0    0 -0.00000000000E+00 -0.00000000000E+00 -0.74505805969E-08  0.93827000000E+00  0.93827000000E+00 0.  1.
     999902    2    1    2    0    0 -0.10910585313E-01  0.21495640499E-01 -0.11240297255E-01  0.10173321107E+01  0.10169843537E+01 0.  0.
     999903    2    3    3    0    0  0.11495152415E+00  0.52294736573E-01  0.33986384935E-02  0.12772312168E+00  0.18789696374E-01 0.  0.
         14    1    1    2    0    0  0.10910585313E-01 -0.21495640499E-01  0.11240297255E-01  0.26597889291E-01  0.00000000000E+00 0. -1.
     999901    1    3    3    0    0 -0.12586210947E+00 -0.30799096073E-01 -0.14638935749E-01  0.88960898903E+00  0.88000000000E+00 0.  1.
        -11    1    4    4    0    0  0.46687798266E-01  0.22326657005E-01  0.10578841729E-01  0.52824266519E-01  0.51100000000E-03 0. -1.
         11    1    4    4    0    0  0.68263725889E-01  0.29968079568E-01 -0.71802032354E-02  0.74898855163E-01  0.51100000000E-03 0.  1.
</event>
<event>
 8    1  0.1064839E+005  0.1043930E+01  0.7957747E-01            NaN
         13   -1    0    0    0    0  0.00000000000E+00  0.00000000000E+00  0.74505805969E-08  0.10566000000E+00  0.10566000000E+00 0. -1.
     999900   -1    0    0    0    0 -0.00000000000E+00 -0.00000000000E+00 -0.74505805969E-08  0.93827000000E+00  0.93827000000E+00 0.  1.
     999902    2    1    2    0    0  0.10517163068E-01 -0.18945252969E-01  0.69097456444E-02  0.10211862555E+01  0.10209329510E+01 0.  0.
     999903    2    3    3    0    0 -0.92067117152E-01 -0.60396588891E-01 -0.68285251075E-01  0.13107613010E+00  0.19848787336E-01 0.  0.
         14    1    1    2    0    0 -0.10517163068E-01  0.18945252969E-01 -0.69097456444E-02  0.22743744501E-01  0.00000000000E+00 0.  1.
     999901    1    3    3    0    0  0.10258428022E+00  0.41451335922E-01  0.75194996719E-01  0.89011012539E+00  0.88000000000E+00 0. -1.
        -11    1    4    4    0    0 -0.68623721264E-01 -0.54567567867E-01 -0.55055487644E-01  0.10352875168E+00  0.51100000000E-03 0. -1.
         11    1    4    4    0    0 -0.23443395887E-01 -0.58290210239E-02 -0.13229763431E-01  0.27547378428E-01  0.51100000000E-03 0.  1.
</event>
<event>
 8    1  0.1064839E+005  0.1043930E+01  0.7957747E-01            NaN
         13   -1    0    0    0    0  0.00000000000E+00  0.00000000000E+00  0.74505805969E-08  0.10566000000E+00  0.10566000000E+00 0.  1.
     999900   -1    0    0    0    0 -0.00000000000E+00 -0.00000000000E+00 -0.74505805969E-08  0.93827000000E+00  0.93827000000E+00 0. -1.
     999902    2    1    2    0    0 -0.15174224468E-01  0.16689258734E-01  0.14542611496E-02  0.10213268294E+01  0.10210766813E+01 0.  0.
     999903    2    3    3    0    0 -0.10319577642E+00 -0.19889883427E-01 -0.78335861028E-01  0.13259048445E+00  0.19968818449E-01 0.  0.
         14    1    1    2    0    0  0.15174224468E-01 -0.16689258734E-01 -0.14542611496E-02  0.22603170592E-01  0.00000000000E+00 0.  1.
     999901    1    3    3    0    0  0.88021551953E-01  0.36579142161E-01  0.79790122178E-01  0.88873634496E+00  0.88000000000E+00 0.  1.
        -11    1    4    4    0    0 -0.81149601329E-01 -0.23782026314E-01 -0.60931458575E-01  0.10422929692E+00  0.51100000000E-03 0. -1.
         11    1    4    4    0    0 -0.22046175092E-01  0.38921428865E-02 -0.17404402453E-01  0.28361187531E-01  0.51100000000E-03 0.  1.
</event>
<event>
 8    1  0.1064839E+005  0.1043930E+01  0.7957747E-01            NaN
         13   -1    0    0    0    0  0.00000000000E+00  0.00000000000E+00  0.74505805969E-08  0.10566000000E+00  0.10566000000E+00 0. -1.
     999900   -1    0    0    0    0 -0.00000000000E+00 -0.00000000000E+00 -0.74505805969E-08  0.93827000000E+00  0.93827000000E+00 0.  1.
     999902    2    1    2    0    0  0.29172295027E-02 -0.12633195918E-01 -0.21288747788E-01  0.10190037357E+01  0.10186988244E+01 0.  0.
     999903    2    3    3    0    0  0.10130539191E+00 -0.50998344177E-01 -0.63128549314E-01  0.13170295017E+00  0.22289903693E-01 0.  0.
         14    1    1    2    0    0 -0.29172295027E-02  0.12633195918E-01  0.21288747788E-01  0.24926264250E-01  0.00000000000E+00 0. -1.
     999901    1    3    3    0    0 -0.98388162403E-01  0.38365148259E-01  0.41839801526E-01  0.88730078558E+00  0.88000000000E+00 0. -1.
        -11    1    4    4    0    0  0.13078409715E-01 -0.15936638460E-01 -0.10222181037E-01  0.23016849311E-01  0.51100000000E-03 0.  1.
         11    1    4    4    0    0  0.88226982191E-01 -0.35061705718E-01 -0.52906368277E-01  0.10868610086E+00  0.51100000000E-03 0. -1.
</event>
<event>
 8    1  0.1064839E+005  0.1043930E+01  0.7957747E-01            NaN
         13   -1    0    0    0    0  0.00000000000E+00  0.00000000000E+00  0.74505805969E-08  0.10566000000E+00  0.10566000000E+00 0.  1.
     999900   -1    0    0    0    0 -0.00000000000E+00 -0.00000000000E+00 -0.74505805969E-08  0.93827000000E+00  0.93827000000E+00 0. -1.
     999902    2    1    2    0    0  0.75819781043E-02 -0.19824734300E-01 -0.10678877000E-01  0.10201698465E+01  0.10198931173E+01 0.  0.
     999903    2    3    3    0    0 -0.34277470801E-01  0.13575058019E-01 -0.12434961782E+00  0.13124420452E+00  0.20074525258E-01 0.  0.
         14    1    1    2    0    0 -0.75819781043E-02  0.19824734300E-01  0.10678877000E-01  0.23760153535E-01  0.00000000000E+00 0. -1.
     999901    1    3    3    0    0  0.41859448906E-01 -0.33399792319E-01  0.11367074082E+00  0.88892564195E+00  0.88000000000E+00 0.  1.
        -11    1    4    4    0    0  0.79563373805E-03 -0.28706834486E-02 -0.60545268922E-02  0.67669988470E-02  0.51100000000E-03 0. -1.
         11    1    4    4    0    0 -0.35073104539E-01  0.16445741468E-01 -0.11829509092E+00  0.12447720567E+00  0.51100000000E-03 0.  1.
</event>
<event>
 8    1  0.1064839E+005  0.1043930E+01  0.7957747E-01            NaN
         13   -1    0    0    0    0  0.00000000000E+00  0.00000000000E+00  0.74505805969E-08  0.10566000000E+00  0.10566000000E+00 0.  1.
     999900   -1    0    0    0    0 -0.00000000000E+00 -0.00000000000E+00 -0.74505805969E-08  0.93827000000E+00  0.93827000000E+00 0. -1.
     999902    2    1    2    0    0  0.84551165230E-02  0.21605865196E-01 -0.56030260901E-02  0.10200616882E+01  0.10197824040E+01 0.  0.
     999903    2    3    3    0    0 -0.40324244719E-01 -0.46304259710E-02 -0.12309678487E+00  0.13052666787E+00  0.15391784252E-01 0.  0.
         14    1    1    2    0    0 -0.84551165230E-02 -0.21605865196E-01  0.56030260901E-02  0.23868311789E-01  0.00000000000E+00 0.  1.
     999901    1    3    3    0    0  0.48779361242E-01  0.26236291167E-01  0.11749375878E+00  0.88953502034E+00  0.88000000000E+00 0.  1.
        -11    1    4    4    0    0 -0.31552449982E-01  0.30113364062E-02 -0.86779230082E-01  0.92387884170E-01  0.51100000000E-03 0.  1.
         11    1    4    4    0    0 -0.87717947374E-02 -0.76417623772E-02 -0.36317554793E-01  0.38138783702E-01  0.51100000000E-03 0. -1.
</event>
<event>
 8    1  0.1064839E+005  0.1043930E+01  0.7957747E-01            NaN
         13   -1    0    0    0    0  0.00000000000E+00  0.00000000000E+00  0.74505805969E-08  0.10566000000E+00  0.10566000000E+00 0. -1.
     999900   -1    0    0    0    0 -0.00000000000E+00 -0.00000000000E+00 -0.74505805969E-08  0.93827000000E+00  0.93827000000E+00 0. -1.
     999902    2    1    2    0    0 -0.73460987051E-02  0.19569913403E-01 -0.11805917936E-01  0.10199232015E+01  0.10196406281E+01 0.  0.
     999903    2    3    3    0    0  0.56475853798E-01  0.47789699104E-01 -0.10741750030E+00  0.13199799483E+00  0.20287283366E-01 0.  0.
         14    1    1    2    0    0  0.73460987051E-02 -0.19569913403E-01  0.11805917936E-01  0.24006798518E-01  0.00000000000E+00 0. -1.
     999901    1    3    3    0    0 -0.63821952503E-01 -0.28219785702E-01  0.95611582361E-01  0.88792520665E+00  0.88000000000E+00 0.  1.
        -11    1    4    4    0    0  0.35419674255E-01  0.18387173419E-01 -0.64766172492E-01  0.76076012586E-01  0.51100000000E-03 0. -1.
         11    1    4    4    0    0  0.21056179543E-01  0.29402525685E-01 -0.42651327805E-01  0.55921982244E-01  0.51100000000E-03 0.  1.
</event>
<event>
 8    1  0.1064839E+005  0.1043930E+01  0.7957747E-01            NaN
         13   -1    0    0    0    0  0.00000000000E+00  0.00000000000E+00  0.74505805969E-08  0.10566000000E+00  0.10566000000E+00 0. -1.
     999900   -1    0    0    0    0 -0.00000000000E+00 -0.00000000000E+00 -0.74505805969E-08  0.93827000000E+00  0.93827000000E+00 0. -1.
     999902    2    1    2    0    0  0.15407364699E-01  0.98089066593E-02 -0.14900519687E-01  0.10203582579E+01  0.10200859510E+01 0.  0.
     999903    2    3    3    0    0  0.94064645440E-01 -0.81636708127E-01 -0.37808965232E-01  0.13183472693E+00  0.20932456558E-01 0.  0.
         14    1    1    2    0    0 -0.15407364699E-01 -0.98089066593E-02  0.14900519687E-01  0.23571742060E-01  0.00000000000E+00 0. -1.
     999901    1    3    3    0    0 -0.78657280741E-01  0.91445614787E-01  0.22908445546E-01  0.88852353101E+00  0.88000000000E+00 0.  1.
        -11    1    4    4    0    0  0.58559778935E-01 -0.42998566872E-01 -0.13067495204E-01  0.73818324377E-01  0.51100000000E-03 0.  1.
         11    1    4    4    0    0  0.35504866506E-01 -0.38638141255E-01 -0.24741470028E-01  0.58016402555E-01  0.51100000000E-03 0. -1.
</event>
<event>
 8    1  0.1064839E+005  0.1043930E+01  0.7957747E-01            NaN
         13   -1    0    0    0    0  0.00000000000E+00  0.00000000000E+00  0.74505805969E-08  0.10566000000E+00  0.10566000000E+00 0.  1.
     999900   -1    0    0    0    0 -0.00000000000E+00 -0.00000000000E+00 -0.74505805969E-08  0.93827000000E+00  0.93827000000E+00 0.  1.
     999902    2    1    2    0    0  0.16127295783E-01  0.14344883126E-01  0.55566241412E-02  0.10216423036E+01  0.10213991654E+01 0.  0.
     999903    2    3    3    0    0  0.78019924948E-02  0.66785105171E-01 -0.11215495393E+00  0.13221816222E+00  0.19539380023E-01 0.  0.
         14    1    1    2    0    0 -0.16127295783E-01 -0.14344883126E-01 -0.55566241412E-02  0.22287696450E-01  0.00000000000E+00 0. -1.
     999901    1    3    3    0    0  0.83253032883E-02 -0.52440222045E-01  0.11771157807E+00  0.88942414133E+00  0.88000000000E+00 0. -1.
        -11    1    4    4    0    0  0.12421862629E-01  0.53082708800E-01 -0.96956715987E-01  0.11123372933E+00  0.51100000000E-03 0.  1.
         11    1    4    4    0    0 -0.46198701337E-02  0.13702396371E-01 -0.15198237941E-01  0.20984432894E-01  0.51100000000E-03 0. -1.
</event>
<event>
 8    1  0.1064839E+005  0.1043930E+01  0.7957747E-01            NaN
         13   -1    0    0    0    0  0.00000000000E+00  0.00000000000E+00  0.74505805969E-08  0.10566000000E+00  0.10566000000E+00 0. -1.
     999900   -1    0    0    0    0 -0.00000000000E+00 -0.00000000000E+00 -0.74505805969E-08  0.93827000000E+00  0.93827000000E+00 0.  1.
     999902    2    1    2    0    0 -0.16672768523E-01 -0.11300383780E-01  0.12257072066E-01  0.10203521354E+01  0.10200796854E+01 0.  0.
     999903    2    3    3    0    0 -0.11876353818E+00 -0.22771745207E-01  0.52922495004E-01  0.13344301152E+00  0.19568251462E-01 0.  0.
         14    1    1    2    0    0  0.16672768523E-01  0.11300383780E-01 -0.12257072066E-01  0.23577864607E-01  0.00000000000E+00 0. -1.
     999901    1    3    3    0    0  0.10209076966E+00  0.11471361427E-01 -0.40665422938E-01  0.88690912387E+00  0.88000000000E+00 0.  1.
        -11    1    4    4    0    0 -0.90465609318E-01 -0.11145058710E-01  0.45875383918E-01  0.10204435689E+00  0.51100000000E-03 0. -1.
         11    1    4    4    0    0 -0.28297928864E-01 -0.11626686496E-01  0.70471110858E-02  0.31398654630E-01  0.51100000000E-03 0.  1.
</event>
<event>
 8    1  0.1064839E+005  0.1043930E+01  0.7957747E-01            NaN
         13   -1    0    0    0    0  0.00000000000E+00  0.00000000000E+00  0.74505805969E-08  0.10566000000E+00  0.10566000000E+00 0.  1.
     999900   -1    0    0    0    0 -0.00000000000E+00 -0.00000000000E+00 -0.74505805969E-08  0.93827000000E+00  0.93827000000E+00 0. -1.
     999902    2    1    2    0    0 -0.94570803504E-02 -0.18013131665E-01 -0.11844446198E-01  0.10203885432E+01  0.10201169438E+01 0.  0.
     999903    2    3    3    0    0  0.12220072408E+00 -0.10665473474E-01 -0.38990010758E-01  0.13015000934E+00  0.19288201096E-01 0.  0.
         14    1    1    2    0    0  0.94570803504E-02  0.18013131665E-01  0.11844446198E-01  0.23541456770E-01  0.00000000000E+00 0.  1.
     999901    1    3    3    0    0 -0.13165780443E+00 -0.73476581906E-02  0.27145564561E-01  0.89023853389E+00  0.88000000000E+00 0.  1.
        -11    1    4    4    0    0  0.94257188444E-01 -0.47327678846E-04 -0.28688070444E-01  0.98527591669E-01  0.51100000000E-03 0. -1.
         11    1    4    4    0    0  0.27943535637E-01 -0.10618145795E-01 -0.10301940314E-01  0.31622417670E-01  0.51100000000E-03 0.  1.
</event>
<event>
 8    1  0.1064839E+005  0.1043930E+01  0.7957747E-01            NaN
         13   -1    0    0    0    0  0.00000000000E+00  0.00000000000E+00  0.74505805969E-08  0.10566000000E+00  0.10566000000E+00 0. -1.
     999900   -1    0    0    0    0 -0.00000000000E+00 -0.00000000000E+00 -0.74505805969E-08  0.93827000000E+00  0.93827000000E+00 0. -1.
     999902    2    1    2    0    0  0.13605183752E-01  0.17990985068E-01  0.68552591860E-02  0.10203552010E+01  0.10200828227E+01 0.  0.
     999903    2    3    3    0    0  0.14893758456E-01 -0.24185048401E-01 -0.12505934639E+00  0.12952303872E+00  0.18155903511E-01 0.  0.
         14    1    1    2    0    0 -0.13605183752E-01 -0.17990985068E-01 -0.68552591860E-02  0.23574798985E-01  0.00000000000E+00 0.  1.
     999901    1    3    3    0    0 -0.12885747038E-02  0.42176033469E-01  0.13191460557E+00  0.89083216230E+00  0.88000000000E+00 0.  1.
        -11    1    4    4    0    0  0.94520090070E-02 -0.45428441990E-02 -0.20923747444E-01  0.23410301916E-01  0.51100000000E-03 0.  1.
         11    1    4    4    0    0  0.54417494492E-02 -0.19642204202E-01 -0.10413559894E+00  0.10611273680E+00  0.51100000000E-03 0. -1.
</event>
<event>
 8    1  0.1064839E+005  0.1043930E+01  0.7957747E-01            NaN
         13   -1    0    0    0    0  0.00000000000E+00  0.00000000000E+00  0.74505805969E-08  0.10566000000E+00  0.10566000000E+00 0. -1.
     999900   -1    0    0    0    0 -0.00000000000E+00 -0.00000000000E+00 -0.74505805969E-08  0.93827000000E+00  0.93827000000E+00 0.  1.
     999902    2    1    2    0    0  0.23673878491E-01 -0.12300884263E-01 -0.20064306935E-01  0.10105482581E+01  0.10099967531E+01 0.  0.
     999903    2    3    3    0    0 -0.33275851006E-01 -0.97926924040E-01 -0.64176048948E-01  0.12346261619E+00  0.20675773894E-01 0.  0.
         14    1    1    2    0    0 -0.23673878491E-01  0.12300884263E-01  0.20064306935E-01  0.33381741855E-01  0.00000000000E+00 0. -1.
     999901    1    3    3    0    0  0.56949729497E-01  0.85626039777E-01  0.44111742012E-01  0.88708564195E+00  0.88000000000E+00 0.  1.
        -11    1    4    4    0    0 -0.14059906726E-01 -0.24096377283E-01 -0.26056352059E-01  0.38177362126E-01  0.51100000000E-03 0.  1.
         11    1    4    4    0    0 -0.19215944280E-01 -0.73830546757E-01 -0.38119696889E-01  0.85285254065E-01  0.51100000000E-03 0. -1.
</event>
<event>
 8    1  0.1064839E+005  0.1043930E+01  0.7957747E-01            NaN
         13   -1    0    0    0    0  0.00000000000E+00  0.00000000000E+00  0.74505805969E-08  0.10566000000E+00  0.10566000000E+00 0. -1.
     999900   -1    0    0    0    0 -0.00000000000E+00 -0.00000000000E+00 -0.74505805969E-08  0.93827000000E+00  0.93827000000E+00 0.  1.
     999902    2    1    2    0    0  0.47211221021E-03  0.24437110949E-02  0.22417508780E-01  0.10213747498E+01  0.10211256730E+01 0.  0.
     999903    2    3    3    0    0 -0.85457562686E-01  0.97837242284E-01  0.13136285305E-01  0.13200982132E+00  0.19465609021E-01 0.  0.
         14    1    1    2    0    0 -0.47211221021E-03 -0.24437110949E-02 -0.22417508780E-01  0.22555250248E-01  0.00000000000E+00 0.  1.
     999901    1    3    3    0    0  0.85929674897E-01 -0.95393531189E-01  0.92812234753E-02  0.88936492843E+00  0.88000000000E+00 0. -1.
        -11    1    4    4    0    0 -0.96962795483E-02  0.52040208843E-02  0.48987736538E-02  0.12056482686E-01  0.51100000000E-03 0. -1.
         11    1    4    4    0    0 -0.75761283138E-01  0.92633221399E-01  0.82375116509E-02  0.11995333863E+00  0.51100000000E-03 0.  1.
</event>
<event>
 8    1  0.1064839E+005  0.1043930E+01  0.7957747E-01            NaN
         13   -1    0    0    0    0  0.00000000000E+00  0.00000000000E+00  0.74505805969E-08  0.10566000000E+00  0.10566000000E+00 0. -1.
     999900   -1    0    0    0    0 -0.00000000000E+00 -0.00000000000E+00 -0.74505805969E-08  0.93827000000E+00  0.93827000000E+00 0. -1.
     999902    2    1    2    0    0 -0.29697753609E-02 -0.38798311551E-02 -0.23977083250E-01  0.10194601578E+01  0.10191664438E+01 0.  0.
     999903    2    3    3    0    0  0.42428165545E-01 -0.69380086881E-01  0.96425251339E-01  0.12769338409E+00  0.19850077020E-01 0.  0.
         14    1    1    2    0    0  0.29697753609E-02  0.38798311551E-02  0.23977083250E-01  0.24469842187E-01  0.00000000000E+00 0. -1.
     999901    1    3    3    0    0 -0.45397940905E-01  0.65500255726E-01 -0.12040233459E+00  0.89176677372E+00  0.88000000000E+00 0. -1.
        -11    1    4    4    0    0  0.26486105212E-02 -0.10784984795E-01  0.23709704110E-01  0.26186680292E-01  0.51100000000E-03 0. -1.
         11    1    4    4    0    0  0.39779555023E-01 -0.58595102087E-01  0.72715547229E-01  0.10150670380E+00  0.51100000000E-03 0.  1.
</event>
<event>
 8    1  0.1064839E+005  0.1043930E+01  0.7957747E-01            NaN
         13   -1    0    0    0    0  0.00000000000E+00  0.00000000000E+00  0.74505805969E-08  0.10566000000E+00  0.10566000000E+00 0. -1.
     999900   -1    0    0    0    0 -0.00000000000E+00 -0.00000000000E+00 -0.74505805969E-08  0.93827000000E+00  0.93827000000E+00 0. -1.
     999902    2    1    2    0    0  0.13696159646E-01  0.18327699108E-01  0.77507310073E-02  0.10197729477E+01  0.10194867835E+01 0.  0.
     999903    2    3    3    0    0 -0.46305324227E-01 -0.17667671162E-01  0.11856207936E+00  0.13006794061E+00  0.20109024247E-01 0.  0.
         14    1    1    2    0    0 -0.13696159646E-01 -0.18327699108E-01 -0.77507310073E-02  0.24157052279E-01  0.00000000000E+00 0.  1.
     999901    1    3    3    0    0  0.60001483873E-01  0.35995370270E-01 -0.11081134836E+00  0.88970500711E+00  0.88000000000E+00 0. -1.
        -11    1    4    4    0    0 -0.16574833965E-01 -0.84194865121E-02  0.69603182731E-01  0.72044965413E-01  0.51100000000E-03 0.  1.
         11    1    4    4    0    0 -0.29730490262E-01 -0.92481846501E-02  0.48958896634E-01  0.58022975201E-01  0.51100000000E-03 0. -1.
</event>
<event>
 8    1  0.1064839E+005  0.1043930E+01  0.7957747E-01            NaN
         13   -1    0    0    0    0  0.00000000000E+00  0.00000000000E+00  0.74505805969E-08  0.10566000000E+00  0.10566000000E+00 0. -1.
     999900   -1    0    0    0    0 -0.00000000000E+00 -0.00000000000E+00 -0.74505805969E-08  0.93827000000E+00  0.93827000000E+00 0.  1.
     999902    2    1    2    0    0 -0.96714924157E-03 -0.21953883400E-01  0.91462888108E-02  0.10201274167E+01  0.10198496866E+01 0.  0.
     999903    2    3    3    0    0 -0.36381895982E-01  0.11682479446E+00  0.32480701285E-01  0.12824277137E+00  0.20482614533E-01 0.  0.
         14    1    1    2    0    0  0.96714924157E-03  0.21953883400E-01 -0.91462888108E-02  0.23802583326E-01  0.00000000000E+00 0.  1.
     999901    1    3    3    0    0  0.35414746740E-01 -0.13877867786E+00 -0.23334412474E-01  0.89188464530E+00  0.88000000000E+00 0. -1.
        -11    1    4    4    0    0 -0.37609938245E-02  0.36054794746E-01  0.15812021487E-01  0.39552173685E-01  0.51100000000E-03 0.  1.
         11    1    4    4    0    0 -0.32620902157E-01  0.80769999713E-01  0.16668679798E-01  0.88690597689E-01  0.51100000000E-03 0. -1.
</event>
<event>
 8    1  0.1064839E+005  0.1043930E+01  0.7957747E-01            NaN
         13   -1    0    0    0    0  0.00000000000E+00  0.00000000000E+00  0.74505805969E-08  0.10566000000E+00  0.10566000000E+00 0.  1.
     999900   -1    0    0    0    0 -0.00000000000E+00 -0.00000000000E+00 -0.74505805969E-08  0.93827000000E+00  0.93827000000E+00 0. -1.
     999902    2    1    2    0    0 -0.10853981887E-01 -0.15872919032E-01 -0.14584986898E-01  0.10197953709E+01  0.10195097440E+01 0.  0.
     999903    2    3    3    0    0 -0.11706628545E-01  0.49935074951E-01  0.11496558014E+00  0.12787902472E+00  0.22481180676E-01 0.  0.
         14    1    1    2    0    0  0.10853981887E-01  0.15872919032E-01  0.14584986898E-01  0.24134629150E-01  0.00000000000E+00 0. -1.
     999901    1    3    3    0    0  0.85264665776E-03 -0.65807993982E-01 -0.12955056703E+00  0.89191634613E+00  0.88000000000E+00 0. -1.
        -11    1    4    4    0    0 -0.13916586066E-01  0.14018879443E-01  0.35103515377E-01  0.40282977315E-01  0.51100000000E-03 0.  1.
         11    1    4    4    0    0  0.22099575210E-02  0.35916195508E-01  0.79862064759E-01  0.87596047403E-01  0.51100000000E-03 0. -1.
</event>
<event>
 8    1  0.1064839E+005  0.1043930E+01  0.7957747E-01            NaN
         13   -1    0    0    0    0  0.00000000000E+00  0.00000000000E+00  0.74505805969E-08  0.10566000000E+00  0.10566000000E+00 0.  1.
     999900   -1    0    0    0    0 -0.00000000000E+00 -0.00000000000E+00 -0.74505805969E-08  0.93827000000E+00  0.93827000000E+00 0.  1.
     999902    2    1    2    0    0  0.11876677893E-01 -0.45322207646E-02  0.20055608280E-01  0.10201850231E+01  0.10199086515E+01 0.  0.
     999903    2    3    3    0    0 -0.11159381166E+00 -0.62459112429E-01  0.31305411793E-02  0.12951845002E+00  0.20270892453E-01 0.  0.
         14    1    1    2    0    0 -0.11876677893E-01  0.45322207646E-02 -0.20055608280E-01  0.23744976865E-01  0.00000000000E+00 0. -1.
     999901    1    3    3    0    0  0.12347048955E+00  0.57926891665E-01  0.16925067101E-01  0.89066657312E+00  0.88000000000E+00 0.  1.
        -11    1    4    4    0    0 -0.69501770570E-01 -0.38329604386E-01 -0.78868154620E-02  0.79762884000E-01  0.51100000000E-03 0. -1.
         11    1    4    4    0    0 -0.42092041091E-01 -0.24129508043E-01  0.11017356641E-01  0.49755566020E-01  0.51100000000E-03 0.  1.
</event>
<event>
 8    1  0.1064839E+005  0.1043930E+01  0.7957747E-01            NaN
         13   -1    0    0    0    0  0.00000000000E+00  0.00000000000E+00  0.74505805969E-08  0.10566000000E+00  0.10566000000E+00 0.  1.
     999900   -1    0    0    0    0 -0.00000000000E+00 -0.00000000000E+00 -0.74505805969E-08  0.93827000000E+00  0.93827000000E+00 0.  1.
     999902    2    1    2    0    0 -0.12169169892E-01 -0.20282136934E-01 -0.23020924004E-02  0.10201654591E+01  0.10198886265E+01 0.  0.
     999903    2    3    3    0    0 -0.61586869632E-02 -0.88729341455E-02  0.12837828021E+00  0.13042186930E+00  0.20303270135E-01 0.  0.
         14    1    1    2    0    0  0.12169169892E-01  0.20282136934E-01  0.23020924004E-02  0.23764540894E-01  0.00000000000E+00 0. -1.
     999901    1    3    3    0    0 -0.60104829286E-02 -0.11409202789E-01 -0.13068037261E+00  0.88974358980E+00  0.88000000000E+00 0.  1.
        -11    1    4    4    0    0 -0.91587884579E-02 -0.11692509870E-01  0.56431634079E-01  0.58355707852E-01  0.51100000000E-03 0.  1.
         11    1    4    4    0    0  0.30001014947E-02  0.28195757248E-02  0.71946646127E-01  0.72066161450E-01  0.51100000000E-03 0. -1.
</event>
<event>
 8    1  0.1064839E+005  0.1043930E+01  0.7957747E-01            NaN
         13   -1    0    0    0    0  0.00000000000E+00  0.00000000000E+00  0.74505805969E-08  0.10566000000E+00  0.10566000000E+00 0.  1.
     999900   -1    0    0    0    0 -0.00000000000E+00 -0.00000000000E+00 -0.74505805969E-08  0.93827000000E+00  0.93827000000E+00 0.  1.
     999902    2    1    2    0    0  0.21628919040E-01  0.12220848540E-01  0.57491481870E-02  0.10184307454E+01  0.10181114729E+01 0.  0.
     999903    2    3    3    0    0 -0.76715277553E-01  0.52035743443E-01  0.86593400367E-01  0.12837872451E+00  0.19741517541E-01 0.  0.
         14    1    1    2    0    0 -0.21628919040E-01 -0.12220848540E-01 -0.57491481870E-02  0.25499254553E-01  0.00000000000E+00 0.  1.
     999901    1    3    3    0    0  0.98344196592E-01 -0.39814894903E-01 -0.80844252180E-01  0.89005202093E+00  0.88000000000E+00 0.  1.
        -11    1    4    4    0    0 -0.17033326278E-01  0.14389662193E-01  0.10663786653E-01  0.24721934570E-01  0.51100000000E-03 0. -1.
         11    1    4    4    0    0 -0.59681951274E-01  0.37646081250E-01  0.75929613714E-01  0.10365678994E+00  0.51100000000E-03 0.  1.
</event>
<event>
 8    1  0.1064839E+005  0.1043930E+01  0.7957747E-01            NaN
         13   -1    0    0    0    0  0.00000000000E+00  0.00000000000E+00  0.74505805969E-08  0.10566000000E+00  0.10566000000E+00 0.  1.
     999900   -1    0    0    0    0 -0.00000000000E+00 -0.00000000000E+00 -0.74505805969E-08  0.93827000000E+00  0.93827000000E+00 0.  1.
     999902    2    1    2    0    0 -0.98590309404E-02  0.10889393850E-01 -0.18936530662E-01  0.10199639494E+01  0.10196823458E+01 0.  0.
     999903    2    3    3    0    0 -0.10926143710E+00  0.71672161090E-01 -0.10237999710E-01  0.13224155606E+00  0.17551415849E-01 0.  0.
         14    1    1    2    0    0  0.98590309404E-02 -0.10889393850E-01  0.18936530662E-01  0.23966050635E-01  0.00000000000E+00 0.  1.
     999901    1    3    3    0    0  0.99402406156E-01 -0.60782767240E-01 -0.86985309524E-02  0.88772239331E+00  0.88000000000E+00 0.  1.
        -11    1    4    4    0    0 -0.32448406621E-01  0.30327919940E-01 -0.81923386198E-04  0.44417897886E-01  0.51100000000E-03 0. -1.
         11    1    4    4    0    0 -0.76813030475E-01  0.41344241149E-01 -0.10156076324E-01  0.87823658169E-01  0.51100000000E-03 0.  1.
</event>
<event>
 8    1  0.1064839E+005  0.1043930E+01  0.7957747E-01            NaN
         13   -1    0    0    0    0  0.00000000000E+00  0.00000000000E+00  0.74505805969E-08  0.10566000000E+00  0.10566000000E+00 0.  1.
     999900   -1    0    0    0    0 -0.00000000000E+00 -0.00000000000E+00 -0.74505805969E-08  0.93827000000E+00  0.93827000000E+00 0. -1.
     999902    2    1    2    0    0  0.20336143590E-01 -0.10334988906E-01 -0.55591656027E-02  0.10204507527E+01  0.10201806034E+01 0.  0.
     999903    2    3    3    0    0 -0.29742591094E-02  0.63023299092E-01  0.11118466507E+00  0.12940982474E+00  0.20102003580E-01 0.  0.
         14    1    1    2    0    0 -0.20336143590E-01  0.10334988906E-01  0.55591656027E-02  0.23479247304E-01  0.00000000000E+00 0. -1.
     999901    1    3    3    0    0  0.23310402699E-01 -0.73358287998E-01 -0.11674383067E+00  0.89104092796E+00  0.88000000000E+00 0. -1.
        -11    1    4    4    0    0 -0.37738523028E-03  0.31252538339E-01  0.35595629813E-01  0.47372708969E-01  0.51100000000E-03 0.  1.
         11    1    4    4    0    0 -0.25968738792E-02  0.31770760753E-01  0.75589035252E-01  0.82037115772E-01  0.51100000000E-03 0. -1.
</event>
<event>
 8    1  0.1064839E+005  0.1043930E+01  0.7957747E-01            NaN
         13   -1    0    0    0    0  0.00000000000E+00  0.00000000000E+00  0.74505805969E-08  0.10566000000E+00  0.10566000000E+00 0.  1.
     999900   -1    0    0    0    0 -0.00000000000E+00 -0.00000000000E+00 -0.74505805969E-08  0.93827000000E+00  0.93827000000E+00 0.  1.
     999902    2    1    2    0    0  0.17802061129E-01  0.21542251423E-01  0.41159804511E-02  0.10156824643E+01  0.10152895868E+01 0.  0.
     999903    2    3    3    0    0 -0.74440815919E-01 -0.95420154545E-01 -0.95002572288E-02  0.12306028518E+00  0.20177659230E-01 0.  0.
         14    1    1    2    0    0 -0.17802061129E-01 -0.21542251423E-01 -0.41159804511E-02  0.28247535678E-01  0.00000000000E+00 0. -1.
     999901    1    3    3    0    0  0.92242877048E-01  0.11696240597E+00  0.13616237680E-01  0.89262217915E+00  0.88000000000E+00 0.  1.
        -11    1    4    4    0    0 -0.31903744810E-01 -0.41134179678E-01 -0.14112618217E-01  0.53937897480E-01  0.51100000000E-03 0. -1.
         11    1    4    4    0    0 -0.42537071109E-01 -0.54285974867E-01  0.46123609878E-02  0.69122387695E-01  0.51100000000E-03 0.  1.
</event>
<event>
 8    1  0.1064839E+005  0.1043930E+01  0.7957747E-01            NaN
         13   -1    0    0    0    0  0.00000000000E+00  0.00000000000E+00  0.74505805969E-08  0.10566000000E+00  0.10566000000E+00 0. -1.
     999900   -1    0    0    0    0 -0.00000000000E+00 -0.00000000000E+00 -0.74505805969E-08  0.93827000000E+00  0.93827000000E+00 0.  1.
     999902    2    1    2    0    0  0.18322842798E-01 -0.15101401502E-01 -0.11344348959E-02  0.10201588865E+01  0.10198818990E+01 0.  0.
     999903    2    3    3    0    0  0.99273415891E-01 -0.86107082064E-01 -0.12926734746E-01  0.13351698566E+00  0.19749539319E-01 0.  0.
         14    1    1    2    0    0 -0.18322842798E-01  0.15101401502E-01  0.11344348959E-02  0.23771113522E-01  0.00000000000E+00 0.  1.
     999901    1    3    3    0    0 -0.80950573093E-01  0.71005680562E-01  0.11792299850E-01  0.88664190082E+00  0.88000000000E+00 0. -1.
        -11    1    4    4    0    0  0.97517068509E-01 -0.81233192569E-01 -0.15218397142E-01  0.12782906930E+00  0.51100000000E-03 0. -1.
         11    1    4    4    0    0  0.17563473818E-02 -0.48738894953E-02  0.22916623963E-02  0.56879163563E-02  0.51100000000E-03 0.  1.
</event>
<event>
 8    1  0.1064839E+005  0.1043930E+01  0.7957747E-01            NaN
         13   -1    0    0    0    0  0.00000000000E+00  0.00000000000E+00  0.74505805969E-08  0.10566000000E+00  0.10566000000E+00 0. -1.
     999900   -1    0    0    0    0 -0.00000000000E+00 -0.00000000000E+00 -0.74505805969E-08  0.93827000000E+00  0.93827000000E+00 0.  1.
     999902    2    1    2    0    0 -0.12967715288E-01 -0.18059865892E-01  0.45759562771E-02  0.10212306658E+01  0.10209783607E+01 0.  0.
     999903    2    3    3    0    0 -0.10556292306E+00 -0.47687982561E-01  0.63794724259E-01  0.13389839420E+00  0.21008063201E-01 0.  0.
         14    1    1    2    0    0  0.12967715288E-01  0.18059865892E-01 -0.45759562771E-02  0.22699334168E-01  0.00000000000E+00 0.  1.
     999901    1    3    3    0    0  0.92595207774E-01  0.29628116669E-01 -0.59218767982E-01  0.88733227163E+00  0.88000000000E+00 0. -1.
        -11    1    4    4    0    0 -0.33670991178E-01 -0.23675234568E-01  0.15306021766E-01  0.43917966734E-01  0.51100000000E-03 0. -1.
         11    1    4    4    0    0 -0.71891931885E-01 -0.24012747993E-01  0.48488702493E-01  0.89980427465E-01  0.51100000000E-03 0.  1.
</event>
<event>
 8    1  0.1064839E+005  0.1043930E+01  0.7957747E-01            NaN
         13   -1    0    0    0    0  0.00000000000E+00  0.00000000000E+00  0.74505805969E-08  0.10566000000E+00  0.10566000000E+00 0. -1.
     999900   -1    0    0    0    0 -0.00000000000E+00 -0.00000000000E+00 -0.74505805969E-08  0.93827000000E+00  0.93827000000E+00 0.  1.
     999902    2    1    2    0    0 -0.67561626779E-02 -0.24684649480E-02  0.29987992024E-01  0.10130914086E+01  0.10126219351E+01 0.  0.
     999903    2    3    3    0    0 -0.59914095740E-01  0.96395472326E-01 -0.43109707946E-01  0.12295483612E+00  0.19433446758E-01 0.  0.
         14    1    1    2    0    0  0.67561626779E-02  0.24684649480E-02 -0.29987992024E-01  0.30838591391E-01  0.00000000000E+00 0.  1.
     999901    1    3    3    0    0  0.53157933062E-01 -0.98863937274E-01  0.73097699970E-01  0.89013657249E+00  0.88000000000E+00 0. -1.
        -11    1    4    4    0    0 -0.16196024629E-01  0.34107354040E-01 -0.23104202599E-01  0.44268364688E-01  0.51100000000E-03 0.  1.
         11    1    4    4    0    0 -0.43718071112E-01  0.62288118286E-01 -0.20005505347E-01  0.78686471433E-01  0.51100000000E-03 0. -1.
</event>
<event>
 8    1  0.1064839E+005  0.1043930E+01  0.7957747E-01            NaN
         13   -1    0    0    0    0  0.00000000000E+00  0.00000000000E+00  0.74505805969E-08  0.10566000000E+00  0.10566000000E+00 0.  1.
     999900   -1    0    0    0    0 -0.00000000000E+00 -0.00000000000E+00 -0.74505805969E-08  0.93827000000E+00  0.93827000000E+00 0.  1.
     999902    2    1    2    0    0  0.17371581463E-02  0.39620323590E-02  0.19495631758E-01  0.10239601458E+01  0.10237653955E+01 0.  0.
     999903    2    3    3    0    0 -0.10486003473E+00  0.23699961790E-01 -0.74410287086E-01  0.13234875682E+00  0.20542335187E-01 0.  0.
         14    1    1    2    0    0 -0.17371581463E-02 -0.39620323590E-02 -0.19495631758E-01  0.19969854193E-01  0.00000000000E+00 0. -1.
     999901    1    3    3    0    0  0.10659719287E+00 -0.19737929431E-01  0.93905918843E-01  0.89161138899E+00  0.88000000000E+00 0. -1.
        -11    1    4    4    0    0 -0.42931891609E-01  0.17635286448E-01 -0.39811433067E-01  0.61150322723E-01  0.51100000000E-03 0. -1.
         11    1    4    4    0    0 -0.61928143116E-01  0.60646753420E-02 -0.34598854019E-01  0.71198434093E-01  0.51100000000E-03 0.  1.
</event>
<event>
 8    1  0.1064839E+005  0.1043930E+01  0.7957747E-01            NaN
         13   -1    0    0    0    0  0.00000000000E+00  0.00000000000E+00  0.74505805969E-08  0.10566000000E+00  0.10566000000E+00 0.  1.
     999900   -1    0    0    0    0 -0.00000000000E+00 -0.00000000000E+00 -0.74505805969E-08  0.93827000000E+00  0.93827000000E+00 0.  1.
     999902    2    1    2    0    0 -0.13318478046E-01 -0.41531855201E-02 -0.20042681211E-01  0.10195099288E+01  0.10192174228E+01 0.  0.
     999903    2    3    3    0    0  0.81600569452E-01 -0.93456248248E-01  0.24200076109E-01  0.12881240204E+00  0.24784429892E-01 0.  0.
         14    1    1    2    0    0  0.13318478046E-01  0.41531855201E-02  0.20042681211E-01  0.24420071203E-01  0.00000000000E+00 0.  1.
     999901    1    3    3    0    0 -0.94919047497E-01  0.89303062728E-01 -0.44242757320E-01  0.89069752675E+00  0.88000000000E+00 0.  1.
        -11    1    4    4    0    0  0.23424972513E-01 -0.17846810587E-01 -0.30090127527E-02  0.29606642230E-01  0.51100000000E-03 0. -1.
         11    1    4    4    0    0  0.58175596939E-01 -0.75609437661E-01  0.27209088861E-01  0.99205759814E-01  0.51100000000E-03 0.  1.
</event>
<event>
 8    1  0.1064839E+005  0.1043930E+01  0.7957747E-01            NaN
         13   -1    0    0    0    0  0.00000000000E+00  0.00000000000E+00  0.74505805969E-08  0.10566000000E+00  0.10566000000E+00 0.  1.
     999900   -1    0    0    0    0 -0.00000000000E+00 -0.00000000000E+00 -0.74505805969E-08  0.93827000000E+00  0.93827000000E+00 0.  1.
     999902    2    1    2    0    0 -0.22563121051E-02 -0.22794353696E-01 -0.65016795400E-02  0.10201193859E+01  0.10198414662E+01 0.  0.
     999903    2    3    3    0    0 -0.52226142485E-01  0.11508595579E+00 -0.11907558267E-02  0.12796683755E+00  0.20043613307E-01 0.  0.
         14    1    1    2    0    0  0.22563121051E-02  0.22794353696E-01  0.65016795400E-02  0.23810614053E-01  0.00000000000E+00 0.  1.
     999901    1    3    3    0    0  0.49969830379E-01 -0.13788030949E+00 -0.53109237134E-02  0.89215254839E+00  0.88000000000E+00 0.  1.
        -11    1    4    4    0    0 -0.42801160889E-01  0.96672725498E-01  0.64202142661E-02  0.10591994855E+00  0.51100000000E-03 0. -1.
         11    1    4    4    0    0 -0.94249815953E-02  0.18413230296E-01 -0.76109700927E-02  0.22046889004E-01  0.51100000000E-03 0.  1.
</event>
<event>
 8    1  0.1064839E+005  0.1043930E+01  0.7957747E-01            NaN
         13   -1    0    0    0    0  0.00000000000E+00  0.00000000000E+00  0.74505805969E-08  0.10566000000E+00  0.10566000000E+00 0. -1.
     999900   -1    0    0    0    0 -0.00000000000E+00 -0.00000000000E+00 -0.74505805969E-08  0.93827000000E+00  0.93827000000E+00 0.  1.
     999902    2    1    2    0    0  0.71924410408E-02 -0.94296000265E-02  0.20596069268E-01  0.10201634976E+01  0.10198866188E+01 0.  0.
     999903    2    3    3    0    0 -0.85137013046E-02 -0.94984738354E-01  0.90367270862E-01  0.13312664093E+00  0.21491283174E-01 0.  0.
         14    1    1    2    0    0 -0.71924410408E-02  0.94296000265E-02 -0.20596069268E-01  0.23766502352E-01  0.00000000000E+00 0.  1.
     999901    1    3    3    0    0  0.15706142345E-01  0.85555138327E-01 -0.69771201595E-01  0.88703685672E+00  0.88000000000E+00 0.  1.
        -11    1    4    4    0    0 -0.97250967865E-02 -0.56482378837E-01  0.66569931769E-01  0.87844485105E-01  0.51100000000E-03 0.  1.
         11    1    4    4    0    0  0.12113954818E-02 -0.38502359517E-01  0.23797339094E-01  0.45282155827E-01  0.51100000000E-03 0. -1.
</event>
<event>
 8    1  0.1064839E+005  0.1043930E+01  0.7957747E-01            NaN
         13   -1    0    0    0    0  0.00000000000E+00  0.00000000000E+00  0.74505805969E-08  0.10566000000E+00  0.10566000000E+00 0.  1.
     999900   -1    0    0    0    0 -0.00000000000E+00 -0.00000000000E+00 -0.74505805969E-08  0.93827000000E+00  0.93827000000E+00 0.  1.
     999902    2    1    2    0    0  0.84321471331E-02  0.13876396037E-01 -0.92121192945E-02  0.10252613468E+01  0.10250913669E+01 0.  0.
     999903    2    3    3    0    0 -0.19980323826E-01  0.12166903009E+00 -0.56053548066E-01  0.13699300897E+00  0.20555243413E-01 0.  0.
         14    1    1    2    0    0 -0.84321471331E-02 -0.13876396037E-01  0.92121192945E-02  0.18668653250E-01  0.00000000000E+00 0.  1.
     999901    1    3    3    0    0  0.28412470959E-01 -0.10779263405E+00  0.46841428771E-01  0.88826833778E+00  0.88000000000E+00 0. -1.
        -11    1    4    4    0    0 -0.20412396467E-01  0.61210225640E-01 -0.29875262602E-01  0.71106610727E-01  0.51100000000E-03 0.  1.
         11    1    4    4    0    0  0.43207264120E-03  0.60458804448E-01 -0.26178285464E-01  0.65886398239E-01  0.51100000000E-03 0. -1.
</event>
<event>
 8    1  0.1064839E+005  0.1043930E+01  0.7957747E-01            NaN
         13   -1    0    0    0    0  0.00000000000E+00  0.00000000000E+00  0.74505805969E-08  0.10566000000E+00  0.10566000000E+00 0.  1.
     999900   -1    0    0    0    0 -0.00000000000E+00 -0.00000000000E+00 -0.74505805969E-08  0.93827000000E+00  0.93827000000E+00 0.  1.
     999902    2    1    2    0    0 -0.15062257484E-01 -0.15684171096E-01  0.73055381411E-02  0.10209901719E+01  0.10207324309E+01 0.  0.
     999903    2    3    3    0    0  0.17336841509E-01  0.40974397072E-01  0.12187676745E+00  0.13116633458E+00  0.19266385063E-01 0.  0.
         14    1    1    2    0    0  0.15062257484E-01  0.15684171096E-01 -0.73055381411E-02  0.22939828051E-01  0.00000000000E+00 0. -1.
     999901    1    3    3    0    0 -0.32399098993E-01 -0.56658568168E-01 -0.11457122931E+00  0.88982383737E+00  0.88000000000E+00 0.  1.
        -11    1    4    4    0    0 -0.42105329266E-03  0.14739852838E-01  0.22897056737E-01  0.27239252483E-01  0.51100000000E-03 0. -1.
         11    1    4    4    0    0  0.17757894802E-01  0.26234544234E-01  0.98979710716E-01  0.10392708210E+00  0.51100000000E-03 0.  1.
</event>
<event>
 8    1  0.1064839E+005  0.1043930E+01  0.7957747E-01            NaN
         13   -1    0    0    0    0  0.00000000000E+00  0.00000000000E+00  0.74505805969E-08  0.10566000000E+00  0.10566000000E+00 0.  1.
     999900   -1    0    0    0    0 -0.00000000000E+00 -0.00000000000E+00 -0.74505805969E-08  0.93827000000E+00  0.93827000000E+00 0.  1.
     999902    2    1    2    0    0  0.25791623289E-02 -0.17418638274E-01  0.18002684917E-01  0.10187475120E+01  0.10184362206E+01 0.  0.
     999903    2    3    3    0    0 -0.37431194092E-01  0.88649487934E-01  0.84158837069E-01  0.12901276923E+00  0.17371205096E-01 0.  0.
         14    1    1    2    0    0 -0.25791623289E-02  0.17418638274E-01 -0.18002684917E-01  0.25182488000E-01  0.00000000000E+00 0.  1.
     999901    1    3    3    0    0  0.40010356421E-01 -0.10606812621E+00 -0.66156152152E-01  0.88973474277E+00  0.88000000000E+00 0. -1.
        -11    1    4    4    0    0 -0.30957550554E-01  0.83644655977E-01  0.73553273903E-01  0.11560771442E+00  0.51100000000E-03 0. -1.
         11    1    4    4    0    0 -0.64736435382E-02  0.50048319563E-02  0.10605563166E-01  0.13405054817E-01  0.51100000000E-03 0.  1.
</event>
<event>
 8    1  0.1064839E+005  0.1043930E+01  0.7957747E-01            NaN
         13   -1    0    0    0    0  0.00000000000E+00  0.00000000000E+00  0.74505805969E-08  0.10566000000E+00  0.10566000000E+00 0. -1.
     999900   -1    0    0    0    0 -0.00000000000E+00 -0.00000000000E+00 -0.74505805969E-08  0.93827000000E+00  0.93827000000E+00 0.  1.
     999902    2    1    2    0    0 -0.14703177553E-01 -0.16726103724E-01  0.28785583202E-02  0.10214748876E+01  0.10212280421E+01 0.  0.
     999903    2    3    3    0    0 -0.12680435974E+00 -0.31732492302E-01 -0.21128530775E-01  0.13391181541E+00  0.19991567684E-01 0.  0.
         14    1    1    2    0    0  0.14703177553E-01  0.16726103724E-01 -0.28785583202E-02  0.22455112423E-01  0.00000000000E+00 0. -1.
     999901    1    3    3    0    0  0.11210118218E+00  0.15006388578E-01  0.24007089095E-01  0.88756307217E+00  0.88000000000E+00 0. -1.
        -11    1    4    4    0    0 -0.12215072930E+00 -0.33226453978E-01 -0.17480009797E-01  0.12779127425E+00  0.51100000000E-03 0. -1.
         11    1    4    4    0    0 -0.46536304393E-02  0.14939616759E-02 -0.36485209777E-02  0.61205411590E-02  0.51100000000E-03 0.  1.
</event>
<event>
 8    1  0.1064839E+005  0.1043930E+01  0.7957747E-01            NaN
         13   -1    0    0    0    0  0.00000000000E+00  0.00000000000E+00  0.74505805969E-08  0.10566000000E+00  0.10566000000E+00 0.  1.
     999900   -1    0    0    0    0 -0.00000000000E+00 -0.00000000000E+00 -0.74505805969E-08  0.93827000000E+00  0.93827000000E+00 0. -1.
     999902    2    1    2    0    0  0.13603715149E-01  0.18328698688E-01  0.42464711409E-02  0.10207128775E+01  0.10204487951E+01 0.  0.
     999903    2    3    3    0    0 -0.12260514452E+00  0.29622725160E-01 -0.27591299232E-01  0.12959332763E+00  0.11118608908E-01 0.  0.
         14    1    1    2    0    0 -0.13603715149E-01 -0.18328698688E-01 -0.42464711409E-02  0.23217122530E-01  0.00000000000E+00 0. -1.
     999901    1    3    3    0    0  0.13620885967E+00 -0.11294026472E-01  0.31837770373E-01  0.89111954984E+00  0.88000000000E+00 0.  1.
        -11    1    4    4    0    0 -0.52494602114E-01  0.15708174136E-01 -0.72415971804E-02  0.55273247024E-01  0.51100000000E-03 0.  1.
         11    1    4    4    0    0 -0.70110542406E-01  0.13914551024E-01 -0.20349702052E-01  0.74320080605E-01  0.51100000000E-03 0. -1.
</event>
<event>
 8    1  0.1064839E+005  0.1043930E+01  0.7957747E-01            NaN
         13   -1    0    0    0    0  0.00000000000E+00  0.00000000000E+00  0.74505805969E-08  0.10566000000E+00  0.10566000000E+00 0.  1.
     999900   -1    0    0    0    0 -0.00000000000E+00 -0.00000000000E+00 -0.74505805969E-08  0.93827000000E+00  0.93827000000E+00 0.  1.
     999902    2    1    2    0    0  0.15227369291E-01  0.21932116963E-02 -0.17208114319E-01  0.10208474925E+01  0.10205864985E+01 0.  0.
     999903    2    3    3    0    0 -0.54491995303E-01  0.11515461670E+00  0.18099692565E-01  0.13019171724E+00  0.19807096381E-01 0.  0.
         14    1    1    2    0    0 -0.15227369291E-01 -0.21932116963E-02  0.17208114319E-01  0.23082507478E-01  0.00000000000E+00 0.  1.
     999901    1    3    3    0    0  0.69719364594E-01 -0.11296140500E+00 -0.35307806884E-01  0.89065577528E+00  0.88000000000E+00 0.  1.
        -11    1    4    4    0    0 -0.24221742125E-01  0.53132512161E-01 -0.16046649951E-02  0.58417400754E-01  0.51100000000E-03 0.  1.
         11    1    4    4    0    0 -0.30270253177E-01  0.62022104539E-01  0.19704357560E-01  0.71774316484E-01  0.51100000000E-03 0. -1.
</event>
<event>
 8    1  0.1064839E+005  0.1043930E+01  0.7957747E-01            NaN
         13   -1    0    0    0    0  0.00000000000E+00  0.00000000000E+00  0.74505805969E-08  0.10566000000E+00  0.10566000000E+00 0. -1.
     999900   -1    0    0    0    0 -0.00000000000E+00 -0.00000000000E+00 -0.74505805969E-08  0.93827000000E+00  0.93827000000E+00 0. -1.
     999902    2    1    2    0    0 -0.11487928414E-01  0.14878810558E-01 -0.14366695942E-01  0.10202708907E+01  0.10199965377E+01 0.  0.
     999903    2    3    3    0    0 -0.25206507355E-01 -0.11482539580E+00  0.48126369582E-01  0.12846555102E+00  0.19157526378E-01 0.  0.
         14    1    1    2    0    0  0.11487928414E-01 -0.14878810558E-01  0.14366695942E-01  0.23659109348E-01  0.00000000000E+00 0.  1.
     999901    1    3    3    0    0  0.13718578941E-01  0.12970420636E+00 -0.62493065524E-01  0.89180533963E+00  0.88000000000E+00 0.  1.
        -11    1    4    4    0    0 -0.13319553685E-01 -0.67935803584E-01  0.38240036156E-01  0.79090109402E-01  0.51100000000E-03 0.  1.
         11    1    4    4    0    0 -0.11886953671E-01 -0.46889592213E-01  0.98863334260E-02  0.49375441619E-01  0.51100000000E-03 0. -1.
</event>
<event>
 8    1  0.1064839E+005  0.1043930E+01  0.7957747E-01            NaN
         13   -1    0    0    0    0  0.00000000000E+00  0.00000000000E+00  0.74505805969E-08  0.10566000000E+00  0.10566000000E+00 0.  1.
     999900   -1    0    0    0    0 -0.00000000000E+00 -0.00000000000E+00 -0.74505805969E-08  0.93827000000E+00  0.93827000000E+00 0.  1.
     999902    2    1    2    0    0 -0.37652950875E-02 -0.22204442893E-01 -0.77068012256E-02  0.10201264390E+01  0.10198486858E+01 0.  0.
     999903    2    3    3    0    0  0.51989590294E-01 -0.12004366122E+00 -0.11862292794E-01  0.13294078312E+00  0.20472902300E-01 0.  0.
         14    1    1    2    0    0  0.37652950875E-02  0.22204442893E-01  0.77068012256E-02  0.23803561003E-01  0.00000000000E+00 0.  1.
     999901    1    3    3    0    0 -0.55754885381E-01  0.97839218324E-01  0.41554915680E-02  0.88718565588E+00  0.88000000000E+00 0. -1.
        -11    1    4    4    0    0  0.20223177765E-01 -0.71833532708E-01 -0.49574236250E-02  0.74792182147E-01  0.51100000000E-03 0. -1.
         11    1    4    4    0    0  0.31766412528E-01 -0.48210128508E-01 -0.69048691686E-02  0.58148600972E-01  0.51100000000E-03 0.  1.
</event>
<event>
 8    1  0.1064839E+005  0.1043930E+01  0.7957747E-01            NaN
         13   -1    0    0    0    0  0.00000000000E+00  0.00000000000E+00  0.74505805969E-08  0.10566000000E+00  0.10566000000E+00 0. -1.
     999900   -1    0    0    0    0 -0.00000000000E+00 -0.00000000000E+00 -0.74505805969E-08  0.93827000000E+00  0.93827000000E+00 0. -1.
     999902    2    1    2    0    0 -0.59629269414E-02 -0.21150116105E-01  0.87745557762E-02  0.10202682854E+01  0.10199938713E+01 0.  0.
     999903    2    3    3    0    0  0.11331448749E-01 -0.42836126604E-01 -0.12073557477E+00  0.13035691206E+00  0.21272283229E-01 0.  0.
         14    1    1    2    0    0  0.59629269414E-02  0.21150116105E-01 -0.87745557762E-02  0.23661714605E-01  0.00000000000E+00 0.  1.
     999901    1    3    3    0    0 -0.17294375690E-01  0.21686010499E-01  0.12951013054E+00  0.88991137334E+00  0.88000000000E+00 0.  1.
        -11    1    4    4    0    0 -0.35151055741E-03 -0.14567008734E-01 -0.66581048914E-01  0.68158774187E-01  0.51100000000E-03 0. -1.
         11    1    4    4    0    0  0.11682959306E-01 -0.28269117870E-01 -0.54154525852E-01  0.62198137871E-01  0.51100000000E-03 0.  1.
</event>
<event>
 8    1  0.1064839E+005  0.1043930E+01  0.7957747E-01            NaN
         13   -1    0    0    0    0  0.00000000000E+00  0.00000000000E+00  0.74505805969E-08  0.10566000000E+00  0.10566000000E+00 0.  1.
     999900   -1    0    0    0    0 -0.00000000000E+00 -0.00000000000E+00 -0.74505805969E-08  0.93827000000E+00  0.93827000000E+00 0. -1.
     999902    2    1    2    0    0  0.16876140621E-01 -0.17157451988E-02  0.17138565145E-01  0.10198161384E+01  0.10195310088E+01 0.  0.
     999903    2    3    3    0    0 -0.50668330498E-02  0.31917255312E-01  0.12650683773E+00  0.13213709067E+00  0.20294007815E-01 0.  0.
         14    1    1    2    0    0 -0.16876140621E-01  0.17157451988E-02 -0.17138565145E-01  0.24113861555E-01  0.00000000000E+00 0. -1.
     999901    1    3    3    0    0  0.21942973671E-01 -0.33633000511E-01 -0.10936827259E+00  0.88767904778E+00  0.88000000000E+00 0. -1.
        -11    1    4    4    0    0 -0.27946264799E-02 -0.18914630514E-02  0.22262587077E-01  0.22522687984E-01  0.51100000000E-03 0. -1.
         11    1    4    4    0    0 -0.22722065699E-02  0.33808718363E-01  0.10424425065E+00  0.10961440268E+00  0.51100000000E-03 0.  1.
</event>
<event>
 8    1  0.1064839E+005  0.1043930E+01  0.7957747E-01            NaN
         13   -1    0    0    0    0  0.00000000000E+00  0.00000000000E+00  0.74505805969E-08  0.10566000000E+00  0.10566000000E+00 0.  1.
     999900   -1    0    0    0    0 -0.00000000000E+00 -0.00000000000E+00 -0.74505805969E-08  0.93827000000E+00  0.93827000000E+00 0.  1.
     999902    2    1    2    0    0  0.83748552455E-02  0.17721982901E-01  0.15073107623E-01  0.10192033858E+01  0.10189033988E+01 0.  0.
     999903    2    3    3    0    0 -0.54660510216E-01  0.44566173632E-01  0.10915370335E+00  0.13154059710E+00  0.20358843818E-01 0.  0.
         14    1    1    2    0    0 -0.83748552455E-02 -0.17721982901E-01 -0.15073107623E-01  0.24726614239E-01  0.00000000000E+00 0. -1.
     999901    1    3    3    0    0  0.63035365462E-01 -0.26844190731E-01 -0.94080595729E-01  0.88766278866E+00  0.88000000000E+00 0.  1.
        -11    1    4    4    0    0 -0.24304304434E-01  0.32833437363E-01  0.60096824288E-01  0.72667896856E-01  0.51100000000E-03 0.  1.
         11    1    4    4    0    0 -0.30356205782E-01  0.11732736269E-01  0.49056879064E-01  0.58872700247E-01  0.51100000000E-03 0. -1.
</event>
<event>
 8    1  0.1064839E+005  0.1043930E+01  0.7957747E-01            NaN
         13   -1    0    0    0    0  0.00000000000E+00  0.00000000000E+00  0.74505805969E-08  0.10566000000E+00  0.10566000000E+00 0.  1.
     999900   -1    0    0    0    0 -0.00000000000E+00 -0.00000000000E+00 -0.74505805969E-08  0.93827000000E+00  0.93827000000E+00 0. -1.
     999902    2    1    2    0    0 -0.22940872929E-01  0.24985660330E-02 -0.37138332622E-02  0.10205565313E+01  0.10202888387E+01 0.  0.
     999903    2    3    3    0    0  0.32411675750E-01 -0.86406680195E-01  0.89002613632E-01  0.12950973846E+00  0.18294152496E-01 0.  0.
         14    1    1    2    0    0  0.22940872929E-01 -0.24985660330E-02  0.37138332622E-02  0.23373468730E-01  0.00000000000E+00 0. -1.
     999901    1    3    3    0    0 -0.55352548679E-01  0.88905246228E-01 -0.92716446894E-01  0.89104679281E+00  0.88000000000E+00 0. -1.
        -11    1    4    4    0    0  0.28777772485E-01 -0.51956604025E-01  0.58029988541E-01  0.83038482537E-01  0.51100000000E-03 0. -1.
         11    1    4    4    0    0  0.36339032643E-02 -0.34450076169E-01  0.30972625091E-01  0.46471255923E-01  0.51100000000E-03 0.  1.
</event>
<event>
 8    1  0.1064839E+005  0.1043930E+01  0.7957747E-01            NaN
         13   -1    0    0    0    0  0.00000000000E+00  0.00000000000E+00  0.74505805969E-08  0.10566000000E+00  0.10566000000E+00 0. -1.
     999900   -1    0    0    0    0 -0.00000000000E+00 -0.00000000000E+00 -0.74505805969E-08  0.93827000000E+00  0.93827000000E+00 0. -1.
     999902    2    1    2    0    0 -0.14343236729E-01  0.27954321836E-02 -0.17181800308E-01  0.10213743545E+01  0.10211252690E+01 0.  0.
     999903    2    3    3    0    0 -0.12756140730E+00 -0.28644929617E-01 -0.18774817873E-01  0.13356278206E+00  0.19851406537E-01 0.  0.
         14    1    1    2    0    0  0.14343236729E-01 -0.27954321836E-02  0.17181800308E-01  0.22555645475E-01  0.00000000000E+00 0. -1.
     999901    1    3    3    0    0  0.11321817057E+00  0.31440361800E-01  0.15930175649E-02  0.88781157246E+00  0.88000000000E+00 0. -1.
        -11    1    4    4    0    0 -0.72112582494E-01 -0.66470301493E-02 -0.13575038314E-01  0.73681411157E-01  0.51100000000E-03 0. -1.
         11    1    4    4    0    0 -0.55448824802E-01 -0.21997899467E-01 -0.51997795588E-02  0.59881370904E-01  0.51100000000E-03 0.  1.
</event>
<event>
 8    1  0.1395593E+005  0.1043930E+01  0.7957747E-01            NaN
         13   -1    0    0    0    0  0.00000000000E+00  0.00000000000E+00  0.74505805969E-08  0.10566000000E+00  0.10566000000E+00 0. -1.
     999900   -1    0    0    0    0 -0.00000000000E+00 -0.00000000000E+00 -0.74505805969E-08  0.93827000000E+00  0.93827000000E+00 0. -1.
     999902    2    1    2    0    0 -0.15734134341E-01  0.12240572499E-01 -0.14774662868E-01  0.10191169941E+01  0.10188148813E+01 0.  0.
     999903    2    3    3    0    0  0.66662792929E-01  0.48937502530E-01 -0.99125261818E-01  0.13049393463E+00  0.19079893317E-01 0.  0.
         14    1    1    2    0    0  0.15734134341E-01 -0.12240572499E-01  0.14774662868E-01  0.24813005893E-01  0.00000000000E+00 0.  1.
     999901    1    3    3    0    0 -0.82396927270E-01 -0.36696930032E-01  0.84350598950E-01  0.88862305948E+00  0.88000000000E+00 0.  1.
        -11    1    4    4    0    0  0.35484804590E-01  0.20891332832E-01 -0.35951149222E-01  0.54665943655E-01  0.51100000000E-03 0.  1.
         11    1    4    4    0    0  0.31177988339E-01  0.28046169699E-01 -0.63174112596E-01  0.75827990972E-01  0.51100000000E-03 0. -1.
</event>
<event>
 8    1  0.1064839E+005  0.1043930E+01  0.7957747E-01            NaN
         13   -1    0    0    0    0  0.00000000000E+00  0.00000000000E+00  0.74505805969E-08  0.10566000000E+00  0.10566000000E+00 0. -1.
     999900   -1    0    0    0    0 -0.00000000000E+00 -0.00000000000E+00 -0.74505805969E-08  0.93827000000E+00  0.93827000000E+00 0. -1.
     999902    2    1    2    0    0 -0.20712094827E-01 -0.84217763642E-02 -0.82686096688E-02  0.10200912271E+01  0.10198126418E+01 0.  0.
     999903    2    3    3    0    0  0.66366667339E-01  0.66950376788E-01 -0.86150182612E-01  0.12917640976E+00  0.19437165128E-01 0.  0.
         14    1    1    2    0    0  0.20712094827E-01  0.84217763642E-02  0.82686096688E-02  0.23838772936E-01  0.00000000000E+00 0. -1.
     999901    1    3    3    0    0 -0.87078762166E-01 -0.75372153152E-01  0.77881572943E-01  0.89091481731E+00  0.88000000000E+00 0.  1.
        -11    1    4    4    0    0  0.48647211392E-01  0.53092519624E-01 -0.54343275070E-01  0.90215406016E-01  0.51100000000E-03 0. -1.
         11    1    4    4    0    0  0.17719455946E-01  0.13857857164E-01 -0.31806907542E-01  0.38961003742E-01  0.51100000000E-03 0.  1.
</event>
<event>
 8    1  0.1064839E+005  0.1043930E+01  0.7957747E-01            NaN
         13   -1    0    0    0    0  0.00000000000E+00  0.00000000000E+00  0.74505805969E-08  0.10566000000E+00  0.10566000000E+00 0.  1.
     999900   -1    0    0    0    0 -0.00000000000E+00 -0.00000000000E+00 -0.74505805969E-08  0.93827000000E+00  0.93827000000E+00 0. -1.
     999902    2    1    2    0    0 -0.62855943493E-03 -0.21520778699E-02  0.23766891121E-01  0.10200575967E+01  0.10197782156E+01 0.  0.
     999903    2    3    3    0    0  0.24443761517E-01 -0.17874996448E-01 -0.12291282752E+00  0.12742622188E+00  0.14589923857E-01 0.  0.
         14    1    1    2    0    0  0.62855943493E-03  0.21520778699E-02 -0.23766891121E-01  0.23872403307E-01  0.00000000000E+00 0. -1.
     999901    1    3    3    0    0 -0.25072320952E-01  0.15722918578E-01  0.14667971864E+00  0.89263137482E+00  0.88000000000E+00 0.  1.
        -11    1    4    4    0    0 -0.48872651002E-03 -0.22883643500E-02 -0.27004764330E-01  0.27110770600E-01  0.51100000000E-03 0. -1.
         11    1    4    4    0    0  0.24932488027E-01 -0.15586632098E-01 -0.95908063187E-01  0.10031545128E+00  0.51100000000E-03 0.  1.
</event>
<event>
 8    1  0.1064839E+005  0.1043930E+01  0.7957747E-01            NaN
         13   -1    0    0    0    0  0.00000000000E+00  0.00000000000E+00  0.74505805969E-08  0.10566000000E+00  0.10566000000E+00 0. -1.
     999900   -1    0    0    0    0 -0.00000000000E+00 -0.00000000000E+00 -0.74505805969E-08  0.93827000000E+00  0.93827000000E+00 0.  1.
     999902    2    1    2    0    0 -0.16484186406E-01 -0.15392713614E-01 -0.56660446408E-02  0.10206755790E+01  0.10204106377E+01 0.  0.
     999903    2    3    3    0    0  0.11557070953E+00  0.50466811348E-01  0.10636663094E-01  0.12823972649E+00  0.20707508339E-01 0.  0.
         14    1    1    2    0    0  0.16484186406E-01  0.15392713614E-01  0.56660446408E-02  0.23254420994E-01  0.00000000000E+00 0. -1.
     999901    1    3    3    0    0 -0.13205489593E+00 -0.65859524962E-01 -0.16302707735E-01  0.89243585251E+00  0.88000000000E+00 0.  1.
        -11    1    4    4    0    0  0.25555052994E-01  0.26338380474E-02  0.47695134278E-02  0.26134406741E-01  0.51100000000E-03 0. -1.
         11    1    4    4    0    0  0.90015656533E-01  0.47832973300E-01  0.58671496665E-02  0.10210531975E+00  0.51100000000E-03 0.  1.
</event>
<event>
 8    1  0.1064839E+005  0.1043930E+01  0.7957747E-01            NaN
         13   -1    0    0    0    0  0.00000000000E+00  0.00000000000E+00  0.74505805969E-08  0.10566000000E+00  0.10566000000E+00 0.  1.
     999900   -1    0    0    0    0 -0.00000000000E+00 -0.00000000000E+00 -0.74505805969E-08  0.93827000000E+00  0.93827000000E+00 0.  1.
     999902    2    1    2    0    0  0.12670947835E-02 -0.12327422977E-01 -0.20418945564E-01  0.10200447697E+01  0.10197650847E+01 0.  0.
     999903    2    3    3    0    0 -0.12171649812E+00 -0.16498919712E-01  0.36396258286E-01  0.12966825787E+00  0.20051164919E-01 0.  0.
         14    1    1    2    0    0 -0.12670947835E-02  0.12327422977E-01  0.20418945564E-01  0.23885230256E-01  0.00000000000E+00 0.  1.
     999901    1    3    3    0    0  0.12298359291E+00  0.41714967349E-02 -0.56815203850E-01  0.89037651187E+00  0.88000000000E+00 0.  1.
        -11    1    4    4    0    0 -0.61721273793E-01 -0.16121797430E-01  0.25429279431E-01  0.68675595115E-01  0.51100000000E-03 0. -1.
         11    1    4    4    0    0 -0.59995224331E-01 -0.37712228127E-03  0.10966978855E-01  0.60992662755E-01  0.51100000000E-03 0.  1.
</event>
<event>
 8    1  0.1064839E+005  0.1043930E+01  0.7957747E-01            NaN
         13   -1    0    0    0    0  0.00000000000E+00  0.00000000000E+00  0.74505805969E-08  0.10566000000E+00  0.10566000000E+00 0. -1.
     999900   -1    0    0    0    0 -0.00000000000E+00 -0.00000000000E+00 -0.74505805969E-08  0.93827000000E+00  0.93827000000E+00 0. -1.
     999902    2    1    2    0    0 -0.24006018956E-01  0.25225894113E-02 -0.46516211333E-02  0.10193476896E+01  0.10190512364E+01 0.  0.
     999903    2    3    3    0    0 -0.11402581155E-01 -0.60216134853E-01 -0.11308732841E+00  0.13038576876E+00  0.21347203438E-01 0.  0.
         14    1    1    2    0    0  0.24006018956E-01 -0.25225894113E-02  0.46516211333E-02  0.24582310360E-01  0.00000000000E+00 0.  1.
     999901    1    3    3    0    0 -0.12603437801E-01  0.62738724264E-01  0.10843570727E+00  0.88896192088E+00  0.88000000000E+00 0.  1.
        -11    1    4    4    0    0 -0.17234644011E-01 -0.35347768647E-01 -0.66941187017E-01  0.77639431623E-01  0.51100000000E-03 0. -1.
         11    1    4    4    0    0  0.58320628564E-02 -0.24868366205E-01 -0.46146141391E-01  0.52746337135E-01  0.51100000000E-03 0.  1.
</event>
<event>
 8    1  0.1064839E+005  0.1043930E+01  0.7957747E-01            NaN
         13   -1    0    0    0    0  0.00000000000E+00  0.00000000000E+00  0.74505805969E-08  0.10566000000E+00  0.10566000000E+00 0. -1.
     999900   -1    0    0    0    0 -0.00000000000E+00 -0.00000000000E+00 -0.74505805969E-08  0.93827000000E+00  0.93827000000E+00 0.  1.
     999902    2    1    2    0    0  0.23720099534E-02 -0.14206391317E-01 -0.17819313551E-01  0.10210176470E+01  0.10207605300E+01 0.  0.
     999903    2    3    3    0    0 -0.37045973130E-01 -0.12461914451E+00  0.16513997782E-01  0.13257883101E+00  0.20052406449E-01 0.  0.
         14    1    1    2    0    0 -0.23720099534E-02  0.14206391317E-01  0.17819313551E-01  0.22912353020E-01  0.00000000000E+00 0. -1.
     999901    1    3    3    0    0  0.39417983083E-01  0.11041275320E+00 -0.34333311333E-01  0.88843881597E+00  0.88000000000E+00 0. -1.
        -11    1    4    4    0    0 -0.12259765335E-01 -0.72551687837E-01  0.13665353517E-01  0.74840178125E-01  0.51100000000E-03 0. -1.
         11    1    4    4    0    0 -0.24786207795E-01 -0.52067456676E-01  0.28486442651E-02  0.57738652883E-01  0.51100000000E-03 0.  1.
</event>
<event>
 8    1  0.1064839E+005  0.1043930E+01  0.7957747E-01            NaN
         13   -1    0    0    0    0  0.00000000000E+00  0.00000000000E+00  0.74505805969E-08  0.10566000000E+00  0.10566000000E+00 0.  1.
     999900   -1    0    0    0    0 -0.00000000000E+00 -0.00000000000E+00 -0.74505805969E-08  0.93827000000E+00  0.93827000000E+00 0. -1.
     999902    2    1    2    0    0 -0.66913416233E-02  0.11753070574E-01  0.20005369260E-01  0.10197820494E+01  0.10194961033E+01 0.  0.
     999903    2    3    3    0    0 -0.12320819038E-02 -0.68533387087E-01  0.11029510323E+00  0.13150959406E+00  0.20770661053E-01 0.  0.
         14    1    1    2    0    0  0.66913416233E-02 -0.11753070574E-01 -0.20005369260E-01  0.24147950635E-01  0.00000000000E+00 0. -1.
     999901    1    3    3    0    0 -0.54592597195E-02  0.80286457662E-01 -0.90289733971E-01  0.88827245531E+00  0.88000000000E+00 0. -1.
        -11    1    4    4    0    0 -0.22256392668E-02 -0.34006975829E-01  0.73621061641E-01  0.81127983540E-01  0.51100000000E-03 0. -1.
         11    1    4    4    0    0  0.99355736297E-03 -0.34526411258E-01  0.36674041590E-01  0.50381610516E-01  0.51100000000E-03 0.  1.
</event>
<event>
 8    1  0.1064839E+005  0.1043930E+01  0.7957747E-01            NaN
         13   -1    0    0    0    0  0.00000000000E+00  0.00000000000E+00  0.74505805969E-08  0.10566000000E+00  0.10566000000E+00 0. -1.
     999900   -1    0    0    0    0 -0.00000000000E+00 -0.00000000000E+00 -0.74505805969E-08  0.93827000000E+00  0.93827000000E+00 0.  1.
     999902    2    1    2    0    0  0.25302473775E-03  0.61251711121E-02  0.21970183349E-01  0.10211205568E+01  0.10208657702E+01 0.  0.
     999903    2    3    3    0    0  0.48615345233E-02  0.15244310643E-01 -0.12603679888E+00  0.12870223345E+00  0.20566154201E-01 0.  0.
         14    1    1    2    0    0 -0.25302473775E-03 -0.61251711121E-02 -0.21970183349E-01  0.22809443199E-01  0.00000000000E+00 0.  1.
     999901    1    3    3    0    0 -0.46085097855E-02 -0.91191395308E-02  0.14800698223E+00  0.89241832335E+00  0.88000000000E+00 0. -1.
        -11    1    4    4    0    0  0.12836654158E-01  0.75529982404E-02 -0.67776237665E-01  0.69395295124E-01  0.51100000000E-03 0.  1.
         11    1    4    4    0    0 -0.79751196346E-02  0.76913124026E-02 -0.58260561212E-01  0.59306938324E-01  0.51100000000E-03 0. -1.
</event>
<event>
 8    1  0.1064839E+005  0.1043930E+01  0.7957747E-01            NaN
         13   -1    0    0    0    0  0.00000000000E+00  0.00000000000E+00  0.74505805969E-08  0.10566000000E+00  0.10566000000E+00 0.  1.
     999900   -1    0    0    0    0 -0.00000000000E+00 -0.00000000000E+00 -0.74505805969E-08  0.93827000000E+00  0.93827000000E+00 0. -1.
     999902    2    1    2    0    0 -0.15793481759E-01 -0.20554396455E-01  0.25532021898E-02  0.10178831936E+01  0.10175498807E+01 0.  0.
     999903    2    3    3    0    0  0.10935055589E+00 -0.13559250297E-01 -0.58700218760E-01  0.12689388742E+00  0.22692413712E-01 0.  0.
         14    1    1    2    0    0  0.15793481759E-01  0.20554396455E-01 -0.25532021898E-02  0.26046806352E-01  0.00000000000E+00 0. -1.
     999901    1    3    3    0    0 -0.12514403765E+00 -0.69951461578E-02  0.61253420950E-01  0.89098930623E+00  0.88000000000E+00 0.  1.
        -11    1    4    4    0    0  0.79799435733E-01 -0.21675613053E-02 -0.34192911274E-01  0.86845060699E-01  0.51100000000E-03 0. -1.
         11    1    4    4    0    0  0.29551120160E-01 -0.11391688992E-01 -0.24507307486E-01  0.40048826725E-01  0.51100000000E-03 0.  1.
</event>
<event>
 8    1  0.1064839E+005  0.1043930E+01  0.7957747E-01            NaN
         13   -1    0    0    0    0  0.00000000000E+00  0.00000000000E+00  0.74505805969E-08  0.10566000000E+00  0.10566000000E+00 0. -1.
     999900   -1    0    0    0    0 -0.00000000000E+00 -0.00000000000E+00 -0.74505805969E-08  0.93827000000E+00  0.93827000000E+00 0. -1.
     999902    2    1    2    0    0 -0.18433327788E-01 -0.10722278293E-01 -0.95701289432E-02  0.10205560360E+01  0.10202883320E+01 0.  0.
     999903    2    3    3    0    0 -0.82384597748E-01  0.95172924646E-01  0.30048273394E-01  0.13102066473E+00  0.20455031668E-01 0.  0.
         14    1    1    2    0    0  0.18433327788E-01  0.10722278293E-01  0.95701289432E-02  0.23373964001E-01  0.00000000000E+00 0.  1.
     999901    1    3    3    0    0  0.63951269960E-01 -0.10589520294E+00 -0.39618402338E-01  0.88953537127E+00  0.88000000000E+00 0.  1.
        -11    1    4    4    0    0 -0.64855430736E-01  0.82421988717E-01  0.18652083453E-01  0.10652592388E+00  0.51100000000E-03 0. -1.
         11    1    4    4    0    0 -0.17529167012E-01  0.12750935928E-01  0.11396189941E-01  0.24494740851E-01  0.51100000000E-03 0.  1.
</event>
<event>
 8    1  0.1064839E+005  0.1043930E+01  0.7957747E-01            NaN
         13   -1    0    0    0    0  0.00000000000E+00  0.00000000000E+00  0.74505805969E-08  0.10566000000E+00  0.10566000000E+00 0.  1.
     999900   -1    0    0    0    0 -0.00000000000E+00 -0.00000000000E+00 -0.74505805969E-08  0.93827000000E+00  0.93827000000E+00 0.  1.
     999902    2    1    2    0    0  0.33184585119E-02  0.21256805252E-01 -0.11186576146E-01  0.10196812181E+01  0.10193928503E+01 0.  0.
     999903    2    3    3    0    0  0.90253626158E-01 -0.66754953017E-01 -0.61911263470E-01  0.12958190520E+00  0.18881864961E-01 0.  0.
         14    1    1    2    0    0 -0.33184585119E-02 -0.21256805252E-01  0.11186576146E-01  0.24248781872E-01  0.00000000000E+00 0. -1.
     999901    1    3    3    0    0 -0.86935167646E-01  0.88011758269E-01  0.50724687325E-01  0.89009931293E+00  0.88000000000E+00 0.  1.
        -11    1    4    4    0    0  0.28159728530E-01 -0.20920594010E-01 -0.29634164436E-01  0.45924790554E-01  0.51100000000E-03 0.  1.
         11    1    4    4    0    0  0.62093897628E-01 -0.45834359007E-01 -0.32277099035E-01  0.83657114649E-01  0.51100000000E-03 0. -1.
</event>
<event>
 8    1  0.1064839E+005  0.1043930E+01  0.7957747E-01            NaN
         13   -1    0    0    0    0  0.00000000000E+00  0.00000000000E+00  0.74505805969E-08  0.10566000000E+00  0.10566000000E+00 0. -1.
     999900   -1    0    0    0    0 -0.00000000000E+00 -0.00000000000E+00 -0.74505805969E-08  0.93827000000E+00  0.93827000000E+00 0.  1.
     999902    2    1    2    0    0  0.19251139376E-01  0.17599396521E-01  0.13964723170E-01  0.10143435399E+01  0.10139119579E+01 0.  0.
     999903    2    3    3    0    0  0.89032853358E-01  0.85920053342E-01 -0.25593944913E-01  0.12805798327E+00  0.20849281040E-01 0.  0.
         14    1    1    2    0    0 -0.19251139376E-01 -0.17599396521E-01 -0.13964723170E-01  0.29586460051E-01  0.00000000000E+00 0. -1.
     999901    1    3    3    0    0 -0.69781713982E-01 -0.68320656822E-01  0.39558668083E-01  0.88628555668E+00  0.88000000000E+00 0. -1.
        -11    1    4    4    0    0  0.27105102973E-01  0.27594397512E-01 -0.17945553921E-01  0.42643187121E-01  0.51100000000E-03 0.  1.
         11    1    4    4    0    0  0.61927750384E-01  0.58325655830E-01 -0.76483909916E-02  0.85414796151E-01  0.51100000000E-03 0. -1.
</event>
<event>
 8    1  0.1064839E+005  0.1043930E+01  0.7957747E-01            NaN
         13   -1    0    0    0    0  0.00000000000E+00  0.00000000000E+00  0.74505805969E-08  0.10566000000E+00  0.10566000000E+00 0. -1.
     999900   -1    0    0    0    0 -0.00000000000E+00 -0.00000000000E+00 -0.74505805969E-08  0.93827000000E+00  0.93827000000E+00 0.  1.
     999902    2    1    2    0    0 -0.72635280723E-02  0.12176750376E-01  0.18810277769E-01  0.10203745624E+01  0.10201026365E+01 0.  0.
     999903    2    3    3    0    0  0.10806718731E+00 -0.62576079455E-03  0.71529776952E-01  0.13119267788E+00  0.20398558497E-01 0.  0.
         14    1    1    2    0    0  0.72635280723E-02 -0.12176750376E-01 -0.18810277769E-01  0.23555437579E-01  0.00000000000E+00 0.  1.
     999901    1    3    3    0    0 -0.11533071538E+00  0.12802511171E-01 -0.52719499183E-01  0.88918188454E+00  0.88000000000E+00 0.  1.
        -11    1    4    4    0    0  0.44593654277E-01 -0.52326320097E-02  0.19352273044E-01  0.48895255726E-01  0.51100000000E-03 0. -1.
         11    1    4    4    0    0  0.63473533033E-01  0.46068712151E-02  0.52177503908E-01  0.82297422153E-01  0.51100000000E-03 0.  1.
</event>
<event>
 8    1  0.1064839E+005  0.1043930E+01  0.7957747E-01            NaN
         13   -1    0    0    0    0  0.00000000000E+00  0.00000000000E+00  0.74505805969E-08  0.10566000000E+00  0.10566000000E+00 0. -1.
     999900   -1    0    0    0    0 -0.00000000000E+00 -0.00000000000E+00 -0.74505805969E-08  0.93827000000E+00  0.93827000000E+00 0.  1.
     999902    2    1    2    0    0  0.45106118651E-02  0.25702390509E-01  0.58882735644E-02  0.10171787334E+01  0.10168269005E+01 0.  0.
     999903    2    3    3    0    0  0.23270220078E-01 -0.27621874106E-01  0.12106203636E+00  0.12787541300E+00  0.19789733008E-01 0.  0.
         14    1    1    2    0    0 -0.45106118651E-02 -0.25702390509E-01 -0.58882735644E-02  0.26751266565E-01  0.00000000000E+00 0.  1.
     999901    1    3    3    0    0 -0.18759608213E-01  0.53324264614E-01 -0.11517376279E+00  0.88930332043E+00  0.88000000000E+00 0.  1.
        -11    1    4    4    0    0  0.88322144499E-02 -0.24361748576E-01  0.67549787744E-01  0.72351487552E-01  0.51100000000E-03 0. -1.
         11    1    4    4    0    0  0.14438005629E-01 -0.32601255299E-02  0.53512248611E-01  0.55523925450E-01  0.51100000000E-03 0.  1.
</event>
<event>
 8    1  0.1064839E+005  0.1043930E+01  0.7957747E-01            NaN
         13   -1    0    0    0    0  0.00000000000E+00  0.00000000000E+00  0.74505805969E-08  0.10566000000E+00  0.10566000000E+00 0.  1.
     999900   -1    0    0    0    0 -0.00000000000E+00 -0.00000000000E+00 -0.74505805969E-08  0.93827000000E+00  0.93827000000E+00 0. -1.
     999902    2    1    2    0    0  0.20370711262E-01  0.11707854081E-01 -0.57050350491E-02  0.10197517629E+01  0.10194650905E+01 0.  0.
     999903    2    3    3    0    0 -0.18218566055E-01  0.64700574495E-01  0.10947187486E+00  0.12982868683E+00  0.18796703172E-01 0.  0.
         14    1    1    2    0    0 -0.20370711262E-01 -0.11707854081E-01  0.57050350491E-02  0.24178237103E-01  0.00000000000E+00 0.  1.
     999901    1    3    3    0    0  0.38589277317E-01 -0.52992720413E-01 -0.11517690991E+00  0.88992307607E+00  0.88000000000E+00 0. -1.
        -11    1    4    4    0    0  0.17110760855E-02  0.37394469516E-03  0.68017645208E-02  0.70422111302E-02  0.51100000000E-03 0.  1.
         11    1    4    4    0    0 -0.19929642140E-01  0.64326629800E-01  0.10267011034E+00  0.12278647570E+00  0.51100000000E-03 0. -1.
</event>
<event>
 8    1  0.1064839E+005  0.1043930E+01  0.7957747E-01            NaN
         13   -1    0    0    0    0  0.00000000000E+00  0.00000000000E+00  0.74505805969E-08  0.10566000000E+00  0.10566000000E+00 0.  1.
     999900   -1    0    0    0    0 -0.00000000000E+00 -0.00000000000E+00 -0.74505805969E-08  0.93827000000E+00  0.93827000000E+00 0. -1.
     999902    2    1    2    0    0  0.35852065219E-02  0.40878988918E-02 -0.23639156459E-01  0.10196735711E+01  0.10193850192E+01 0.  0.
     999903    2    3    3    0    0  0.26605561629E-02  0.48472109074E-01  0.11627940341E+00  0.12751438327E+00  0.19554906485E-01 0.  0.
         14    1    1    2    0    0 -0.35852065219E-02 -0.40878988918E-02  0.23639156459E-01  0.24256428865E-01  0.00000000000E+00 0.  1.
     999901    1    3    3    0    0  0.92465035904E-03 -0.44384210182E-01 -0.13991855987E+00  0.89215918786E+00  0.88000000000E+00 0. -1.
        -11    1    4    4    0    0  0.29605433280E-03  0.34248192044E-01  0.56964157031E-01  0.66469561558E-01  0.51100000000E-03 0.  1.
         11    1    4    4    0    0  0.23645018301E-02  0.14223917030E-01  0.59315246376E-01  0.61044821715E-01  0.51100000000E-03 0. -1.
</event>
<event>
 8    1  0.1064839E+005  0.1043930E+01  0.7957747E-01            NaN
         13   -1    0    0    0    0  0.00000000000E+00  0.00000000000E+00  0.74505805969E-08  0.10566000000E+00  0.10566000000E+00 0. -1.
     999900   -1    0    0    0    0 -0.00000000000E+00 -0.00000000000E+00 -0.74505805969E-08  0.93827000000E+00  0.93827000000E+00 0.  1.
     999902    2    1    2    0    0 -0.20567080839E-01 -0.54787212468E-02  0.43642192813E-02  0.10222028831E+01  0.10219719500E+01 0.  0.
     999903    2    3    3    0    0 -0.40784884520E-01 -0.12017491838E+00  0.37392500143E-01  0.13391529193E+00  0.20728929838E-01 0.  0.
         14    1    1    2    0    0  0.20567080839E-01  0.54787212468E-02 -0.43642192813E-02  0.21727116943E-01  0.00000000000E+00 0.  1.
     999901    1    3    3    0    0  0.20217803682E-01  0.11469619713E+00 -0.33028280862E-01  0.88828759113E+00  0.88000000000E+00 0. -1.
        -11    1    4    4    0    0 -0.15756272111E-01 -0.21748142134E-01  0.10631623583E-01  0.28888307983E-01  0.51100000000E-03 0. -1.
         11    1    4    4    0    0 -0.25028612409E-01 -0.98426776243E-01  0.26760876560E-01  0.10502698394E+00  0.51100000000E-03 0.  1.
</event>
<event>
 8    1  0.1064839E+005  0.1043930E+01  0.7957747E-01            NaN
         13   -1    0    0    0    0  0.00000000000E+00  0.00000000000E+00  0.74505805969E-08  0.10566000000E+00  0.10566000000E+00 0. -1.
     999900   -1    0    0    0    0 -0.00000000000E+00 -0.00000000000E+00 -0.74505805969E-08  0.93827000000E+00  0.93827000000E+00 0.  1.
     999902    2    1    2    0    0 -0.15745075847E-02 -0.10826411053E-01 -0.21339175516E-01  0.10199497860E+01  0.10196678456E+01 0.  0.
     999903    2    3    3    0    0 -0.17657086701E-01  0.12492747487E+00  0.16934992495E-01  0.12857294157E+00  0.18043299203E-01 0.  0.
         14    1    1    2    0    0  0.15745075847E-02  0.10826411053E-01  0.21339175516E-01  0.23980213972E-01  0.00000000000E+00 0. -1.
     999901    1    3    3    0    0  0.16082579117E-01 -0.13575388592E+00 -0.38274168011E-01  0.89137684446E+00  0.88000000000E+00 0. -1.
        -11    1    4    4    0    0 -0.15681587214E-01  0.54299929116E-01  0.33397424938E-02  0.56619868248E-01  0.51100000000E-03 0. -1.
         11    1    4    4    0    0 -0.19754994872E-02  0.70627545753E-01  0.13595250002E-01  0.71953073325E-01  0.51100000000E-03 0.  1.
</event>
<event>
 8    1  0.1064839E+005  0.1043930E+01  0.7957747E-01            NaN
         13   -1    0    0    0    0  0.00000000000E+00  0.00000000000E+00  0.74505805969E-08  0.10566000000E+00  0.10566000000E+00 0.  1.
     999900   -1    0    0    0    0 -0.00000000000E+00 -0.00000000000E+00 -0.74505805969E-08  0.93827000000E+00  0.93827000000E+00 0. -1.
     999902    2    1    2    0    0 -0.21340320952E-01  0.17736662163E-02  0.75707084774E-02  0.10212172103E+01  0.10209646026E+01 0.  0.
     999903    2    3    3    0    0  0.25757761141E-01  0.47175066731E-01  0.11813866135E+00  0.13188893078E+00  0.23430697319E-01 0.  0.
         14    1    1    2    0    0  0.21340320952E-01 -0.17736662163E-02 -0.75707084774E-02  0.22712789724E-01  0.00000000000E+00 0. -1.
     999901    1    3    3    0    0 -0.47098082093E-01 -0.45401400514E-01 -0.11056795287E+00  0.88932827949E+00  0.88000000000E+00 0. -1.
        -11    1    4    4    0    0  0.13229214454E-01  0.42103926393E-01  0.79196855870E-01  0.90665075048E-01  0.51100000000E-03 0.  1.
         11    1    4    4    0    0  0.12528546687E-01  0.50711403377E-02  0.38941805481E-01  0.41223855734E-01  0.51100000000E-03 0. -1.
</event>
<event>
 8    1  0.1064839E+005  0.1043930E+01  0.7957747E-01            NaN
         13   -1    0    0    0    0  0.00000000000E+00  0.00000000000E+00  0.74505805969E-08  0.10566000000E+00  0.10566000000E+00 0.  1.
     999900   -1    0    0    0    0 -0.00000000000E+00 -0.00000000000E+00 -0.74505805969E-08  0.93827000000E+00  0.93827000000E+00 0.  1.
     999902    2    1    2    0    0  0.65430519121E-02  0.17154219364E-01  0.15099888585E-01  0.10201584749E+01  0.10198814777E+01 0.  0.
     999903    2    3    3    0    0  0.10706332716E+00 -0.69773430669E-01 -0.11823377316E-01  0.12977338724E+00  0.19247133138E-01 0.  0.
         14    1    1    2    0    0 -0.65430519121E-02 -0.17154219364E-01 -0.15099888585E-01  0.23771525101E-01  0.00000000000E+00 0. -1.
     999901    1    3    3    0    0 -0.10052027525E+00  0.86927650033E-01  0.26923265901E-01  0.89038508766E+00  0.88000000000E+00 0. -1.
        -11    1    4    4    0    0  0.71314678301E-01 -0.49216773272E-01  0.76533821511E-03  0.86654030351E-01  0.51100000000E-03 0.  1.
         11    1    4    4    0    0  0.35748648864E-01 -0.20556657396E-01 -0.12588715531E-01  0.43119356890E-01  0.51100000000E-03 0. -1.
</event>
<event>
 8    1  0.1064839E+005  0.1043930E+01  0.7957747E-01            NaN
         13   -1    0    0    0    0  0.00000000000E+00  0.00000000000E+00  0.74505805969E-08  0.10566000000E+00  0.10566000000E+00 0.  1.
     999900   -1    0    0    0    0 -0.00000000000E+00 -0.00000000000E+00 -0.74505805969E-08  0.93827000000E+00  0.93827000000E+00 0.  1.
     999902    2    1    2    0    0 -0.93944578327E-02 -0.16369067320E-01  0.14184969409E-01  0.10203203503E+01  0.10200471566E+01 0.  0.
     999903    2    3    3    0    0 -0.12489234730E+00 -0.26540839137E-01 -0.26398859311E-01  0.13178769777E+00  0.19198514400E-01 0.  0.
         14    1    1    2    0    0  0.93944578327E-02  0.16369067320E-01 -0.14184969409E-01  0.23609649723E-01  0.00000000000E+00 0.  1.
     999901    1    3    3    0    0  0.11549788947E+00  0.10171771817E-01  0.40583828720E-01  0.88853265250E+00  0.88000000000E+00 0. -1.
        -11    1    4    4    0    0 -0.10454495686E+00 -0.14749059890E-01 -0.20884620289E-01  0.10762718642E+00  0.51100000000E-03 0. -1.
         11    1    4    4    0    0 -0.20347390441E-01 -0.11791779247E-01 -0.55142390225E-02  0.24160511348E-01  0.51100000000E-03 0.  1.
</event>
<event>
 8    1  0.1064839E+005  0.1043930E+01  0.7957747E-01            NaN
         13   -1    0    0    0    0  0.00000000000E+00  0.00000000000E+00  0.74505805969E-08  0.10566000000E+00  0.10566000000E+00 0. -1.
     999900   -1    0    0    0    0 -0.00000000000E+00 -0.00000000000E+00 -0.74505805969E-08  0.93827000000E+00  0.93827000000E+00 0. -1.
     999902    2    1    2    0    0 -0.11763813649E-01  0.21322562761E-01  0.14513084354E-02  0.10195344002E+01  0.10192424873E+01 0.  0.
     999903    2    3    3    0    0  0.10398009722E+00  0.19263244331E-01 -0.71039983320E-01  0.12899755026E+00  0.20267104913E-01 0.  0.
         14    1    1    2    0    0  0.11763813649E-01 -0.21322562761E-01 -0.14513084354E-02  0.24395599817E-01  0.00000000000E+00 0.  1.
     999901    1    3    3    0    0 -0.11574391087E+00  0.20593184302E-02  0.72491291755E-01  0.89053684993E+00  0.88000000000E+00 0.  1.
        -11    1    4    4    0    0  0.17315054449E-01 -0.30950796176E-02 -0.69791415899E-02  0.18930403238E-01  0.51100000000E-03 0.  1.
         11    1    4    4    0    0  0.86665042773E-01  0.22358323949E-01 -0.64060841730E-01  0.11006714702E+00  0.51100000000E-03 0. -1.
</event>
<event>
 8    1  0.1064839E+005  0.1043930E+01  0.7957747E-01            NaN
         13   -1    0    0    0    0  0.00000000000E+00  0.00000000000E+00  0.74505805969E-08  0.10566000000E+00  0.10566000000E+00 0.  1.
     999900   -1    0    0    0    0 -0.00000000000E+00 -0.00000000000E+00 -0.74505805969E-08  0.93827000000E+00  0.93827000000E+00 0.  1.
     999902    2    1    2    0    0 -0.88284000595E-02  0.22080296475E-01  0.12235099538E-02  0.10201187187E+01  0.10198407832E+01 0.  0.
     999903    2    3    3    0    0  0.16334325516E-01  0.27555816373E-01  0.12543002885E+00  0.13102344631E+00  0.20206883468E-01 0.  0.
         14    1    1    2    0    0  0.88284000595E-02 -0.22080296475E-01 -0.12235099538E-02  0.23811281289E-01  0.00000000000E+00 0.  1.
     999901    1    3    3    0    0 -0.25162725576E-01 -0.54755198981E-02 -0.12420651889E+00  0.88909527240E+00  0.88000000000E+00 0.  1.
        -11    1    4    4    0    0  0.52861729711E-02 -0.24078965215E-02  0.23101803491E-01  0.23826372696E-01  0.51100000000E-03 0. -1.
         11    1    4    4    0    0  0.11048152545E-01  0.29963712895E-01  0.10232822536E+00  0.10719707361E+00  0.51100000000E-03 0.  1.
</event>
<event>
 8    1  0.1064839E+005  0.1043930E+01  0.7957747E-01            NaN
         13   -1    0    0    0    0  0.00000000000E+00  0.00000000000E+00  0.74505805969E-08  0.10566000000E+00  0.10566000000E+00 0.  1.
     999900   -1    0    0    0    0 -0.00000000000E+00 -0.00000000000E+00 -0.74505805969E-08  0.93827000000E+00  0.93827000000E+00 0. -1.
     999902    2    1    2    0    0  0.10381020930E-02 -0.23981901199E-01  0.30454066482E-02  0.10197332287E+01  0.10194461113E+01 0.  0.
     999903    2    3    3    0    0  0.68704861616E-01 -0.11088594600E+00  0.17560178052E-01  0.13274857157E+00  0.17256082096E-01 0.  0.
         14    1    1    2    0    0 -0.10381020930E-02  0.23981901199E-01 -0.30454066482E-02  0.24196771329E-01  0.00000000000E+00 0. -1.
     999901    1    3    3    0    0 -0.67666759524E-01  0.86904044805E-01 -0.14514771404E-01  0.88698465710E+00  0.88000000000E+00 0. -1.
        -11    1    4    4    0    0  0.66791532599E-01 -0.10217822514E+00  0.19472332689E-01  0.12361606441E+00  0.51100000000E-03 0.  1.
         11    1    4    4    0    0  0.19133290177E-02 -0.87077208685E-02 -0.19121546368E-02  0.91325071589E-02  0.51100000000E-03 0. -1.
</event>
<event>
 8    1  0.1064839E+005  0.1043930E+01  0.7957747E-01            NaN
         13   -1    0    0    0    0  0.00000000000E+00  0.00000000000E+00  0.74505805969E-08  0.10566000000E+00  0.10566000000E+00 0.  1.
     999900   -1    0    0    0    0 -0.00000000000E+00 -0.00000000000E+00 -0.74505805969E-08  0.93827000000E+00  0.93827000000E+00 0.  1.
     999902    2    1    2    0    0  0.15173986663E-01  0.14985502327E-02  0.98255172099E-02  0.10257906419E+01  0.10256302475E+01 0.  0.
     999903    2    3    3    0    0 -0.42350160956E-01  0.11020893080E+00  0.63752531762E-01  0.13560240489E+00  0.19598018922E-01 0.  0.
         14    1    1    2    0    0 -0.15173986663E-01 -0.14985502327E-02 -0.98255172099E-02  0.18139358106E-01  0.00000000000E+00 0.  1.
     999901    1    3    3    0    0  0.57524147619E-01 -0.10871038056E+00 -0.53927014552E-01  0.89018823700E+00  0.88000000000E+00 0.  1.
        -11    1    4    4    0    0 -0.30635011220E-01  0.57271751562E-01  0.28504057722E-01  0.70931656311E-01  0.51100000000E-03 0.  1.
         11    1    4    4    0    0 -0.11715149736E-01  0.52937179235E-01  0.35248474040E-01  0.64670748579E-01  0.51100000000E-03 0. -1.
</event>
<event>
 8    1  0.1352002E+005  0.1043930E+01  0.7957747E-01            NaN
         13   -1    0    0    0    0  0.00000000000E+00  0.00000000000E+00  0.74505805969E-08  0.10566000000E+00  0.10566000000E+00 0. -1.
     999900   -1    0    0    0    0 -0.00000000000E+00 -0.00000000000E+00 -0.74505805969E-08  0.93827000000E+00  0.93827000000E+00 0. -1.
     999902    2    1    2    0    0 -0.23278349490E-01 -0.89280501519E-02 -0.96772946425E-02  0.10171859976E+01  0.10168343582E+01 0.  0.
     999903    2    3    3    0    0 -0.62459467324E-01  0.10999716055E+00  0.63762580870E-02  0.12817751488E+00  0.19704270267E-01 0.  0.
         14    1    1    2    0    0  0.23278349490E-01  0.89280501519E-02  0.96772946425E-02  0.26744002432E-01  0.00000000000E+00 0. -1.
     999901    1    3    3    0    0  0.39181117834E-01 -0.11892521070E+00 -0.16053552730E-01  0.88900848269E+00  0.88000000000E+00 0.  1.
        -11    1    4    4    0    0 -0.30351523390E-01  0.57930712781E-01  0.12885725440E-01  0.66659474169E-01  0.51100000000E-03 0.  1.
         11    1    4    4    0    0 -0.32107943934E-01  0.52066447767E-01 -0.65094673529E-02  0.61518040711E-01  0.51100000000E-03 0. -1.
</event>
<event>
 8    1  0.1064839E+005  0.1043930E+01  0.7957747E-01            NaN
         13   -1    0    0    0    0  0.00000000000E+00  0.00000000000E+00  0.74505805969E-08  0.10566000000E+00  0.10566000000E+00 0. -1.
     999900   -1    0    0    0    0 -0.00000000000E+00 -0.00000000000E+00 -0.74505805969E-08  0.93827000000E+00  0.93827000000E+00 0. -1.
     999902    2    1    2    0    0  0.28166239046E-02 -0.18853285902E-01 -0.14203226067E-01  0.10201579284E+01  0.10198809182E+01 0.  0.
     999903    2    3    3    0    0  0.85616104599E-01  0.39873970778E-01  0.84828366616E-01  0.12880395769E+00  0.21784325107E-01 0.  0.
         14    1    1    2    0    0 -0.28166239046E-02  0.18853285902E-01  0.14203226067E-01  0.23772071644E-01  0.00000000000E+00 0. -1.
     999901    1    3    3    0    0 -0.82799480694E-01 -0.58727256681E-01 -0.99031592683E-01  0.89135397067E+00  0.88000000000E+00 0. -1.
        -11    1    4    4    0    0  0.20837746187E-01  0.19588658846E-01  0.19703015034E-01  0.34733228239E-01  0.51100000000E-03 0. -1.
         11    1    4    4    0    0  0.64778358412E-01  0.20285311933E-01  0.65125351583E-01  0.94070729446E-01  0.51100000000E-03 0.  1.
</event>
<event>
 8    1  0.1064839E+005  0.1043930E+01  0.7957747E-01            NaN
         13   -1    0    0    0    0  0.00000000000E+00  0.00000000000E+00  0.74505805969E-08  0.10566000000E+00  0.10566000000E+00 0. -1.
     999900   -1    0    0    0    0 -0.00000000000E+00 -0.00000000000E+00 -0.74505805969E-08  0.93827000000E+00  0.93827000000E+00 0.  1.
     999902    2    1    2    0    0  0.28336713087E-03  0.13500396051E-01 -0.19407089610E-01  0.10202873242E+01  0.10200133567E+01 0.  0.
     999903    2    3    3    0    0  0.48519529471E-01  0.11975642691E+00  0.16923910916E-01  0.13184092008E+00  0.19996572706E-01 0.  0.
         14    1    1    2    0    0 -0.28336713087E-03 -0.13500396051E-01  0.19407089610E-01  0.23642675770E-01  0.00000000000E+00 0.  1.
     999901    1    3    3    0    0 -0.48236162340E-01 -0.10625603086E+00 -0.36331000526E-01  0.88844640415E+00  0.88000000000E+00 0. -1.
        -11    1    4    4    0    0  0.33790656542E-01  0.66764794779E-01  0.17438771750E-01  0.76835656908E-01  0.51100000000E-03 0.  1.
         11    1    4    4    0    0  0.14728872929E-01  0.52991632131E-01 -0.51486083373E-03  0.55005263169E-01  0.51100000000E-03 0. -1.
</event>
<event>
 8    1  0.1064839E+005  0.1043930E+01  0.7957747E-01            NaN
         13   -1    0    0    0    0  0.00000000000E+00  0.00000000000E+00  0.74505805969E-08  0.10566000000E+00  0.10566000000E+00 0.  1.
     999900   -1    0    0    0    0 -0.00000000000E+00 -0.00000000000E+00 -0.74505805969E-08  0.93827000000E+00  0.93827000000E+00 0.  1.
     999902    2    1    2    0    0 -0.17556653407E-01  0.14937513427E-01  0.48665977673E-02  0.10203705187E+01  0.10200984983E+01 0.  0.
     999903    2    3    3    0    0  0.88383260646E-01 -0.89241903614E-01  0.60519099400E-02  0.12791434536E+00  0.23446449901E-01 0.  0.
         14    1    1    2    0    0  0.17556653407E-01 -0.14937513427E-01 -0.48665977673E-02  0.23559481320E-01  0.00000000000E+00 0.  1.
     999901    1    3    3    0    0 -0.10593991405E+00  0.10417941704E+00 -0.11853121727E-02  0.89245617332E+00  0.88000000000E+00 0.  1.
        -11    1    4    4    0    0  0.66356614802E-01 -0.77261233167E-01  0.10702411444E-01  0.10240752516E+00  0.51100000000E-03 0.  1.
         11    1    4    4    0    0  0.22026645844E-01 -0.11980670447E-01 -0.46505015036E-02  0.25506820201E-01  0.51100000000E-03 0. -1.
</event>
<event>
 8    1  0.1064839E+005  0.1043930E+01  0.7957747E-01            NaN
         13   -1    0    0    0    0  0.00000000000E+00  0.00000000000E+00  0.74505805969E-08  0.10566000000E+00  0.10566000000E+00 0. -1.
     999900   -1    0    0    0    0 -0.00000000000E+00 -0.00000000000E+00 -0.74505805969E-08  0.93827000000E+00  0.93827000000E+00 0.  1.
     999902    2    1    2    0    0 -0.14466963101E-01 -0.60535451104E-02 -0.17536862748E-01  0.10204038447E+01  0.10201326023E+01 0.  0.
     999903    2    3    3    0    0 -0.43416299876E-01  0.55029435306E-01 -0.11100261215E+00  0.13287635726E+00  0.20526387100E-01 0.  0.
         14    1    1    2    0    0  0.14466963101E-01  0.60535451104E-02  0.17536862748E-01  0.23526155334E-01  0.00000000000E+00 0. -1.
     999901    1    3    3    0    0  0.28949336775E-01 -0.61082980416E-01  0.93465749406E-01  0.88752748741E+00  0.88000000000E+00 0. -1.
        -11    1    4    4    0    0 -0.18367478983E-01  0.33135982439E-01 -0.43987145929E-01  0.58055901890E-01  0.51100000000E-03 0.  1.
         11    1    4    4    0    0 -0.25048820893E-01  0.21893452867E-01 -0.67015466226E-01  0.74820455365E-01  0.51100000000E-03 0. -1.
</event>
<event>
 8    1  0.1064839E+005  0.1043930E+01  0.7957747E-01            NaN
         13   -1    0    0    0    0  0.00000000000E+00  0.00000000000E+00  0.74505805969E-08  0.10566000000E+00  0.10566000000E+00 0. -1.
     999900   -1    0    0    0    0 -0.00000000000E+00 -0.00000000000E+00 -0.74505805969E-08  0.93827000000E+00  0.93827000000E+00 0.  1.
     999902    2    1    2    0    0 -0.89395108536E-02 -0.21583554285E-01  0.49263869851E-02  0.10200546161E+01  0.10197751643E+01 0.  0.
     999903    2    3    3    0    0  0.91338409851E-01  0.54007672913E-01 -0.68985129527E-01  0.12807221304E+00  0.19596168245E-01 0.  0.
         14    1    1    2    0    0  0.89395108536E-02  0.21583554285E-01 -0.49263869851E-02  0.23875383947E-01  0.00000000000E+00 0. -1.
     999901    1    3    3    0    0 -0.10027792070E+00 -0.75591227198E-01  0.73911516512E-01  0.89198240301E+00  0.88000000000E+00 0. -1.
        -11    1    4    4    0    0  0.23190639075E-01  0.11440907626E-01 -0.27091766014E-01  0.37455640627E-01  0.51100000000E-03 0. -1.
         11    1    4    4    0    0  0.68147770776E-01  0.42566765287E-01 -0.41893363513E-01  0.90616572414E-01  0.51100000000E-03 0.  1.
</event>
<event>
 8    1  0.1064839E+005  0.1043930E+01  0.7957747E-01            NaN
         13   -1    0    0    0    0  0.00000000000E+00  0.00000000000E+00  0.74505805969E-08  0.10566000000E+00  0.10566000000E+00 0. -1.
     999900   -1    0    0    0    0 -0.00000000000E+00 -0.00000000000E+00 -0.74505805969E-08  0.93827000000E+00  0.93827000000E+00 0. -1.
     999902    2    1    2    0    0 -0.13707634899E-01 -0.33412087973E-02  0.18826106404E-01  0.10204037335E+01  0.10201324886E+01 0.  0.
     999903    2    3    3    0    0 -0.22565015263E-01 -0.55971563534E-01 -0.11245869655E+00  0.12906535397E+00  0.19207064535E-01 0.  0.
         14    1    1    2    0    0  0.13707634899E-01  0.33412087973E-02 -0.18826106404E-01  0.23526266450E-01  0.00000000000E+00 0. -1.
     999901    1    3    3    0    0  0.88573803638E-02  0.52630354737E-01  0.13128480295E+00  0.89133837958E+00  0.88000000000E+00 0.  1.
        -11    1    4    4    0    0 -0.12899394721E-02 -0.10332080513E-01 -0.36271525921E-01  0.37739906534E-01  0.51100000000E-03 0. -1.
         11    1    4    4    0    0 -0.21275075790E-01 -0.45639483021E-01 -0.76187170626E-01  0.91325447436E-01  0.51100000000E-03 0.  1.
</event>
<event>
 8    1  0.1064839E+005  0.1043930E+01  0.7957747E-01            NaN
         13   -1    0    0    0    0  0.00000000000E+00  0.00000000000E+00  0.74505805969E-08  0.10566000000E+00  0.10566000000E+00 0.  1.
     999900   -1    0    0    0    0 -0.00000000000E+00 -0.00000000000E+00 -0.74505805969E-08  0.93827000000E+00  0.93827000000E+00 0. -1.
     999902    2    1    2    0    0  0.15978395168E-01 -0.18723727346E-01 -0.13132658681E-02  0.10192802182E+01  0.10189821153E+01 0.  0.
     999903    2    3    3    0    0 -0.96844635362E-02 -0.33699025905E-01  0.12361166548E+00  0.12996077028E+00  0.19507557202E-01 0.  0.
         14    1    1    2    0    0 -0.15978395168E-01  0.18723727346E-01  0.13132658681E-02  0.24649781847E-01  0.00000000000E+00 0.  1.
     999901    1    3    3    0    0  0.25662858704E-01  0.14975298559E-01 -0.12492493135E+00  0.88931944787E+00  0.88000000000E+00 0. -1.
        -11    1    4    4    0    0 -0.70130091537E-02 -0.13947884520E-01  0.25979888296E-01  0.30314047846E-01  0.51100000000E-03 0. -1.
         11    1    4    4    0    0 -0.26714543825E-02 -0.19751141385E-01  0.97631777189E-01  0.99646722438E-01  0.51100000000E-03 0.  1.
</event>
<event>
 8    1  0.1064839E+005  0.1043930E+01  0.7957747E-01            NaN
         13   -1    0    0    0    0  0.00000000000E+00  0.00000000000E+00  0.74505805969E-08  0.10566000000E+00  0.10566000000E+00 0.  1.
     999900   -1    0    0    0    0 -0.00000000000E+00 -0.00000000000E+00 -0.74505805969E-08  0.93827000000E+00  0.93827000000E+00 0.  1.
     999902    2    1    2    0    0 -0.20256092815E-01 -0.52404582653E-02 -0.10158730742E-01  0.10206712058E+01  0.10204061636E+01 0.  0.
     999903    2    3    3    0    0 -0.10341823132E+00 -0.60048581421E-01  0.54019914016E-01  0.13273045882E+00  0.19951463316E-01 0.  0.
         14    1    1    2    0    0  0.20256092815E-01  0.52404582653E-02  0.10158730742E-01  0.23258794234E-01  0.00000000000E+00 0.  1.
     999901    1    3    3    0    0  0.83162138504E-01  0.54808123156E-01 -0.64178644758E-01  0.88794074695E+00  0.88000000000E+00 0.  1.
        -11    1    4    4    0    0 -0.11980532601E-01 -0.83320397121E-02 -0.44144771259E-05  0.14601958350E-01  0.51100000000E-03 0. -1.
         11    1    4    4    0    0 -0.91437698718E-01 -0.51716541709E-01  0.54024328493E-01  0.11812850047E+00  0.51100000000E-03 0.  1.
</event>
<event>
 8    1  0.1064839E+005  0.1043930E+01  0.7957747E-01            NaN
         13   -1    0    0    0    0  0.00000000000E+00  0.00000000000E+00  0.74505805969E-08  0.10566000000E+00  0.10566000000E+00 0.  1.
     999900   -1    0    0    0    0 -0.00000000000E+00 -0.00000000000E+00 -0.74505805969E-08  0.93827000000E+00  0.93827000000E+00 0.  1.
     999902    2    1    2    0    0 -0.16612910410E-01 -0.94309082373E-02  0.77792582911E-02  0.10233036168E+01  0.10230957162E+01 0.  0.
     999903    2    3    3    0    0 -0.19718505356E-01  0.83088967830E-01 -0.98716531954E-01  0.13206238938E+00  0.20072991313E-01 0.  0.
         14    1    1    2    0    0  0.16612910410E-01  0.94309082373E-02 -0.77792582911E-02  0.20626383154E-01  0.00000000000E+00 0. -1.
     999901    1    3    3    0    0  0.31055949465E-02 -0.92519876068E-01  0.10649579024E+00  0.89124122746E+00  0.88000000000E+00 0. -1.
        -11    1    4    4    0    0 -0.79255927888E-02  0.64317455301E-01 -0.80640660010E-01  0.10345398613E+00  0.51100000000E-03 0. -1.
         11    1    4    4    0    0 -0.11792912568E-01  0.18771512529E-01 -0.18075871944E-01  0.28608403258E-01  0.51100000000E-03 0.  1.
</event>
<event>
 8    1  0.1064839E+005  0.1043930E+01  0.7957747E-01            NaN
         13   -1    0    0    0    0  0.00000000000E+00  0.00000000000E+00  0.74505805969E-08  0.10566000000E+00  0.10566000000E+00 0.  1.
     999900   -1    0    0    0    0 -0.00000000000E+00 -0.00000000000E+00 -0.74505805969E-08  0.93827000000E+00  0.93827000000E+00 0.  1.
     999902    2    1    2    0    0 -0.60799826553E-03  0.44061299734E-02 -0.20828372738E-01  0.10226320012E+01  0.10224101941E+01 0.  0.
     999903    2    3    3    0    0  0.82322922994E-01 -0.36509082697E-01  0.92310582994E-01  0.13058266642E+00  0.20508833867E-01 0.  0.
         14    1    1    2    0    0  0.60799826553E-03 -0.44061299734E-02  0.20828372738E-01  0.21297998829E-01  0.00000000000E+00 0.  1.
     999901    1    3    3    0    0 -0.82930921260E-01  0.40915212670E-01 -0.11313895573E+00  0.89204933475E+00  0.88000000000E+00 0.  1.
        -11    1    4    4    0    0  0.36118400301E-01 -0.24944114043E-01  0.35574874544E-01  0.56502924575E-01  0.51100000000E-03 0. -1.
         11    1    4    4    0    0  0.46204522693E-01 -0.11564968653E-01  0.56735708450E-01  0.74079741843E-01  0.51100000000E-03 0.  1.
</event>
<event>
 8    1  0.1064839E+005  0.1043930E+01  0.7957747E-01            NaN
         13   -1    0    0    0    0  0.00000000000E+00  0.00000000000E+00  0.74505805969E-08  0.10566000000E+00  0.10566000000E+00 0. -1.
     999900   -1    0    0    0    0 -0.00000000000E+00 -0.00000000000E+00 -0.74505805969E-08  0.93827000000E+00  0.93827000000E+00 0.  1.
     999902    2    1    2    0    0  0.15608624792E-01  0.13143157818E-01 -0.11089954112E-01  0.10207058994E+01  0.10204416565E+01 0.  0.
     999903    2    3    3    0    0  0.12433446438E-01 -0.18852069836E-01  0.12652372769E+00  0.12943080061E+00  0.15299913386E-01 0.  0.
         14    1    1    2    0    0 -0.15608624792E-01 -0.13143157818E-01  0.11089954112E-01  0.23224100575E-01  0.00000000000E+00 0. -1.
     999901    1    3    3    0    0  0.31751783548E-02  0.31995227654E-01 -0.13761368180E+00  0.89127509882E+00  0.88000000000E+00 0.  1.
        -11    1    4    4    0    0  0.43566951067E-02 -0.18618298640E-01  0.92499996971E-01  0.94457039956E-01  0.51100000000E-03 0. -1.
         11    1    4    4    0    0  0.80767513309E-02 -0.23377119611E-03  0.34023730721E-01  0.34973760653E-01  0.51100000000E-03 0.  1.
</event>
<event>
 8    1  0.1064839E+005  0.1043930E+01  0.7957747E-01            NaN
         13   -1    0    0    0    0  0.00000000000E+00  0.00000000000E+00  0.74505805969E-08  0.10566000000E+00  0.10566000000E+00 0.  1.
     999900   -1    0    0    0    0 -0.00000000000E+00 -0.00000000000E+00 -0.74505805969E-08  0.93827000000E+00  0.93827000000E+00 0.  1.
     999902    2    1    2    0    0  0.10643086793E-01  0.15693176018E-01 -0.13499193672E-01  0.10206538470E+01  0.10203884045E+01 0.  0.
     999903    2    3    3    0    0  0.66314314681E-01 -0.11101695699E-01 -0.11291409949E+00  0.13290355874E+00  0.19822363195E-01 0.  0.
         14    1    1    2    0    0 -0.10643086793E-01 -0.15693176018E-01  0.13499193672E-01  0.23276153029E-01  0.00000000000E+00 0.  1.
     999901    1    3    3    0    0 -0.55671227888E-01  0.26794871717E-01  0.99414905815E-01  0.88775028824E+00  0.88000000000E+00 0. -1.
        -11    1    4    4    0    0  0.16938803114E-01  0.17134322323E-02 -0.15931869990E-01  0.23322617849E-01  0.51100000000E-03 0. -1.
         11    1    4    4    0    0  0.49375511567E-01 -0.12815127931E-01 -0.96982229496E-01  0.10958094089E+00  0.51100000000E-03 0.  1.
</event>
<event>
 8    1  0.1064839E+005  0.1043930E+01  0.7957747E-01            NaN
         13   -1    0    0    0    0  0.00000000000E+00  0.00000000000E+00  0.74505805969E-08  0.10566000000E+00  0.10566000000E+00 0.  1.
     999900   -1    0    0    0    0 -0.00000000000E+00 -0.00000000000E+00 -0.74505805969E-08  0.93827000000E+00  0.93827000000E+00 0. -1.
     999902    2    1    2    0    0  0.52407104586E-02  0.13477174986E-01  0.19161619180E-01  0.10199244394E+01  0.10196418955E+01 0.  0.
     999903    2    3    3    0    0 -0.12366561028E+00  0.34862550396E-01  0.78093625873E-02  0.13020366995E+00  0.19581341585E-01 0.  0.
         14    1    1    2    0    0 -0.52407104586E-02 -0.13477174986E-01 -0.19161619180E-01  0.24005560633E-01  0.00000000000E+00 0. -1.
     999901    1    3    3    0    0  0.12890632074E+00 -0.21385375410E-01  0.11352256592E-01  0.88972076942E+00  0.88000000000E+00 0.  1.
        -11    1    4    4    0    0 -0.42253967790E-01  0.26578841201E-02  0.44316469779E-03  0.42342882022E-01  0.51100000000E-03 0. -1.
         11    1    4    4    0    0 -0.81411642488E-01  0.32204666276E-01  0.73661978895E-02  0.87860787925E-01  0.51100000000E-03 0.  1.
</event>
<event>
 8    1  0.1064839E+005  0.1043930E+01  0.7957747E-01            NaN
         13   -1    0    0    0    0  0.00000000000E+00  0.00000000000E+00  0.74505805969E-08  0.10566000000E+00  0.10566000000E+00 0. -1.
     999900   -1    0    0    0    0 -0.00000000000E+00 -0.00000000000E+00 -0.74505805969E-08  0.93827000000E+00  0.93827000000E+00 0.  1.
     999902    2    1    2    0    0  0.10988944015E-01 -0.27286798082E-01 -0.14102201207E-01  0.10113079474E+01  0.10107816609E+01 0.  0.
     999903    2    3    3    0    0  0.86287921740E-01  0.63395582407E-01 -0.55973760239E-01  0.12246237154E+00  0.19984126239E-01 0.  0.
         14    1    1    2    0    0 -0.10988944015E-01  0.27286798082E-01  0.14102201207E-01  0.32622052649E-01  0.00000000000E+00 0. -1.
     999901    1    3    3    0    0 -0.75298977725E-01 -0.90682380490E-01  0.41871559032E-01  0.88884557581E+00  0.88000000000E+00 0.  1.
        -11    1    4    4    0    0  0.48986030302E-01  0.24309896101E-01 -0.31880545275E-01  0.63302705324E-01  0.51100000000E-03 0.  1.
         11    1    4    4    0    0  0.37301891438E-01  0.39085686306E-01 -0.24093214964E-01  0.59159666219E-01  0.51100000000E-03 0. -1.
</event>
<event>
 8    1  0.1064839E+005  0.1043930E+01  0.7957747E-01            NaN
         13   -1    0    0    0    0  0.00000000000E+00  0.00000000000E+00  0.74505805969E-08  0.10566000000E+00  0.10566000000E+00 0. -1.
     999900   -1    0    0    0    0 -0.00000000000E+00 -0.00000000000E+00 -0.74505805969E-08  0.93827000000E+00  0.93827000000E+00 0.  1.
     999902    2    1    2    0    0 -0.92100570701E-02 -0.23124010188E-01  0.26365599825E-02  0.10189000890E+01  0.10185926049E+01 0.  0.
     999903    2    3    3    0    0 -0.53736082709E-01  0.73555448400E-01  0.88235986461E-01  0.12836275314E+00  0.19835234101E-01 0.  0.
         14    1    1    2    0    0  0.92100570701E-02  0.23124010188E-01 -0.26365599825E-02  0.25029911045E-01  0.00000000000E+00 0. -1.
     999901    1    3    3    0    0  0.44526025639E-01 -0.96679458588E-01 -0.85599426478E-01  0.89053733582E+00  0.88000000000E+00 0. -1.
        -11    1    4    4    0    0 -0.27675211251E-01  0.36211945176E-01  0.57705325909E-01  0.73534944417E-01  0.51100000000E-03 0.  1.
         11    1    4    4    0    0 -0.26060871457E-01  0.37343503225E-01  0.30530660552E-01  0.54827808719E-01  0.51100000000E-03 0. -1.
</event>
<event>
 8    1  0.1064839E+005  0.1043930E+01  0.7957747E-01            NaN
         13   -1    0    0    0    0  0.00000000000E+00  0.00000000000E+00  0.74505805969E-08  0.10566000000E+00  0.10566000000E+00 0.  1.
     999900   -1    0    0    0    0 -0.00000000000E+00 -0.00000000000E+00 -0.74505805969E-08  0.93827000000E+00  0.93827000000E+00 0.  1.
     999902    2    1    2    0    0 -0.21054062843E-01 -0.88528861176E-02  0.52681378454E-02  0.10204907075E+01  0.10202214876E+01 0.  0.
     999903    2    3    3    0    0  0.59783071974E-01 -0.34845554950E-01 -0.10743003364E+00  0.12924936028E+00  0.19389600584E-01 0.  0.
         14    1    1    2    0    0  0.21054062843E-01  0.88528861176E-02 -0.52681378454E-02  0.23439292463E-01  0.00000000000E+00 0. -1.
     999901    1    3    3    0    0 -0.80837134817E-01  0.25992668832E-01  0.11269817149E+00  0.89124134725E+00  0.88000000000E+00 0.  1.
        -11    1    4    4    0    0  0.23276363883E-02 -0.72267429769E-02 -0.16802718597E-01  0.18445492090E-01  0.51100000000E-03 0.  1.
         11    1    4    4    0    0  0.57455435586E-01 -0.27618811973E-01 -0.90627315045E-01  0.11080386819E+00  0.51100000000E-03 0. -1.
</event>
<event>
 8    1  0.1064839E+005  0.1043930E+01  0.7957747E-01            NaN
         13   -1    0    0    0    0  0.00000000000E+00  0.00000000000E+00  0.74505805969E-08  0.10566000000E+00  0.10566000000E+00 0. -1.
     999900   -1    0    0    0    0 -0.00000000000E+00 -0.00000000000E+00 -0.74505805969E-08  0.93827000000E+00  0.93827000000E+00 0. -1.
     999902    2    1    2    0    0  0.19178563386E-01 -0.51496440838E-02 -0.71458116833E-02  0.10228255277E+01  0.10226077749E+01 0.  0.
     999903    2    3    3    0    0 -0.71010077260E-01  0.10809497361E+00  0.32429558028E-02  0.13093637490E+00  0.20170848208E-01 0.  0.
         14    1    1    2    0    0 -0.19178563386E-01  0.51496440838E-02  0.71458116833E-02  0.21104472330E-01  0.00000000000E+00 0. -1.
     999901    1    3    3    0    0  0.90188640646E-01 -0.11324461769E+00 -0.10388767486E-01  0.89188915277E+00  0.88000000000E+00 0. -1.
        -11    1    4    4    0    0 -0.33366815863E-01  0.44807795595E-01  0.10828790045E-01  0.56908758217E-01  0.51100000000E-03 0. -1.
         11    1    4    4    0    0 -0.37643261397E-01  0.63287178015E-01 -0.75858342419E-02  0.74027616683E-01  0.51100000000E-03 0.  1.
</event>
<event>
 8    1  0.1064839E+005  0.1043930E+01  0.7957747E-01            NaN
         13   -1    0    0    0    0  0.00000000000E+00  0.00000000000E+00  0.74505805969E-08  0.10566000000E+00  0.10566000000E+00 0. -1.
     999900   -1    0    0    0    0 -0.00000000000E+00 -0.00000000000E+00 -0.74505805969E-08  0.93827000000E+00  0.93827000000E+00 0.  1.
     999902    2    1    2    0    0 -0.11087495966E-01  0.17336810068E-01  0.10600787622E-01  0.10207810422E+01  0.10205185260E+01 0.  0.
     999903    2    3    3    0    0  0.35381962876E-01 -0.10406543890E+00  0.65467201342E-01  0.12954132133E+00  0.20334714404E-01 0.  0.
         14    1    1    2    0    0  0.11087495966E-01 -0.17336810068E-01 -0.10600787622E-01  0.23148957824E-01  0.00000000000E+00 0.  1.
     999901    1    3    3    0    0 -0.46469458842E-01  0.12140224897E+00 -0.54866413720E-01  0.89123972085E+00  0.88000000000E+00 0.  1.
        -11    1    4    4    0    0  0.16516518717E-01 -0.46830936726E-01  0.41376141091E-01  0.64638828870E-01  0.51100000000E-03 0.  1.
         11    1    4    4    0    0  0.18865444159E-01 -0.57234502174E-01  0.24091060251E-01  0.64902492460E-01  0.51100000000E-03 0. -1.
</event>
<event>
 8    1  0.1064839E+005  0.1043930E+01  0.7957747E-01            NaN
         13   -1    0    0    0    0  0.00000000000E+00  0.00000000000E+00  0.74505805969E-08  0.10566000000E+00  0.10566000000E+00 0.  1.
     999900   -1    0    0    0    0 -0.00000000000E+00 -0.00000000000E+00 -0.74505805969E-08  0.93827000000E+00  0.93827000000E+00 0. -1.
     999902    2    1    2    0    0  0.17529194689E-01 -0.91286332745E-03 -0.15804314772E-01  0.10203104667E+01  0.10200370416E+01 0.  0.
     999903    2    3    3    0    0  0.75024388124E-01  0.35442471240E-01 -0.10249808833E+00  0.13343774871E+00  0.20370250090E-01 0.  0.
         14    1    1    2    0    0 -0.17529194689E-01  0.91286332745E-03  0.15804314772E-01  0.23619533257E-01  0.00000000000E+00 0.  1.
     999901    1    3    3    0    0 -0.57495193436E-01 -0.36355334567E-01  0.86693773556E-01  0.88687271803E+00  0.88000000000E+00 0. -1.
        -11    1    4    4    0    0  0.53099476085E-01  0.28326670799E-01 -0.86487797867E-01  0.10536771299E+00  0.51100000000E-03 0.  1.
         11    1    4    4    0    0  0.21924912039E-01  0.71158004409E-02 -0.16010290460E-01  0.28070035722E-01  0.51100000000E-03 0. -1.
</event>
<event>
 8    1  0.1064839E+005  0.1043930E+01  0.7957747E-01            NaN
         13   -1    0    0    0    0  0.00000000000E+00  0.00000000000E+00  0.74505805969E-08  0.10566000000E+00  0.10566000000E+00 0. -1.
     999900   -1    0    0    0    0 -0.00000000000E+00 -0.00000000000E+00 -0.74505805969E-08  0.93827000000E+00  0.93827000000E+00 0.  1.
     999902    2    1    2    0    0  0.38427905379E-02  0.45352025937E-02  0.21315840826E-01  0.10218008298E+01  0.10215611757E+01 0.  0.
     999903    2    3    3    0    0 -0.37835952152E-01 -0.81334675380E-01 -0.91327171470E-01  0.12950087929E+00  0.19568770892E-01 0.  0.
         14    1    1    2    0    0 -0.38427905379E-02 -0.45352025937E-02 -0.21315840826E-01  0.22129170156E-01  0.00000000000E+00 0.  1.
     999901    1    3    3    0    0  0.41678742690E-01  0.85869877974E-01  0.11264301230E+00  0.89229995055E+00  0.88000000000E+00 0. -1.
        -11    1    4    4    0    0 -0.20317903411E-01 -0.62437454050E-01 -0.70713735598E-01  0.96498426881E-01  0.51100000000E-03 0. -1.
         11    1    4    4    0    0 -0.17518048741E-01 -0.18897221330E-01 -0.20613435872E-01  0.33002452411E-01  0.51100000000E-03 0.  1.
</event>
<event>
 8    1  0.1064839E+005  0.1043930E+01  0.7957747E-01            NaN
         13   -1    0    0    0    0  0.00000000000E+00  0.00000000000E+00  0.74505805969E-08  0.10566000000E+00  0.10566000000E+00 0.  1.
     999900   -1    0    0    0    0 -0.00000000000E+00 -0.00000000000E+00 -0.74505805969E-08  0.93827000000E+00  0.93827000000E+00 0. -1.
     999902    2    1    2    0    0  0.15230940831E-02  0.82290945048E-02 -0.22411650773E-01  0.10200067916E+01  0.10197262059E+01 0.  0.
     999903    2    3    3    0    0  0.12587406113E+00 -0.11971031012E-01 -0.26686832408E-01  0.13102451656E+00  0.21625264522E-01 0.  0.
         14    1    1    2    0    0 -0.15230940831E-02 -0.82290945048E-02  0.22411650773E-01  0.23923208445E-01  0.00000000000E+00 0.  1.
     999901    1    3    3    0    0 -0.12435096705E+00  0.20200125516E-01  0.42751816355E-02  0.88898227500E+00  0.88000000000E+00 0. -1.
        -11    1    4    4    0    0  0.68534790028E-01 -0.15049933122E-03 -0.54827412573E-02  0.68755811877E-01  0.51100000000E-03 0.  1.
         11    1    4    4    0    0  0.57339271107E-01 -0.11820531680E-01 -0.21204091151E-01  0.62268704682E-01  0.51100000000E-03 0. -1.
</event>
<event>
 8    1  0.1064839E+005  0.1043930E+01  0.7957747E-01            NaN
         13   -1    0    0    0    0  0.00000000000E+00  0.00000000000E+00  0.74505805969E-08  0.10566000000E+00  0.10566000000E+00 0. -1.
     999900   -1    0    0    0    0 -0.00000000000E+00 -0.00000000000E+00 -0.74505805969E-08  0.93827000000E+00  0.93827000000E+00 0.  1.
     999902    2    1    2    0    0 -0.20885558543E-01  0.11570544605E-01  0.17560966584E-03  0.10200529211E+01  0.10197734292E+01 0.  0.
     999903    2    3    3    0    0  0.17459038583E-01  0.10506691966E+00 -0.74013741295E-01  0.13116826037E+00  0.19575571362E-01 0.  0.
         14    1    1    2    0    0  0.20885558543E-01 -0.11570544605E-01 -0.17560966584E-03  0.23877078902E-01  0.00000000000E+00 0.  1.
     999901    1    3    3    0    0 -0.38344597127E-01 -0.93496375053E-01  0.74189350961E-01  0.88888466073E+00  0.88000000000E+00 0. -1.
        -11    1    4    4    0    0  0.93362253189E-02  0.29834655725E-01 -0.31454353741E-01  0.44349850910E-01  0.51100000000E-03 0.  1.
         11    1    4    4    0    0  0.81228132645E-02  0.75232263933E-01 -0.42559387554E-01  0.86818409463E-01  0.51100000000E-03 0. -1.
</event>
<event>
 8    1  0.1064839E+005  0.1043930E+01  0.7957747E-01            NaN
         13   -1    0    0    0    0  0.00000000000E+00  0.00000000000E+00  0.74505805969E-08  0.10566000000E+00  0.10566000000E+00 0.  1.
     999900   -1    0    0    0    0 -0.00000000000E+00 -0.00000000000E+00 -0.74505805969E-08  0.93827000000E+00  0.93827000000E+00 0. -1.
     999902    2    1    2    0    0  0.13800919764E-01  0.19732631620E-01 -0.12216738570E-02  0.10198191181E+01  0.10195340598E+01 0.  0.
     999903    2    3    3    0    0  0.22015916205E-02  0.88231504900E-01  0.95695337996E-01  0.13177658130E+00  0.20440748567E-01 0.  0.
         14    1    1    2    0    0 -0.13800919764E-01 -0.19732631620E-01  0.12216738570E-02  0.24110881859E-01  0.00000000000E+00 0.  1.
     999901    1    3    3    0    0  0.11599328144E-01 -0.68498873280E-01 -0.96917011853E-01  0.88804253684E+00  0.88000000000E+00 0. -1.
        -11    1    4    4    0    0  0.39978589443E-02  0.81650051366E-01  0.94286923977E-01  0.12479182232E+00  0.51100000000E-03 0. -1.
         11    1    4    4    0    0 -0.17962673237E-02  0.65814535347E-02  0.14084140190E-02  0.69847589777E-02  0.51100000000E-03 0.  1.
</event>
<event>
 8    1  0.1064839E+005  0.1043930E+01  0.7957747E-01            NaN
         13   -1    0    0    0    0  0.00000000000E+00  0.00000000000E+00  0.74505805969E-08  0.10566000000E+00  0.10566000000E+00 0. -1.
     999900   -1    0    0    0    0 -0.00000000000E+00 -0.00000000000E+00 -0.74505805969E-08  0.93827000000E+00  0.93827000000E+00 0.  1.
     999902    2    1    2    0    0 -0.14137355685E-01  0.16330038696E-01  0.11160504238E-01  0.10196176195E+01  0.10193277187E+01 0.  0.
     999903    2    3    3    0    0 -0.11319115782E+00  0.22838147270E-01 -0.58753542403E-01  0.13128098000E+00  0.21187208091E-01 0.  0.
         14    1    1    2    0    0  0.14137355685E-01 -0.16330038696E-01 -0.11160504238E-01  0.24312380476E-01  0.00000000000E+00 0.  1.
     999901    1    3    3    0    0  0.99053802135E-01 -0.65081085744E-02  0.69914046642E-01  0.88833663952E+00  0.88000000000E+00 0.  1.
        -11    1    4    4    0    0 -0.90388095493E-01  0.22443172644E-01 -0.55000798142E-01  0.10816215938E+00  0.51100000000E-03 0. -1.
         11    1    4    4    0    0 -0.22803062326E-01  0.39497462586E-03 -0.37527442614E-02  0.23118820621E-01  0.51100000000E-03 0.  1.
</event>
<event>
 8    1  0.1064839E+005  0.1043930E+01  0.7957747E-01            NaN
         13   -1    0    0    0    0  0.00000000000E+00  0.00000000000E+00  0.74505805969E-08  0.10566000000E+00  0.10566000000E+00 0.  1.
     999900   -1    0    0    0    0 -0.00000000000E+00 -0.00000000000E+00 -0.74505805969E-08  0.93827000000E+00  0.93827000000E+00 0. -1.
     999902    2    1    2    0    0 -0.37503706136E-02  0.23020973575E-01  0.18612968356E-02  0.10205313904E+01  0.10202631150E+01 0.  0.
     999903    2    3    3    0    0  0.16467402132E-01  0.98616720968E-01  0.85558848273E-01  0.13310322123E+00  0.19992948698E-01 0.  0.
         14    1    1    2    0    0  0.37503706136E-02 -0.23020973575E-01 -0.18612968356E-02  0.23398609574E-01  0.00000000000E+00 0. -1.
     999901    1    3    3    0    0 -0.20217772745E-01 -0.75595747393E-01 -0.83697551438E-01  0.88742816919E+00  0.88000000000E+00 0. -1.
        -11    1    4    4    0    0  0.32328864713E-02  0.71420226320E-01  0.64010301703E-01  0.95962910166E-01  0.51100000000E-03 0.  1.
         11    1    4    4    0    0  0.13234515660E-01  0.27196494648E-01  0.21548546570E-01  0.37140311068E-01  0.51100000000E-03 0. -1.
</event>
<event>
 8    1  0.1064839E+005  0.1043930E+01  0.7957747E-01            NaN
         13   -1    0    0    0    0  0.00000000000E+00  0.00000000000E+00  0.74505805969E-08  0.10566000000E+00  0.10566000000E+00 0. -1.
     999900   -1    0    0    0    0 -0.00000000000E+00 -0.00000000000E+00 -0.74505805969E-08  0.93827000000E+00  0.93827000000E+00 0.  1.
     999902    2    1    2    0    0  0.19394316468E-01  0.75657059202E-02  0.81811352915E-02  0.10215623807E+01  0.10213174763E+01 0.  0.
     999903    2    3    3    0    0 -0.35522861460E-01  0.87083266213E-01 -0.88959034490E-01  0.13095856790E+00  0.19775432976E-01 0.  0.
         14    1    1    2    0    0 -0.19394316468E-01 -0.75657059202E-02 -0.81811352915E-02  0.22367619274E-01  0.00000000000E+00 0. -1.
     999901    1    3    3    0    0  0.54917177929E-01 -0.79517560293E-01  0.97140169782E-01  0.89060381282E+00  0.88000000000E+00 0. -1.
        -11    1    4    4    0    0 -0.16955114226E-01  0.41148812093E-01 -0.55631865337E-01  0.71245113495E-01  0.51100000000E-03 0.  1.
         11    1    4    4    0    0 -0.18567747234E-01  0.45934454120E-01 -0.33327169154E-01  0.59713454409E-01  0.51100000000E-03 0. -1.
</event>
<event>
 8    1  0.1064839E+005  0.1043930E+01  0.7957747E-01            NaN
         13   -1    0    0    0    0  0.00000000000E+00  0.00000000000E+00  0.74505805969E-08  0.10566000000E+00  0.10566000000E+00 0.  1.
     999900   -1    0    0    0    0 -0.00000000000E+00 -0.00000000000E+00 -0.74505805969E-08  0.93827000000E+00  0.93827000000E+00 0.  1.
     999902    2    1    2    0    0  0.58924792574E-02 -0.13154218239E-01  0.89704294666E-03  0.10294884123E+01  0.10293871146E+01 0.  0.
     999903    2    3    3    0    0  0.97897857281E-01 -0.90297415861E-01  0.39938370319E-01  0.14047756435E+00  0.20031447557E-01 0.  0.
         14    1    1    2    0    0 -0.58924792574E-02  0.13154218239E-01 -0.89704294666E-03  0.14441587701E-01  0.00000000000E+00 0. -1.
     999901    1    3    3    0    0 -0.92005378023E-01  0.77143197622E-01 -0.39041327373E-01  0.88901084795E+00  0.88000000000E+00 0.  1.
        -11    1    4    4    0    0  0.31809386947E-01 -0.17483854616E-01  0.12375154360E-01  0.38352677046E-01  0.51100000000E-03 0. -1.
         11    1    4    4    0    0  0.66088470334E-01 -0.72813561245E-01  0.27563215959E-01  0.10212488731E+00  0.51100000000E-03 0.  1.
</event>
<event>
 8    1  0.1064839E+005  0.1043930E+01  0.7957747E-01            NaN
         13   -1    0    0    0    0  0.00000000000E+00  0.00000000000E+00  0.74505805969E-08  0.10566000000E+00  0.10566000000E+00 0.  1.
     999900   -1    0    0    0    0 -0.00000000000E+00 -0.00000000000E+00 -0.74505805969E-08  0.93827000000E+00  0.93827000000E+00 0.  1.
     999902    2    1    2    0    0  0.12097131300E-01  0.15342162752E-01  0.13953501291E-01  0.10199211945E+01  0.10196385733E+01 0.  0.
     999903    2    3    3    0    0  0.30877457315E-01 -0.11649596238E+00 -0.39521959273E-01  0.12829704903E+00  0.19324101679E-01 0.  0.
         14    1    1    2    0    0 -0.12097131300E-01 -0.15342162752E-01 -0.13953501291E-01  0.24008805507E-01  0.00000000000E+00 0. -1.
     999901    1    3    3    0    0 -0.18780326015E-01  0.13183812513E+00  0.53475460564E-01  0.89162414546E+00  0.88000000000E+00 0. -1.
        -11    1    4    4    0    0  0.14297185090E-01 -0.62232804163E-01 -0.30774046309E-01  0.70884656045E-01  0.51100000000E-03 0.  1.
         11    1    4    4    0    0  0.16580272225E-01 -0.54263158214E-01 -0.87479129638E-02  0.57412392989E-01  0.51100000000E-03 0. -1.
</event>
<event>
 8    1  0.1064839E+005  0.1043930E+01  0.7957747E-01            NaN
         13   -1    0    0    0    0  0.00000000000E+00  0.00000000000E+00  0.74505805969E-08  0.10566000000E+00  0.10566000000E+00 0. -1.
     999900   -1    0    0    0    0 -0.00000000000E+00 -0.00000000000E+00 -0.74505805969E-08  0.93827000000E+00  0.93827000000E+00 0.  1.
     999902    2    1    2    0    0 -0.28814098152E-02 -0.32269522426E-02 -0.23081066465E-01  0.10204469982E+01  0.10201767616E+01 0.  0.
     999903    2    3    3    0    0 -0.70595732745E-01  0.64932582388E-01  0.83499920553E-01  0.12882462385E+00  0.20580311955E-01 0.  0.
         14    1    1    2    0    0  0.28814098152E-02  0.32269522426E-02  0.23081066465E-01  0.23483001777E-01  0.00000000000E+00 0. -1.
     999901    1    3    3    0    0  0.67714322929E-01 -0.68159534631E-01 -0.10658098702E+00  0.89162237437E+00  0.88000000000E+00 0.  1.
        -11    1    4    4    0    0 -0.49160688070E-01  0.36453796897E-01  0.42599728121E-01  0.74569769456E-01  0.51100000000E-03 0.  1.
         11    1    4    4    0    0 -0.21435044674E-01  0.28478785491E-01  0.40900192432E-01  0.54254854393E-01  0.51100000000E-03 0. -1.
</event>
<event>
 8    1  0.1064839E+005  0.1043930E+01  0.7957747E-01            NaN
         13   -1    0    0    0    0  0.00000000000E+00  0.00000000000E+00  0.74505805969E-08  0.10566000000E+00  0.10566000000E+00 0. -1.
     999900   -1    0    0    0    0 -0.00000000000E+00 -0.00000000000E+00 -0.74505805969E-08  0.93827000000E+00  0.93827000000E+00 0. -1.
     999902    2    1    2    0    0  0.18602843122E-01 -0.34700051642E-03  0.15237190654E-01  0.10198809218E+01  0.10195973404E+01 0.  0.
     999903    2    3    3    0    0  0.88964521773E-01 -0.52154709776E-01  0.81717569131E-01  0.13305825338E+00  0.19797419076E-01 0.  0.
         14    1    1    2    0    0 -0.18602843122E-01  0.34700051642E-03 -0.15237190654E-01  0.24049078165E-01  0.00000000000E+00 0.  1.
     999901    1    3    3    0    0 -0.70361678651E-01  0.51807709259E-01 -0.66480378477E-01  0.88682266845E+00  0.88000000000E+00 0. -1.
        -11    1    4    4    0    0  0.19545812667E-01 -0.57587952832E-02  0.24337500516E-01  0.31745512569E-01  0.51100000000E-03 0.  1.
         11    1    4    4    0    0  0.69418709106E-01 -0.46395914492E-01  0.57380068615E-01  0.10131274081E+00  0.51100000000E-03 0. -1.
</event>
<event>
 8    1  0.1064839E+005  0.1043930E+01  0.7957747E-01            NaN
         13   -1    0    0    0    0  0.00000000000E+00  0.00000000000E+00  0.74505805969E-08  0.10566000000E+00  0.10566000000E+00 0.  1.
     999900   -1    0    0    0    0 -0.00000000000E+00 -0.00000000000E+00 -0.74505805969E-08  0.93827000000E+00  0.93827000000E+00 0. -1.
     999902    2    1    2    0    0 -0.15545915836E-01 -0.14957737747E-01  0.60000647637E-02  0.10215378095E+01  0.10212923607E+01 0.  0.
     999903    2    3    3    0    0  0.32898238913E-01 -0.12622586595E+00 -0.17459839881E-01  0.13289963815E+00  0.18498768949E-01 0.  0.
         14    1    1    2    0    0  0.15545915836E-01  0.14957737747E-01 -0.60000647637E-02  0.22392190488E-01  0.00000000000E+00 0.  1.
     999901    1    3    3    0    0 -0.48444154749E-01  0.11126812820E+00  0.23459904645E-01  0.88863817137E+00  0.88000000000E+00 0.  1.
        -11    1    4    4    0    0  0.60420463289E-02 -0.35494268196E-01  0.28474783356E-02  0.36120889420E-01  0.51100000000E-03 0. -1.
         11    1    4    4    0    0  0.26856192584E-01 -0.90731597753E-01 -0.20307318217E-01  0.96778748726E-01  0.51100000000E-03 0.  1.
</event>
<event>
 8    1  0.1064839E+005  0.1043930E+01  0.7957747E-01            NaN
         13   -1    0    0    0    0  0.00000000000E+00  0.00000000000E+00  0.74505805969E-08  0.10566000000E+00  0.10566000000E+00 0. -1.
     999900   -1    0    0    0    0 -0.00000000000E+00 -0.00000000000E+00 -0.74505805969E-08  0.93827000000E+00  0.93827000000E+00 0. -1.
     999902    2    1    2    0    0 -0.13017706976E-01 -0.14416689961E-01 -0.13713461809E-01  0.10201526856E+01  0.10198755519E+01 0.  0.
     999903    2    3    3    0    0 -0.12388951799E-01  0.81338822654E-01 -0.99618335355E-01  0.13079945949E+00  0.20376350666E-01 0.  0.
         14    1    1    2    0    0  0.13017706976E-01  0.14416689961E-01  0.13713461809E-01  0.23777314380E-01  0.00000000000E+00 0. -1.
     999901    1    3    3    0    0 -0.62875517700E-03 -0.95755512615E-01  0.85904873546E-01  0.88935322613E+00  0.88000000000E+00 0.  1.
        -11    1    4    4    0    0  0.49156462615E-02  0.24407051743E-01 -0.24106648414E-01  0.34659188849E-01  0.51100000000E-03 0.  1.
         11    1    4    4    0    0 -0.17304598060E-01  0.56931770911E-01 -0.75511686941E-01  0.96140270640E-01  0.51100000000E-03 0. -1.
</event>
<event>
 8    1  0.1064839E+005  0.1043930E+01  0.7957747E-01            NaN
         13   -1    0    0    0    0  0.00000000000E+00  0.00000000000E+00  0.74505805969E-08  0.10566000000E+00  0.10566000000E+00 0. -1.
     999900   -1    0    0    0    0 -0.00000000000E+00 -0.00000000000E+00 -0.74505805969E-08  0.93827000000E+00  0.93827000000E+00 0. -1.
     999902    2    1    2    0    0 -0.50327737796E-02  0.23737991447E-01 -0.35685242091E-02  0.10194033733E+01  0.10191082779E+01 0.  0.
     999903    2    3    3    0    0 -0.70861569016E-01  0.10380092977E+00  0.36312693982E-01  0.13242309401E+00  0.20524840990E-01 0.  0.
         14    1    1    2    0    0  0.50327737796E-02 -0.23737991447E-01  0.35685242091E-02  0.24526626651E-01  0.00000000000E+00 0. -1.
     999901    1    3    3    0    0  0.65828795236E-01 -0.80062938324E-01 -0.39881218191E-01  0.88698027934E+00  0.88000000000E+00 0. -1.
        -11    1    4    4    0    0 -0.54647066973E-01  0.85698618313E-01  0.21285652510E-01  0.10384553545E+00  0.51100000000E-03 0. -1.
         11    1    4    4    0    0 -0.16214502043E-01  0.18102311458E-01  0.15027041472E-01  0.28577558556E-01  0.51100000000E-03 0.  1.
</event>
<event>
 8    1  0.1064839E+005  0.1043930E+01  0.7957747E-01            NaN
         13   -1    0    0    0    0  0.00000000000E+00  0.00000000000E+00  0.74505805969E-08  0.10566000000E+00  0.10566000000E+00 0.  1.
     999900   -1    0    0    0    0 -0.00000000000E+00 -0.00000000000E+00 -0.74505805969E-08  0.93827000000E+00  0.93827000000E+00 0. -1.
     999902    2    1    2    0    0 -0.13151974652E-01  0.15912645611E-01  0.12729862933E-01  0.10196764201E+01  0.10193879367E+01 0.  0.
     999903    2    3    3    0    0 -0.26561552107E-01 -0.99677154522E-01  0.76224825456E-01  0.12974809213E+00  0.19577850025E-01 0.  0.
         14    1    1    2    0    0  0.13151974652E-01 -0.15912645611E-01 -0.12729862933E-01  0.24253579898E-01  0.00000000000E+00 0.  1.
     999901    1    3    3    0    0  0.13409577455E-01  0.11558980013E+00 -0.63494962522E-01  0.88992832797E+00  0.88000000000E+00 0.  1.
        -11    1    4    4    0    0 -0.12418984420E-01 -0.63415633655E-01  0.36895845559E-01  0.74413293882E-01  0.51100000000E-03 0.  1.
         11    1    4    4    0    0 -0.14142567687E-01 -0.36261520867E-01  0.39328979897E-01  0.55334798247E-01  0.51100000000E-03 0. -1.
</event>
<event>
 8    1  0.1064839E+005  0.1043930E+01  0.7957747E-01            NaN
         13   -1    0    0    0    0  0.00000000000E+00  0.00000000000E+00  0.74505805969E-08  0.10566000000E+00  0.10566000000E+00 0. -1.
     999900   -1    0    0    0    0 -0.00000000000E+00 -0.00000000000E+00 -0.74505805969E-08  0.93827000000E+00  0.93827000000E+00 0. -1.
     999902    2    1    2    0    0 -0.58482567463E-02  0.12335376930E-01  0.16704448977E-01  0.10223568165E+01  0.10221291787E+01 0.  0.
     999903    2    3    3    0    0 -0.11027893079E+00 -0.38685762088E-01 -0.56982804286E-01  0.13166117061E+00  0.20726627751E-01 0.  0.
         14    1    1    2    0    0  0.58482567463E-02 -0.12335376930E-01 -0.16704448977E-01  0.21573183507E-01  0.00000000000E+00 0. -1.
     999901    1    3    3    0    0  0.10443067404E+00  0.51021139018E-01  0.73687253263E-01  0.89069564589E+00  0.88000000000E+00 0.  1.
        -11    1    4    4    0    0 -0.54729134189E-01 -0.10667811455E-01 -0.19761284978E-01  0.59159528694E-01  0.51100000000E-03 0. -1.
         11    1    4    4    0    0 -0.55549796596E-01 -0.28017950632E-01 -0.37221519308E-01  0.72501641913E-01  0.51100000000E-03 0.  1.
</event>
<event>
 8    1  0.1064839E+005  0.1043930E+01  0.7957747E-01            NaN
         13   -1    0    0    0    0  0.00000000000E+00  0.00000000000E+00  0.74505805969E-08  0.10566000000E+00  0.10566000000E+00 0.  1.
     999900   -1    0    0    0    0 -0.00000000000E+00 -0.00000000000E+00 -0.74505805969E-08  0.93827000000E+00  0.93827000000E+00 0.  1.
     999902    2    1    2    0    0  0.10221271244E-01  0.21208795508E-01 -0.28152242467E-02  0.10202189713E+01  0.10199433987E+01 0.  0.
     999903    2    3    3    0    0  0.21979423065E-01 -0.62842106961E-01  0.10816096659E+00  0.12919791475E+00  0.23687149188E-01 0.  0.
         14    1    1    2    0    0 -0.10221271244E-01 -0.21208795508E-01  0.28152242467E-02  0.23711028664E-01  0.00000000000E+00 0.  1.
     999901    1    3    3    0    0 -0.11758151820E-01  0.84050902470E-01 -0.11097619084E+00  0.89102105658E+00  0.88000000000E+00 0.  1.
        -11    1    4    4    0    0  0.13769517729E-01 -0.50117555117E-01  0.63636195832E-01  0.82165658826E-01  0.51100000000E-03 0. -1.
         11    1    4    4    0    0  0.82099053355E-02 -0.12724551844E-01  0.44524770761E-01  0.47032255927E-01  0.51100000000E-03 0.  1.
</event>
<event>
 8    1  0.1064839E+005  0.1043930E+01  0.7957747E-01            NaN
         13   -1    0    0    0    0  0.00000000000E+00  0.00000000000E+00  0.74505805969E-08  0.10566000000E+00  0.10566000000E+00 0.  1.
     999900   -1    0    0    0    0 -0.00000000000E+00 -0.00000000000E+00 -0.74505805969E-08  0.93827000000E+00  0.93827000000E+00 0.  1.
     999902    2    1    2    0    0 -0.20847412486E-01  0.89415623978E-02 -0.20993445594E-02  0.10211490125E+01  0.10208948684E+01 0.  0.
     999903    2    3    3    0    0  0.59728094705E-01 -0.10591089569E+00  0.38437254268E-01  0.12911385882E+00  0.20208980713E-01 0.  0.
         14    1    1    2    0    0  0.20847412486E-01 -0.89415623978E-02  0.20993445594E-02  0.22780987535E-01  0.00000000000E+00 0. -1.
     999901    1    3    3    0    0 -0.80575507191E-01  0.11485245809E+00 -0.40536598827E-01  0.89203515364E+00  0.88000000000E+00 0. -1.
        -11    1    4    4    0    0  0.45982171947E-01 -0.63860084603E-01  0.20095901267E-01  0.81219313659E-01  0.51100000000E-03 0. -1.
         11    1    4    4    0    0  0.13745922758E-01 -0.42050811088E-01  0.18341353001E-01  0.47894545165E-01  0.51100000000E-03 0.  1.
</event>
<event>
 8    1  0.1064839E+005  0.1043930E+01  0.7957747E-01            NaN
         13   -1    0    0    0    0  0.00000000000E+00  0.00000000000E+00  0.74505805969E-08  0.10566000000E+00  0.10566000000E+00 0. -1.
     999900   -1    0    0    0    0 -0.00000000000E+00 -0.00000000000E+00 -0.74505805969E-08  0.93827000000E+00  0.93827000000E+00 0. -1.
     999902    2    1    2    0    0 -0.16944902620E-01  0.10214067145E-01 -0.17917476768E-01  0.10172374380E+01  0.10168871680E+01 0.  0.
     999903    2    3    3    0    0 -0.43790927961E-01  0.44517315830E-01 -0.11351067093E+00  0.13098945875E+00  0.19342417361E-01 0.  0.
         14    1    1    2    0    0  0.16944902620E-01 -0.10214067145E-01  0.17917476768E-01  0.26692562001E-01  0.00000000000E+00 0. -1.
     999901    1    3    3    0    0  0.26846025340E-01 -0.34303248685E-01  0.95593194161E-01  0.88624797925E+00  0.88000000000E+00 0.  1.
        -11    1    4    4    0    0 -0.24218301844E-01  0.20992367690E-01 -0.39296699324E-01  0.50711905350E-01  0.51100000000E-03 0.  1.
         11    1    4    4    0    0 -0.19572626117E-01  0.23524948140E-01 -0.74213971605E-01  0.80277553403E-01  0.51100000000E-03 0. -1.
</event>
<event>
 8    1  0.1064839E+005  0.1043930E+01  0.7957747E-01            NaN
         13   -1    0    0    0    0  0.00000000000E+00  0.00000000000E+00  0.74505805969E-08  0.10566000000E+00  0.10566000000E+00 0.  1.
     999900   -1    0    0    0    0 -0.00000000000E+00 -0.00000000000E+00 -0.74505805969E-08  0.93827000000E+00  0.93827000000E+00 0. -1.
     999902    2    1    2    0    0 -0.23124620473E-01  0.14287403894E-02 -0.67286588550E-02  0.10198039928E+01  0.10195185725E+01 0.  0.
     999903    2    3    3    0    0  0.91316523168E-01  0.52038180703E-01  0.69671174308E-01  0.12767450375E+00  0.20000668098E-01 0.  0.
         14    1    1    2    0    0  0.23124620473E-01 -0.14287403894E-02  0.67286588550E-02  0.24126007152E-01  0.00000000000E+00 0.  1.
     999901    1    3    3    0    0 -0.11444114364E+00 -0.50609440313E-01 -0.76399833163E-01  0.89212948910E+00  0.88000000000E+00 0. -1.
        -11    1    4    4    0    0  0.17759102334E-01  0.77179895066E-02  0.22513173233E-01  0.29699447263E-01  0.51100000000E-03 0. -1.
         11    1    4    4    0    0  0.73557420835E-01  0.44320191196E-01  0.47158001075E-01  0.97975056488E-01  0.51100000000E-03 0.  1.
</event>
<event>
 7    1  0.1064839E+005  0.1043930E+01  0.7957747E-01            NaN
         13   -1    0    0    0    0  0.00000000000E+00  0.00000000000E+00  0.74505805969E-08  0.10566000000E+00  0.10566000000E+00 0. -1.
     999900   -1    0    0    0    0 -0.00000000000E+00 -0.00000000000E+00 -0.74505805969E-08  0.93827000000E+00  0.93827000000E+00 0.  1.
     999902    2    1    2    0    0 -0.15708589968E-01  0.17820025581E-01 -0.22402671569E-02  0.10200693230E+01  0.10197902195E+01 0.  0.
         14    1    1    2    0    0  0.15708589968E-01 -0.17820025581E-01  0.22402671569E-02  0.23860677011E-01  0.00000000000E+00 0.  1.
     999901    1    3    3    0    0 -0.18330380600E-01 -0.55392516811E-03 -0.11446841675E+00  0.88760313661E+00  0.88000000000E+00 0.  1.
        -11    1    3    3    0    0  0.18892261490E-01  0.15793420741E-01  0.11330335545E+00  0.11594939051E+00  0.51100000000E-03 0. -1.
         11    1    3    3    0    0 -0.16270470859E-01  0.25805300082E-02 -0.10752058558E-02  0.16516795867E-01  0.51100000000E-03 0.  1.
</event>
<event>
 8    1  0.1064839E+005  0.1043930E+01  0.7957747E-01            NaN
         13   -1    0    0    0    0  0.00000000000E+00  0.00000000000E+00  0.74505805969E-08  0.10566000000E+00  0.10566000000E+00 0.  1.
     999900   -1    0    0    0    0 -0.00000000000E+00 -0.00000000000E+00 -0.74505805969E-08  0.93827000000E+00  0.93827000000E+00 0.  1.
     999902    2    1    2    0    0 -0.20948121683E-01  0.40800359847E-02  0.87302980541E-02  0.10208716263E+01  0.10206111839E+01 0.  0.
     999903    2    3    3    0    0 -0.21402208828E-01 -0.34143229577E-01  0.12422501940E+00  0.13250219022E+00  0.22386609821E-01 0.  0.
         14    1    1    2    0    0  0.20948121683E-01 -0.40800359847E-02 -0.87302980541E-02  0.23058373746E-01  0.00000000000E+00 0. -1.
     999901    1    3    3    0    0  0.45408714453E-03  0.38223265561E-01 -0.11549472134E+00  0.88836943604E+00  0.88000000000E+00 0.  1.
        -11    1    4    4    0    0 -0.46584419024E-02 -0.11234826138E-01  0.72392837182E-01  0.73409171059E-01  0.51100000000E-03 0. -1.
         11    1    4    4    0    0 -0.16743766925E-01 -0.22908403438E-01  0.51832182216E-01  0.59093019158E-01  0.51100000000E-03 0.  1.
</event>
<event>
 8    1  0.1064839E+005  0.1043930E+01  0.7957747E-01            NaN
         13   -1    0    0    0    0  0.00000000000E+00  0.00000000000E+00  0.74505805969E-08  0.10566000000E+00  0.10566000000E+00 0.  1.
     999900   -1    0    0    0    0 -0.00000000000E+00 -0.00000000000E+00 -0.74505805969E-08  0.93827000000E+00  0.93827000000E+00 0.  1.
     999902    2    1    2    0    0 -0.42663364659E-02 -0.22546812197E-01  0.23832343159E-02  0.10208596690E+01  0.10205989534E+01 0.  0.
     999903    2    3    3    0    0 -0.93200851239E-01  0.85842731001E-01 -0.18000970136E-01  0.12952743195E+00  0.19948623133E-01 0.  0.
         14    1    1    2    0    0  0.42663364659E-02  0.22546812197E-01 -0.23832343159E-02  0.23070331010E-01  0.00000000000E+00 0. -1.
     999901    1    3    3    0    0  0.88934514773E-01 -0.10838954320E+00  0.20384204452E-01  0.89133223704E+00  0.88000000000E+00 0. -1.
        -11    1    4    4    0    0 -0.61907198618E-01  0.55760432538E-01 -0.22548671030E-02  0.83349100920E-01  0.51100000000E-03 0.  1.
         11    1    4    4    0    0 -0.31293652621E-01  0.30082298463E-01 -0.15746103033E-01  0.46178331032E-01  0.51100000000E-03 0. -1.
</event>
<event>
 8    1  0.1064839E+005  0.1043930E+01  0.7957747E-01            NaN
         13   -1    0    0    0    0  0.00000000000E+00  0.00000000000E+00  0.74505805969E-08  0.10566000000E+00  0.10566000000E+00 0.  1.
     999900   -1    0    0    0    0 -0.00000000000E+00 -0.00000000000E+00 -0.74505805969E-08  0.93827000000E+00  0.93827000000E+00 0. -1.
     999902    2    1    2    0    0  0.19568147321E-01 -0.21872392824E-02 -0.12961592655E-01  0.10203567251E+01  0.10200843824E+01 0.  0.
     999903    2    3    3    0    0 -0.82216153394E-01  0.65768028556E-01  0.69696495175E-01  0.12805054347E+00  0.21316913090E-01 0.  0.
         14    1    1    2    0    0 -0.19568147321E-01  0.21872392824E-02  0.12961592655E-01  0.23573274898E-01  0.00000000000E+00 0. -1.
     999901    1    3    3    0    0  0.10178430071E+00 -0.67955267838E-01 -0.82658087831E-01  0.89230618163E+00  0.88000000000E+00 0. -1.
        -11    1    4    4    0    0 -0.21925635002E-01  0.18930626047E-01  0.31091778891E-01  0.42497787100E-01  0.51100000000E-03 0. -1.
         11    1    4    4    0    0 -0.60290518393E-01  0.46837402509E-01  0.38604716284E-01  0.85552756368E-01  0.51100000000E-03 0.  1.
</event>
<event>
 8    1  0.1064839E+005  0.1043930E+01  0.7957747E-01            NaN
         13   -1    0    0    0    0  0.00000000000E+00  0.00000000000E+00  0.74505805969E-08  0.10566000000E+00  0.10566000000E+00 0. -1.
     999900   -1    0    0    0    0 -0.00000000000E+00 -0.00000000000E+00 -0.74505805969E-08  0.93827000000E+00  0.93827000000E+00 0. -1.
     999902    2    1    2    0    0 -0.11865383998E-01 -0.21405489907E-01  0.58894175530E-02  0.10187572454E+01  0.10184461976E+01 0.  0.
     999903    2    3    3    0    0 -0.97251058739E-01  0.57515949172E-01  0.59736566515E-01  0.12947729934E+00  0.20737908040E-01 0.  0.
         14    1    1    2    0    0  0.11865383998E-01  0.21405489907E-01 -0.58894175530E-02  0.25172754611E-01  0.00000000000E+00 0.  1.
     999901    1    3    3    0    0  0.85385674741E-01 -0.78921439079E-01 -0.53847148962E-01  0.88927994605E+00  0.88000000000E+00 0. -1.
        -11    1    4    4    0    0 -0.72675454101E-01  0.32177542015E-01  0.38992169475E-01  0.88531159714E-01  0.51100000000E-03 0. -1.
         11    1    4    4    0    0 -0.24575604638E-01  0.25338407157E-01  0.20744397039E-01  0.40946139624E-01  0.51100000000E-03 0.  1.
</event>
<event>
 8    1  0.1064839E+005  0.1043930E+01  0.7957747E-01            NaN
         13   -1    0    0    0    0  0.00000000000E+00  0.00000000000E+00  0.74505805969E-08  0.10566000000E+00  0.10566000000E+00 0. -1.
     999900   -1    0    0    0    0 -0.00000000000E+00 -0.00000000000E+00 -0.74505805969E-08  0.93827000000E+00  0.93827000000E+00 0.  1.
     999902    2    1    2    0    0 -0.41410028231E-02  0.22681099606E-01  0.68919835075E-03  0.10208636787E+01  0.10206030547E+01 0.  0.
     999903    2    3    3    0    0 -0.48399882429E-01 -0.62976950865E-01 -0.10070234547E+00  0.12981014766E+00  0.20026659543E-01 0.  0.
         14    1    1    2    0    0  0.41410028231E-02 -0.22681099606E-01 -0.68919835075E-03  0.23066321295E-01  0.00000000000E+00 0. -1.
     999901    1    3    3    0    0  0.44258879606E-01  0.85658050471E-01  0.10139154382E+00  0.89105353105E+00  0.88000000000E+00 0. -1.
        -11    1    4    4    0    0 -0.46235044941E-01 -0.64338645151E-01 -0.96427060071E-01  0.12480216214E+00  0.51100000000E-03 0. -1.
         11    1    4    4    0    0 -0.21648374890E-02  0.13616942861E-02 -0.42752853978E-02  0.50079855147E-02  0.51100000000E-03 0.  1.
</event>
<event>
 8    1  0.1064839E+005  0.1043930E+01  0.7957747E-01            NaN
         13   -1    0    0    0    0  0.00000000000E+00  0.00000000000E+00  0.74505805969E-08  0.10566000000E+00  0.10566000000E+00 0. -1.
     999900   -1    0    0    0    0 -0.00000000000E+00 -0.00000000000E+00 -0.74505805969E-08  0.93827000000E+00  0.93827000000E+00 0.  1.
     999902    2    1    2    0    0 -0.68716020653E-02 -0.13831665031E-01 -0.17779307971E-01  0.10203792534E+01  0.10201074371E+01 0.  0.
     999903    2    3    3    0    0 -0.46464777325E-01 -0.23022499602E-01  0.11670932556E+00  0.12923432496E+00  0.19784667201E-01 0.  0.
         14    1    1    2    0    0  0.68716020653E-02  0.13831665031E-01  0.17779307971E-01  0.23550746579E-01  0.00000000000E+00 0. -1.
     999901    1    3    3    0    0  0.39593175259E-01  0.91908345710E-02 -0.13448863353E+00  0.89114492846E+00  0.88000000000E+00 0.  1.
        -11    1    4    4    0    0 -0.22531369852E-01 -0.14781331010E-02  0.38221604076E-01  0.44395941752E-01  0.51100000000E-03 0.  1.
         11    1    4    4    0    0 -0.23933407473E-01 -0.21544366501E-01  0.78487721484E-01  0.84838383211E-01  0.51100000000E-03 0. -1.
</event>
<event>
 8    1  0.1064839E+005  0.1043930E+01  0.7957747E-01            NaN
         13   -1    0    0    0    0  0.00000000000E+00  0.00000000000E+00  0.74505805969E-08  0.10566000000E+00  0.10566000000E+00 0.  1.
     999900   -1    0    0    0    0 -0.00000000000E+00 -0.00000000000E+00 -0.74505805969E-08  0.93827000000E+00  0.93827000000E+00 0.  1.
     999902    2    1    2    0    0 -0.12604927522E-01 -0.17494190894E-01 -0.71594243937E-02  0.10212102229E+01  0.10209574580E+01 0.  0.
     999903    2    3    3    0    0 -0.37399104116E-01  0.11814605710E+00  0.33662250656E-01  0.12953795284E+00  0.17022053642E-01 0.  0.
         14    1    1    2    0    0  0.12604927522E-01  0.17494190894E-01  0.71594243937E-02  0.22719777079E-01  0.00000000000E+00 0.  1.
     999901    1    3    3    0    0  0.24794176594E-01 -0.13564024800E+00 -0.40821675050E-01  0.89167227008E+00  0.88000000000E+00 0.  1.
        -11    1    4    4    0    0 -0.31612346275E-01  0.73304457698E-01  0.23049237756E-01  0.83092794137E-01  0.51100000000E-03 0.  1.
         11    1    4    4    0    0 -0.57867578418E-02  0.44841599406E-01  0.10613012900E-01  0.46445158708E-01  0.51100000000E-03 0. -1.
</event>
<event>
 8    1  0.1064839E+005  0.1043930E+01  0.7957747E-01            NaN
         13   -1    0    0    0    0  0.00000000000E+00  0.00000000000E+00  0.74505805969E-08  0.10566000000E+00  0.10566000000E+00 0. -1.
     999900   -1    0    0    0    0 -0.00000000000E+00 -0.00000000000E+00 -0.74505805969E-08  0.93827000000E+00  0.93827000000E+00 0.  1.
     999902    2    1    2    0    0 -0.79449193510E-02 -0.21605577043E-01 -0.70822547611E-02  0.10198451285E+01  0.10195606922E+01 0.  0.
     999903    2    3    3    0    0 -0.98314171017E-01  0.28640303327E-01 -0.78610298204E-01  0.13090896029E+00  0.21717129271E-01 0.  0.
         14    1    1    2    0    0  0.79449193510E-02  0.21605577043E-01  0.70822547611E-02  0.24084871504E-01  0.00000000000E+00 0. -1.
     999901    1    3    3    0    0  0.90369251666E-01 -0.50245880370E-01  0.71528043443E-01  0.88893616820E+00  0.88000000000E+00 0. -1.
        -11    1    4    4    0    0 -0.20305495629E-01 -0.18093606627E-02 -0.10337997847E-01  0.22863120068E-01  0.51100000000E-03 0. -1.
         11    1    4    4    0    0 -0.78008675388E-01  0.30449663990E-01 -0.68272300357E-01  0.10804584022E+00  0.51100000000E-03 0.  1.
</event>
<event>
 8    1  0.1064839E+005  0.1043930E+01  0.7957747E-01            NaN
         13   -1    0    0    0    0  0.00000000000E+00  0.00000000000E+00  0.74505805969E-08  0.10566000000E+00  0.10566000000E+00 0.  1.
     999900   -1    0    0    0    0 -0.00000000000E+00 -0.00000000000E+00 -0.74505805969E-08  0.93827000000E+00  0.93827000000E+00 0. -1.
     999902    2    1    2    0    0  0.11097751050E-01  0.14960774542E-01  0.13102796078E-01  0.10211557137E+01  0.10209017207E+01 0.  0.
     999903    2    3    3    0    0 -0.72832704732E-01 -0.10450892652E+00  0.72169338819E-02  0.12910640210E+00  0.19739815820E-01 0.  0.
         14    1    1    2    0    0 -0.11097751050E-01 -0.14960774542E-01 -0.13102796078E-01  0.22774286341E-01  0.00000000000E+00 0. -1.
     999901    1    3    3    0    0  0.83930455782E-01  0.11946970106E+00  0.58858621956E-02  0.89204931156E+00  0.88000000000E+00 0. -1.
        -11    1    4    4    0    0 -0.53301261019E-01 -0.72999738058E-01 -0.36760476513E-02  0.90464140023E-01  0.51100000000E-03 0. -1.
         11    1    4    4    0    0 -0.19531443713E-01 -0.31509188458E-01  0.10892981533E-01  0.38642262078E-01  0.51100000000E-03 0.  1.
</event>
<event>
 8    1  0.1064839E+005  0.1043930E+01  0.7957747E-01            NaN
         13   -1    0    0    0    0  0.00000000000E+00  0.00000000000E+00  0.74505805969E-08  0.10566000000E+00  0.10566000000E+00 0. -1.
     999900   -1    0    0    0    0 -0.00000000000E+00 -0.00000000000E+00 -0.74505805969E-08  0.93827000000E+00  0.93827000000E+00 0.  1.
     999902    2    1    2    0    0 -0.66904533958E-02 -0.18906315663E-01  0.12378936412E-01  0.10203620343E+01  0.10200898157E+01 0.  0.
     999903    2    3    3    0    0 -0.49687754895E-01 -0.12097973541E+00 -0.14092694304E-01  0.13302416285E+00  0.19795315130E-01 0.  0.
         14    1    1    2    0    0  0.66904533958E-02  0.18906315663E-01 -0.12378936412E-01  0.23567965658E-01  0.00000000000E+00 0.  1.
     999901    1    3    3    0    0  0.42997301499E-01  0.10207341975E+00  0.26471630716E-01  0.88733787149E+00  0.88000000000E+00 0.  1.
        -11    1    4    4    0    0 -0.18636762612E-01 -0.23723778578E-01 -0.38587166891E-02  0.30418701586E-01  0.51100000000E-03 0.  1.
         11    1    4    4    0    0 -0.31050992282E-01 -0.97255956836E-01 -0.10233977615E-01  0.10260546126E+00  0.51100000000E-03 0. -1.
</event>
<event>
 8    1  0.1064839E+005  0.1043930E+01  0.7957747E-01            NaN
         13   -1    0    0    0    0  0.00000000000E+00  0.00000000000E+00  0.74505805969E-08  0.10566000000E+00  0.10566000000E+00 0. -1.
     999900   -1    0    0    0    0 -0.00000000000E+00 -0.00000000000E+00 -0.74505805969E-08  0.93827000000E+00  0.93827000000E+00 0.  1.
     999902    2    1    2    0    0 -0.20799036399E-01 -0.11052371901E-01 -0.33049671320E-02  0.10201460212E+01  0.10198687302E+01 0.  0.
     999903    2    3    3    0    0 -0.11799725692E+00  0.53075933173E-01 -0.22171718777E-01  0.13227447199E+00  0.16264793369E-01 0.  0.
         14    1    1    2    0    0  0.20799036399E-01  0.11052371901E-01  0.33049671320E-02  0.23783978799E-01  0.00000000000E+00 0. -1.
     999901    1    3    3    0    0  0.97198220522E-01 -0.64128305074E-01  0.18866751645E-01  0.88787154921E+00  0.88000000000E+00 0.  1.
        -11    1    4    4    0    0 -0.85112482122E-01  0.30768716293E-01 -0.12397233264E-01  0.91349882479E-01  0.51100000000E-03 0.  1.
         11    1    4    4    0    0 -0.32884774798E-01  0.22307216880E-01 -0.97744855132E-02  0.40924589509E-01  0.51100000000E-03 0. -1.
</event>
<event>
 8    1  0.1064839E+005  0.1043930E+01  0.7957747E-01            NaN
         13   -1    0    0    0    0  0.00000000000E+00  0.00000000000E+00  0.74505805969E-08  0.10566000000E+00  0.10566000000E+00 0.  1.
     999900   -1    0    0    0    0 -0.00000000000E+00 -0.00000000000E+00 -0.74505805969E-08  0.93827000000E+00  0.93827000000E+00 0. -1.
     999902    2    1    2    0    0  0.15495316860E-01 -0.17508513671E-01 -0.81355887094E-02  0.10191743805E+01  0.10188736806E+01 0.  0.
     999903    2    3    3    0    0 -0.10709996256E+00 -0.66428483315E-01 -0.19206585196E-01  0.12926127631E+00  0.21364439180E-01 0.  0.
         14    1    1    2    0    0 -0.15495316860E-01  0.17508513671E-01  0.81355887094E-02  0.24755619548E-01  0.00000000000E+00 0. -1.
     999901    1    3    3    0    0  0.12259527942E+00  0.48919969645E-01  0.11070996487E-01  0.88991310415E+00  0.88000000000E+00 0.  1.
        -11    1    4    4    0    0 -0.51107473598E-01 -0.43142868285E-01 -0.56635495866E-02  0.67123899294E-01  0.51100000000E-03 0. -1.
         11    1    4    4    0    0 -0.55992488962E-01 -0.23285615030E-01 -0.13543035610E-01  0.62137377013E-01  0.51100000000E-03 0.  1.
</event>
<event>
 8    1  0.1064839E+005  0.1043930E+01  0.7957747E-01            NaN
         13   -1    0    0    0    0  0.00000000000E+00  0.00000000000E+00  0.74505805969E-08  0.10566000000E+00  0.10566000000E+00 0. -1.
     999900   -1    0    0    0    0 -0.00000000000E+00 -0.00000000000E+00 -0.74505805969E-08  0.93827000000E+00  0.93827000000E+00 0.  1.
     999902    2    1    2    0    0  0.95429766224E-02  0.83771830134E-02 -0.19410293638E-01  0.10207350631E+01  0.10204714910E+01 0.  0.
     999903    2    3    3    0    0  0.76055335386E-01 -0.59048589523E-01 -0.89429491785E-01  0.13288776950E+00  0.19757917802E-01 0.  0.
         14    1    1    2    0    0 -0.95429766224E-02 -0.83771830134E-02  0.19410293638E-01  0.23194936887E-01  0.00000000000E+00 0. -1.
     999901    1    3    3    0    0 -0.66512358764E-01  0.67425772536E-01  0.70019198147E-01  0.88784729362E+00  0.88000000000E+00 0. -1.
        -11    1    4    4    0    0  0.36852329624E-01 -0.40960246737E-01 -0.51268256302E-01  0.75263080170E-01  0.51100000000E-03 0. -1.
         11    1    4    4    0    0  0.39203005762E-01 -0.18088342786E-01 -0.38161235483E-01  0.57624689328E-01  0.51100000000E-03 0.  1.
</event>
<event>
 8    1  0.1064839E+005  0.1043930E+01  0.7957747E-01            NaN
         13   -1    0    0    0    0  0.00000000000E+00  0.00000000000E+00  0.74505805969E-08  0.10566000000E+00  0.10566000000E+00 0.  1.
     999900   -1    0    0    0    0 -0.00000000000E+00 -0.00000000000E+00 -0.74505805969E-08  0.93827000000E+00  0.93827000000E+00 0.  1.
     999902    2    1    2    0    0 -0.10155851376E-01 -0.12710340022E-01  0.16985259721E-01  0.10204099424E+01  0.10201388423E+01 0.  0.
     999903    2    3    3    0    0  0.68302590913E-01 -0.10029233329E+00  0.47876710635E-01  0.13205156066E+00  0.20533855196E-01 0.  0.
         14    1    1    2    0    0  0.10155851376E-01  0.12710340022E-01 -0.16985259721E-01  0.23520057577E-01  0.00000000000E+00 0. -1.
     999901    1    3    3    0    0 -0.78458442288E-01  0.87581993267E-01 -0.30891450914E-01  0.88835838176E+00  0.88000000000E+00 0.  1.
        -11    1    4    4    0    0  0.40398188776E-01 -0.60568534219E-01  0.17831500859E-01  0.74958552131E-01  0.51100000000E-03 0.  1.
         11    1    4    4    0    0  0.27904402137E-01 -0.39723799071E-01  0.30045209776E-01  0.57093008527E-01  0.51100000000E-03 0. -1.
</event>
<event>
 8    1  0.1064839E+005  0.1043930E+01  0.7957747E-01            NaN
         13   -1    0    0    0    0  0.00000000000E+00  0.00000000000E+00  0.74505805969E-08  0.10566000000E+00  0.10566000000E+00 0.  1.
     999900   -1    0    0    0    0 -0.00000000000E+00 -0.00000000000E+00 -0.74505805969E-08  0.93827000000E+00  0.93827000000E+00 0.  1.
     999902    2    1    2    0    0  0.64861719020E-02  0.54026955104E-02  0.21793286548E-01  0.10205589306E+01  0.10202912937E+01 0.  0.
     999903    2    3    3    0    0 -0.55606723263E-01 -0.93458158794E-01 -0.65378553496E-01  0.12857915180E+00  0.20777581773E-01 0.  0.
         14    1    1    2    0    0 -0.64861719020E-02 -0.54026955104E-02 -0.21793286548E-01  0.23371069366E-01  0.00000000000E+00 0. -1.
     999901    1    3    3    0    0  0.62092895165E-01  0.98860854305E-01  0.87171840044E-01  0.89197977883E+00  0.88000000000E+00 0. -1.
        -11    1    4    4    0    0 -0.32009955578E-01 -0.51716708883E-01 -0.48327180663E-01  0.77685473196E-01  0.51100000000E-03 0.  1.
         11    1    4    4    0    0 -0.23596767685E-01 -0.41741449911E-01 -0.17051372833E-01  0.50893678609E-01  0.51100000000E-03 0. -1.
</event>
<event>
 8    1  0.1064839E+005  0.1043930E+01  0.7957747E-01            NaN
         13   -1    0    0    0    0  0.00000000000E+00  0.00000000000E+00  0.74505805969E-08  0.10566000000E+00  0.10566000000E+00 0. -1.
     999900   -1    0    0    0    0 -0.00000000000E+00 -0.00000000000E+00 -0.74505805969E-08  0.93827000000E+00  0.93827000000E+00 0.  1.
     999902    2    1    2    0    0  0.73107744367E-02 -0.10134222051E-01 -0.19342084957E-01  0.10209024919E+01  0.10206427543E+01 0.  0.
     999903    2    3    3    0    0  0.59900617805E-01 -0.53163464150E-01  0.10059682890E+00  0.13017102261E+00  0.20256732456E-01 0.  0.
         14    1    1    2    0    0 -0.73107744367E-02  0.10134222051E-01  0.19342084957E-01  0.23027508114E-01  0.00000000000E+00 0. -1.
     999901    1    3    3    0    0 -0.52589843368E-01  0.43029242100E-01 -0.11993891385E+00  0.89073146928E+00  0.88000000000E+00 0.  1.
        -11    1    4    4    0    0  0.33720410874E-01 -0.38333155577E-01  0.51042273183E-01  0.72194679158E-01  0.51100000000E-03 0. -1.
         11    1    4    4    0    0  0.26180206931E-01 -0.14830308574E-01  0.49554555712E-01  0.57976343453E-01  0.51100000000E-03 0.  1.
</event>
<event>
 8    1  0.1064839E+005  0.1043930E+01  0.7957747E-01            NaN
         13   -1    0    0    0    0  0.00000000000E+00  0.00000000000E+00  0.74505805969E-08  0.10566000000E+00  0.10566000000E+00 0. -1.
     999900   -1    0    0    0    0 -0.00000000000E+00 -0.00000000000E+00 -0.74505805969E-08  0.93827000000E+00  0.93827000000E+00 0.  1.
     999902    2    1    2    0    0 -0.13331339837E-01  0.15409137048E-01 -0.12502535024E-01  0.10200243624E+01  0.10197441936E+01 0.  0.
     999903    2    3    3    0    0  0.12137240656E+00  0.22857821848E-01  0.30079990664E-01  0.12872539254E+00  0.20289892904E-01 0.  0.
         14    1    1    2    0    0  0.13331339837E-01 -0.15409137048E-01  0.12502535024E-01  0.23905637587E-01  0.00000000000E+00 0. -1.
     999901    1    3    3    0    0 -0.13470374639E+00 -0.74486848000E-02 -0.42582525688E-01  0.89129896987E+00  0.88000000000E+00 0.  1.
        -11    1    4    4    0    0  0.49307258541E-01  0.14670306789E-01  0.38206134452E-02  0.51587613379E-01  0.51100000000E-03 0.  1.
         11    1    4    4    0    0  0.72065148015E-01  0.81875150590E-02  0.26259377219E-01  0.77137779163E-01  0.51100000000E-03 0. -1.
</event>
<event>
 8    1  0.1064839E+005  0.1043930E+01  0.7957747E-01            NaN
         13   -1    0    0    0    0  0.00000000000E+00  0.00000000000E+00  0.74505805969E-08  0.10566000000E+00  0.10566000000E+00 0.  1.
     999900   -1    0    0    0    0 -0.00000000000E+00 -0.00000000000E+00 -0.74505805969E-08  0.93827000000E+00  0.93827000000E+00 0. -1.
     999902    2    1    2    0    0  0.12689395539E-01 -0.79066468503E-02  0.18538590286E-01  0.10201137208E+01  0.10198356673E+01 0.  0.
     999903    2    3    3    0    0  0.31373748039E-02 -0.20607188263E-01  0.12970750192E+00  0.13297727599E+00  0.20601469503E-01 0.  0.
         14    1    1    2    0    0 -0.12689395539E-01  0.79066468503E-02 -0.18538590286E-01  0.23816279167E-01  0.00000000000E+00 0. -1.
     999901    1    3    3    0    0  0.95520207352E-02  0.12700541412E-01 -0.11116891164E+00  0.88713644484E+00  0.88000000000E+00 0. -1.
        -11    1    4    4    0    0 -0.62275800000E-02 -0.15174925928E-01  0.52291223242E-01  0.54805969371E-01  0.51100000000E-03 0. -1.
         11    1    4    4    0    0  0.93649548039E-02 -0.54322623343E-02  0.77416278682E-01  0.78171306619E-01  0.51100000000E-03 0.  1.
</event>
<event>
 8    1  0.1064839E+005  0.1043930E+01  0.7957747E-01            NaN
         13   -1    0    0    0    0  0.00000000000E+00  0.00000000000E+00  0.74505805969E-08  0.10566000000E+00  0.10566000000E+00 0.  1.
     999900   -1    0    0    0    0 -0.00000000000E+00 -0.00000000000E+00 -0.74505805969E-08  0.93827000000E+00  0.93827000000E+00 0. -1.
     999902    2    1    2    0    0 -0.21660400389E-01  0.83751208416E-02 -0.15526529432E-02  0.10206549850E+01  0.10203895687E+01 0.  0.
     999903    2    3    3    0    0  0.76489751687E-01 -0.98772997107E-01  0.21996864721E-01  0.12842813526E+00  0.20078266830E-01 0.  0.
         14    1    1    2    0    0  0.21660400389E-01 -0.83751208416E-02  0.15526529432E-02  0.23275015043E-01  0.00000000000E+00 0.  1.
     999901    1    3    3    0    0 -0.98150152076E-01  0.10714811795E+00 -0.23549517665E-01  0.89222684969E+00  0.88000000000E+00 0.  1.
        -11    1    4    4    0    0  0.57041763467E-01 -0.62273888150E-01  0.82975697919E-02  0.84858179984E-01  0.51100000000E-03 0.  1.
         11    1    4    4    0    0  0.19447988221E-01 -0.36499108956E-01  0.13699294930E-01  0.43569955279E-01  0.51100000000E-03 0. -1.
</event>
<event>
 8    1  0.1064839E+005  0.1043930E+01  0.7957747E-01            NaN
         13   -1    0    0    0    0  0.00000000000E+00  0.00000000000E+00  0.74505805969E-08  0.10566000000E+00  0.10566000000E+00 0. -1.
     999900   -1    0    0    0    0 -0.00000000000E+00 -0.00000000000E+00 -0.74505805969E-08  0.93827000000E+00  0.93827000000E+00 0. -1.
     999902    2    1    2    0    0  0.18732954008E-01  0.14460616469E-01 -0.33578737775E-02  0.10200279434E+01  0.10197478595E+01 0.  0.
     999903    2    3    3    0    0  0.28233670444E-01 -0.12449990490E+00 -0.16335390173E-02  0.12907156765E+00  0.18958762086E-01 0.  0.
         14    1    1    2    0    0 -0.18732954008E-01 -0.14460616469E-01  0.33578737775E-02  0.23902056623E-01  0.00000000000E+00 0. -1.
     999901    1    3    3    0    0 -0.95007164360E-02  0.13896052137E+00 -0.17243347602E-02  0.89095637572E+00  0.88000000000E+00 0.  1.
        -11    1    4    4    0    0  0.25793783582E-01 -0.78151645659E-01  0.34940172984E-02  0.82373953824E-01  0.51100000000E-03 0. -1.
         11    1    4    4    0    0  0.24398868621E-02 -0.46348259241E-01 -0.51275563157E-02  0.46697613830E-01  0.51100000000E-03 0.  1.
</event>
<event>
 8    1  0.1064839E+005  0.1043930E+01  0.7957747E-01            NaN
         13   -1    0    0    0    0  0.00000000000E+00  0.00000000000E+00  0.74505805969E-08  0.10566000000E+00  0.10566000000E+00 0. -1.
     999900   -1    0    0    0    0 -0.00000000000E+00 -0.00000000000E+00 -0.74505805969E-08  0.93827000000E+00  0.93827000000E+00 0. -1.
     999902    2    1    2    0    0 -0.58841122574E-02 -0.16410852755E-01  0.16461848383E-01  0.10199522746E+01  0.10196703933E+01 0.  0.
     999903    2    3    3    0    0  0.29563919248E-02  0.11507802154E+00 -0.51177779566E-01  0.12757197567E+00  0.20093594972E-01 0.  0.
         14    1    1    2    0    0  0.58841122574E-02  0.16410852755E-01 -0.16461848383E-01  0.23977725442E-01  0.00000000000E+00 0. -1.
     999901    1    3    3    0    0 -0.88405041822E-02 -0.13148887430E+00  0.67639627949E-01  0.89238029889E+00  0.88000000000E+00 0.  1.
        -11    1    4    4    0    0  0.90124461658E-02  0.10140392135E+00 -0.42937458026E-01  0.11048921157E+00  0.51100000000E-03 0. -1.
         11    1    4    4    0    0 -0.60560542410E-02  0.13674100193E-01 -0.82403215398E-02  0.17082764095E-01  0.51100000000E-03 0.  1.
</event>
<event>
 8    1  0.1064839E+005  0.1043930E+01  0.7957747E-01            NaN
         13   -1    0    0    0    0  0.00000000000E+00  0.00000000000E+00  0.74505805969E-08  0.10566000000E+00  0.10566000000E+00 0. -1.
     999900   -1    0    0    0    0 -0.00000000000E+00 -0.00000000000E+00 -0.74505805969E-08  0.93827000000E+00  0.93827000000E+00 0.  1.
     999902    2    1    2    0    0 -0.83958962888E-02  0.57076496262E-02 -0.21186107994E-01  0.10204370327E+01  0.10201665640E+01 0.  0.
     999903    2    3    3    0    0  0.24487037481E-01  0.11985253344E+00  0.40239683586E-01  0.13033396584E+00  0.20086456661E-01 0.  0.
         14    1    1    2    0    0  0.83958962888E-02 -0.57076496262E-02  0.21186107994E-01  0.23492967260E-01  0.00000000000E+00 0. -1.
     999901    1    3    3    0    0 -0.32882933770E-01 -0.11414488381E+00 -0.61425791580E-01  0.89010306690E+00  0.88000000000E+00 0.  1.
        -11    1    4    4    0    0  0.13854994762E-01  0.59470817309E-01  0.96820428884E-02  0.61828327381E-01  0.51100000000E-03 0.  1.
         11    1    4    4    0    0  0.10632042720E-01  0.60381716126E-01  0.30557640697E-01  0.68505638459E-01  0.51100000000E-03 0. -1.
</event>
<event>
 7    1  0.1064839E+005  0.1043930E+01  0.7957747E-01            NaN
         13   -1    0    0    0    0  0.00000000000E+00  0.00000000000E+00  0.74505805969E-08  0.10566000000E+00  0.10566000000E+00 0.  1.
     999900   -1    0    0    0    0 -0.00000000000E+00 -0.00000000000E+00 -0.74505805969E-08  0.93827000000E+00  0.93827000000E+00 0.  1.
     999903    2    1    2    0    0 -0.57152090077E-01  0.26314125985E-01  0.93383331016E-01  0.11436137654E+00  0.19982074625E-01 0.  0.
         14    1    1    2    0    0 -0.36248288697E-01  0.11661485447E-01  0.48302667172E-02  0.38383071175E-01  0.00000000000E+00 0.  1.
     999901    1    1    2    0    0  0.93400378774E-01 -0.37975611431E-01 -0.98213597733E-01  0.89118555228E+00  0.88000000000E+00 0.  1.
        -11    1    3    3    0    0 -0.59064448200E-02  0.11052770638E-01  0.17999768656E-01  0.21938610299E-01  0.51100000000E-03 0. -1.
         11    1    3    3    0    0 -0.51245645257E-01  0.15261355347E-01  0.75383562360E-01  0.92422766242E-01  0.51100000000E-03 0.  1.
</event>
<event>
 8    1  0.1064839E+005  0.1043930E+01  0.7957747E-01            NaN
         13   -1    0    0    0    0  0.00000000000E+00  0.00000000000E+00  0.74505805969E-08  0.10566000000E+00  0.10566000000E+00 0. -1.
     999900   -1    0    0    0    0 -0.00000000000E+00 -0.00000000000E+00 -0.74505805969E-08  0.93827000000E+00  0.93827000000E+00 0. -1.
     999902    2    1    2    0    0 -0.21078793463E-01 -0.13952528278E-01  0.16645277990E-01  0.10136636183E+01  0.10132116646E+01 0.  0.
     999903    2    3    3    0    0  0.42187832393E-01  0.49773274276E-02  0.11646064421E+00  0.12556220932E+00  0.19954943477E-01 0.  0.
         14    1    1    2    0    0  0.21078793463E-01  0.13952528278E-01 -0.16645277990E-01  0.30266381656E-01  0.00000000000E+00 0.  1.
     999901    1    3    3    0    0 -0.63266625856E-01 -0.18929855705E-01 -0.99815366216E-01  0.88810140903E+00  0.88000000000E+00 0. -1.
        -11    1    4    4    0    0  0.18750292404E-01 -0.31324957771E-02  0.73827451140E-01  0.76237390156E-01  0.51100000000E-03 0. -1.
         11    1    4    4    0    0  0.23437539990E-01  0.81098232047E-02  0.42633193066E-01  0.49324819160E-01  0.51100000000E-03 0.  1.
</event>
<event>
 8    1  0.1064839E+005  0.1043930E+01  0.7957747E-01            NaN
         13   -1    0    0    0    0  0.00000000000E+00  0.00000000000E+00  0.74505805969E-08  0.10566000000E+00  0.10566000000E+00 0.  1.
     999900   -1    0    0    0    0 -0.00000000000E+00 -0.00000000000E+00 -0.74505805969E-08  0.93827000000E+00  0.93827000000E+00 0.  1.
     999902    2    1    2    0    0 -0.72762112960E-02  0.12554598634E-03  0.22429547300E-01  0.10203494231E+01  0.10200769097E+01 0.  0.
     999903    2    3    3    0    0 -0.11568766768E+00  0.50247326408E-01  0.33907248262E-01  0.13220699405E+00  0.20507499284E-01 0.  0.
         14    1    1    2    0    0  0.72762112960E-02 -0.12554598634E-03 -0.22429547300E-01  0.23580576852E-01  0.00000000000E+00 0. -1.
     999901    1    3    3    0    0  0.10841145638E+00 -0.50121780422E-01 -0.11477700963E-01  0.88814242910E+00  0.88000000000E+00 0.  1.
        -11    1    4    4    0    0 -0.43296251943E-01  0.28403857872E-01  0.18830863815E-01  0.55101788785E-01  0.51100000000E-03 0. -1.
         11    1    4    4    0    0 -0.72391415734E-01  0.21843468536E-01  0.15076384447E-01  0.77105205263E-01  0.51100000000E-03 0.  1.
</event>
<event>
 8    1  0.1064839E+005  0.1043930E+01  0.7957747E-01            NaN
         13   -1    0    0    0    0  0.00000000000E+00  0.00000000000E+00  0.74505805969E-08  0.10566000000E+00  0.10566000000E+00 0. -1.
     999900   -1    0    0    0    0 -0.00000000000E+00 -0.00000000000E+00 -0.74505805969E-08  0.93827000000E+00  0.93827000000E+00 0. -1.
     999902    2    1    2    0    0 -0.97684576055E-02  0.25475239752E-01 -0.58493364569E-02  0.10160261411E+01  0.10156428969E+01 0.  0.
     999903    2    3    3    0    0 -0.52320337552E-01  0.21205988790E-01 -0.11359155310E+00  0.12842416147E+00  0.20065209520E-01 0.  0.
         14    1    1    2    0    0  0.97684576055E-02 -0.25475239752E-01  0.58493364569E-02  0.27903858898E-01  0.00000000000E+00 0. -1.
     999901    1    3    3    0    0  0.42551879947E-01  0.42692509628E-02  0.10774221664E+00  0.88760197963E+00  0.88000000000E+00 0.  1.
        -11    1    4    4    0    0 -0.24430505303E-01  0.10153364005E-01 -0.32197330685E-01  0.41675767710E-01  0.51100000000E-03 0. -1.
         11    1    4    4    0    0 -0.27889832250E-01  0.11052624785E-01 -0.81394222413E-01  0.86748393765E-01  0.51100000000E-03 0.  1.
</event>
<event>
 8    1  0.1064839E+005  0.1043930E+01  0.7957747E-01            NaN
         13   -1    0    0    0    0  0.00000000000E+00  0.00000000000E+00  0.74505805969E-08  0.10566000000E+00  0.10566000000E+00 0. -1.
     999900   -1    0    0    0    0 -0.00000000000E+00 -0.00000000000E+00 -0.74505805969E-08  0.93827000000E+00  0.93827000000E+00 0. -1.
     999902    2    1    2    0    0  0.18273775542E-01  0.55219699189E-03 -0.99688502251E-02  0.10231066053E+01  0.10228946729E+01 0.  0.
     999903    2    3    3    0    0 -0.52161702691E-01  0.31996165710E-02  0.11839011262E+00  0.13100560830E+00  0.20375717542E-01 0.  0.
         14    1    1    2    0    0 -0.18273775542E-01 -0.55219699189E-03  0.99688502251E-02  0.20823394749E-01  0.00000000000E+00 0. -1.
     999901    1    3    3    0    0  0.70435478233E-01 -0.26474195791E-02 -0.12835896284E+00  0.89210099695E+00  0.88000000000E+00 0. -1.
        -11    1    4    4    0    0 -0.15418666047E-01  0.97991035281E-02  0.31205962781E-01  0.36163945121E-01  0.51100000000E-03 0.  1.
         11    1    4    4    0    0 -0.36743036644E-01 -0.65994869571E-02  0.87184149839E-01  0.94841663176E-01  0.51100000000E-03 0. -1.
</event>
<event>
 8    1  0.1064839E+005  0.1043930E+01  0.7957747E-01            NaN
         13   -1    0    0    0    0  0.00000000000E+00  0.00000000000E+00  0.74505805969E-08  0.10566000000E+00  0.10566000000E+00 0.  1.
     999900   -1    0    0    0    0 -0.00000000000E+00 -0.00000000000E+00 -0.74505805969E-08  0.93827000000E+00  0.93827000000E+00 0. -1.
     999902    2    1    2    0    0 -0.17644749481E-01  0.32722457109E-02 -0.15541210917E-01  0.10201902862E+01  0.10199140385E+01 0.  0.
     999903    2    3    3    0    0  0.63387209380E-01 -0.89342549826E-01  0.63203707056E-01  0.12814519716E+00  0.20650749320E-01 0.  0.
         14    1    1    2    0    0  0.17644749481E-01 -0.32722457109E-02  0.15541210917E-01  0.23739713835E-01  0.00000000000E+00 0.  1.
     999901    1    3    3    0    0 -0.81031958860E-01  0.92614795537E-01 -0.78744917973E-01  0.89204508900E+00  0.88000000000E+00 0. -1.
        -11    1    4    4    0    0  0.40244931973E-01 -0.48470819119E-01  0.25718845089E-01  0.68049944667E-01  0.51100000000E-03 0.  1.
         11    1    4    4    0    0  0.23142277407E-01 -0.40871730707E-01  0.37484861967E-01  0.60095252494E-01  0.51100000000E-03 0. -1.
</event>
<event>
 8    1  0.1064839E+005  0.1043930E+01  0.7957747E-01            NaN
         13   -1    0    0    0    0  0.00000000000E+00  0.00000000000E+00  0.74505805969E-08  0.10566000000E+00  0.10566000000E+00 0.  1.
     999900   -1    0    0    0    0 -0.00000000000E+00 -0.00000000000E+00 -0.74505805969E-08  0.93827000000E+00  0.93827000000E+00 0.  1.
     999902    2    1    2    0    0 -0.29101391140E-02  0.22063597038E-01 -0.94076983816E-02  0.10197685428E+01  0.10194822730E+01 0.  0.
     999903    2    3    3    0    0  0.85656759471E-01 -0.37425402868E-02  0.94314155502E-01  0.12888792500E+00  0.19127211805E-01 0.  0.
         14    1    1    2    0    0  0.29101391140E-02 -0.22063597038E-01  0.94076983816E-02  0.24161457174E-01  0.00000000000E+00 0.  1.
     999901    1    3    3    0    0 -0.88566898585E-01  0.25806137325E-01 -0.10372185388E+00  0.89088061783E+00  0.88000000000E+00 0.  1.
        -11    1    4    4    0    0  0.18746419138E-01  0.41471302646E-02  0.12562497444E-01  0.22950041023E-01  0.51100000000E-03 0. -1.
         11    1    4    4    0    0  0.66910340333E-01 -0.78896705514E-02  0.81751658059E-01  0.10593788398E+00  0.51100000000E-03 0.  1.
</event>
<event>
 8    1  0.1064839E+005  0.1043930E+01  0.7957747E-01            NaN
         13   -1    0    0    0    0  0.00000000000E+00  0.00000000000E+00  0.74505805969E-08  0.10566000000E+00  0.10566000000E+00 0. -1.
     999900   -1    0    0    0    0 -0.00000000000E+00 -0.00000000000E+00 -0.74505805969E-08  0.93827000000E+00  0.93827000000E+00 0. -1.
     999902    2    1    2    0    0  0.34180140747E-02  0.22764226124E-01 -0.57711001842E-02  0.10201981984E+01  0.10199221370E+01 0.  0.
     999903    2    3    3    0    0 -0.61580672976E-01 -0.57052575171E-01 -0.96554956071E-01  0.12955951766E+00  0.20387090444E-01 0.  0.
         14    1    1    2    0    0 -0.34180140747E-02 -0.22764226124E-01  0.57711001842E-02  0.23731801629E-01  0.00000000000E+00 0. -1.
     999901    1    3    3    0    0  0.64998687051E-01  0.79816801295E-01  0.90783855887E-01  0.89063868071E+00  0.88000000000E+00 0.  1.
        -11    1    4    4    0    0 -0.41881487209E-01 -0.41736066023E-01 -0.53226236339E-01  0.79556593276E-01  0.51100000000E-03 0. -1.
         11    1    4    4    0    0 -0.19699185767E-01 -0.15316509148E-01 -0.43328719732E-01  0.50002924385E-01  0.51100000000E-03 0.  1.
</event>
<event>
 8    1  0.1064839E+005  0.1043930E+01  0.7957747E-01            NaN
         13   -1    0    0    0    0  0.00000000000E+00  0.00000000000E+00  0.74505805969E-08  0.10566000000E+00  0.10566000000E+00 0. -1.
     999900   -1    0    0    0    0 -0.00000000000E+00 -0.00000000000E+00 -0.74505805969E-08  0.93827000000E+00  0.93827000000E+00 0.  1.
     999902    2    1    2    0    0  0.63696453927E-02 -0.15539313306E-01  0.18146203486E-01  0.10192049653E+01  0.10189050171E+01 0.  0.
     999903    2    3    3    0    0 -0.12691994786E+00 -0.39092206387E-02  0.11256972349E-01  0.12906518063E+00  0.20177865482E-01 0.  0.
         14    1    1    2    0    0 -0.63696453927E-02  0.15539313306E-01 -0.18146203486E-01  0.24725034710E-01  0.00000000000E+00 0.  1.
     999901    1    3    3    0    0  0.13328959325E+00 -0.11630092668E-01  0.68892311369E-02  0.89013978466E+00  0.88000000000E+00 0. -1.
        -11    1    4    4    0    0 -0.52219041344E-01  0.34320630259E-02 -0.39306443472E-02  0.52481600790E-01  0.51100000000E-03 0. -1.
         11    1    4    4    0    0 -0.74700906512E-01 -0.73412836646E-02  0.15187616696E-01  0.76583579842E-01  0.51100000000E-03 0.  1.
</event>
<event>
 8    1  0.1064839E+005  0.1043930E+01  0.7957747E-01            NaN
         13   -1    0    0    0    0  0.00000000000E+00  0.00000000000E+00  0.74505805969E-08  0.10566000000E+00  0.10566000000E+00 0. -1.
     999900   -1    0    0    0    0 -0.00000000000E+00 -0.00000000000E+00 -0.74505805969E-08  0.93827000000E+00  0.93827000000E+00 0.  1.
     999902    2    1    2    0    0  0.10013029362E-01  0.69047191457E-02 -0.20396040833E-01  0.10201826973E+01  0.10199062709E+01 0.  0.
     999903    2    3    3    0    0  0.11516485461E+00  0.95440639948E-02  0.57406030981E-01  0.13051026609E+00  0.19581732962E-01 0.  0.
         14    1    1    2    0    0 -0.10013029362E-01 -0.69047191457E-02  0.20396040833E-01  0.23747302692E-01  0.00000000000E+00 0. -1.
     999901    1    3    3    0    0 -0.10515182525E+00 -0.26393448491E-02 -0.77802071814E-01  0.88967243122E+00  0.88000000000E+00 0.  1.
        -11    1    4    4    0    0  0.25283182181E-01  0.70147371865E-03  0.21914605226E-01  0.33470022555E-01  0.51100000000E-03 0. -1.
         11    1    4    4    0    0  0.89881672431E-01  0.88425902762E-02  0.35491425754E-01  0.97040243533E-01  0.51100000000E-03 0.  1.
</event>
<event>
 8    1  0.1064839E+005  0.1043930E+01  0.7957747E-01            NaN
         13   -1    0    0    0    0  0.00000000000E+00  0.00000000000E+00  0.74505805969E-08  0.10566000000E+00  0.10566000000E+00 0.  1.
     999900   -1    0    0    0    0 -0.00000000000E+00 -0.00000000000E+00 -0.74505805969E-08  0.93827000000E+00  0.93827000000E+00 0.  1.
     999902    2    1    2    0    0  0.18455046815E-01 -0.11091914445E-01  0.83581667907E-02  0.10208328515E+01  0.10205715224E+01 0.  0.
     999903    2    3    3    0    0  0.11268831513E+00  0.38305608589E-01 -0.53662279034E-01  0.13225727231E+00  0.21127467259E-01 0.  0.
         14    1    1    2    0    0 -0.18455046815E-01  0.11091914445E-01 -0.83581667907E-02  0.23097148549E-01  0.00000000000E+00 0. -1.
     999901    1    3    3    0    0 -0.94233268315E-01 -0.49397523034E-01  0.62020445825E-01  0.88857557914E+00  0.88000000000E+00 0.  1.
        -11    1    4    4    0    0  0.72617429266E-01  0.22848792558E-01 -0.23150154460E-01  0.79571031959E-01  0.51100000000E-03 0. -1.
         11    1    4    4    0    0  0.40070885864E-01  0.15456816030E-01 -0.30512124574E-01  0.52686240355E-01  0.51100000000E-03 0.  1.
</event>
<event>
 8    1  0.1064839E+005  0.1043930E+01  0.7957747E-01            NaN
         13   -1    0    0    0    0  0.00000000000E+00  0.00000000000E+00  0.74505805969E-08  0.10566000000E+00  0.10566000000E+00 0. -1.
     999900   -1    0    0    0    0 -0.00000000000E+00 -0.00000000000E+00 -0.74505805969E-08  0.93827000000E+00  0.93827000000E+00 0.  1.
     999902    2    1    2    0    0  0.10688172171E-01  0.10452905741E-01  0.17602753188E-01  0.10208354729E+01  0.10205742038E+01 0.  0.
     999903    2    3    3    0    0  0.24166804914E-01 -0.53134234249E-01 -0.11308215666E+00  0.12881330748E+00  0.19950256137E-01 0.  0.
         14    1    1    2    0    0 -0.10688172171E-01 -0.10452905741E-01 -0.17602753188E-01  0.23094527114E-01  0.00000000000E+00 0.  1.
     999901    1    3    3    0    0 -0.13478632743E-01  0.63587139989E-01  0.13068490985E+00  0.89202216541E+00  0.88000000000E+00 0. -1.
        -11    1    4    4    0    0  0.14845504548E-01 -0.48331037844E-01 -0.85928631170E-01  0.99700897690E-01  0.51100000000E-03 0.  1.
         11    1    4    4    0    0  0.93213003665E-02 -0.48031964043E-02 -0.27153525491E-01  0.29112409791E-01  0.51100000000E-03 0. -1.
</event>
<event>
 8    1  0.1064839E+005  0.1043930E+01  0.7957747E-01            NaN
         13   -1    0    0    0    0  0.00000000000E+00  0.00000000000E+00  0.74505805969E-08  0.10566000000E+00  0.10566000000E+00 0. -1.
     999900   -1    0    0    0    0 -0.00000000000E+00 -0.00000000000E+00 -0.74505805969E-08  0.93827000000E+00  0.93827000000E+00 0. -1.
     999902    2    1    2    0    0  0.12100683617E-01  0.91150153842E-02  0.14218704686E-01  0.10231530509E+01  0.10229420727E+01 0.  0.
     999903    2    3    3    0    0 -0.90422508402E-01 -0.73407780259E-01  0.59437596790E-01  0.13221771944E+00  0.19589925824E-01 0.  0.
         14    1    1    2    0    0 -0.12100683617E-01 -0.91150153842E-02 -0.14218704686E-01  0.20776949064E-01  0.00000000000E+00 0.  1.
     999901    1    3    3    0    0  0.10252319202E+00  0.82522795643E-01 -0.45218892104E-01  0.89093533149E+00  0.88000000000E+00 0. -1.
        -11    1    4    4    0    0 -0.55694194585E-01 -0.53661124267E-01  0.46396642453E-01  0.90190183058E-01  0.51100000000E-03 0. -1.
         11    1    4    4    0    0 -0.34728313817E-01 -0.19746655992E-01  0.13040954337E-01  0.42027536384E-01  0.51100000000E-03 0.  1.
</event>
<event>
 7    1  0.1064839E+005  0.1043930E+01  0.7957747E-01            NaN
         13   -1    0    0    0    0  0.00000000000E+00  0.00000000000E+00  0.74505805969E-08  0.10566000000E+00  0.10566000000E+00 0.  1.
     999900   -1    0    0    0    0 -0.00000000000E+00 -0.00000000000E+00 -0.74505805969E-08  0.93827000000E+00  0.93827000000E+00 0.  1.
     999903    2    1    2    0    0  0.45721910002E-01 -0.36933861976E-01  0.80041269693E-01  0.10197145868E+00  0.23172619997E-01 0.  0.
         14    1    1    2    0    0 -0.23545301715E-03  0.26282851583E-01  0.44779349505E-01  0.51923346074E-01  0.00000000000E+00 0.  1.
     999901    1    1    2    0    0 -0.45486456985E-01  0.10651010394E-01 -0.12482061920E+00  0.89003519524E+00  0.88000000000E+00 0.  1.
        -11    1    3    3    0    0  0.18359987087E-01 -0.68581149952E-02  0.41717470247E-01  0.46094807863E-01  0.51100000000E-03 0. -1.
         11    1    3    3    0    0  0.27361922915E-01 -0.30075746981E-01  0.38323799446E-01  0.55876650822E-01  0.51100000000E-03 0.  1.
</event>
<event>
 8    1  0.1064839E+005  0.1043930E+01  0.7957747E-01            NaN
         13   -1    0    0    0    0  0.00000000000E+00  0.00000000000E+00  0.74505805969E-08  0.10566000000E+00  0.10566000000E+00 0. -1.
     999900   -1    0    0    0    0 -0.00000000000E+00 -0.00000000000E+00 -0.74505805969E-08  0.93827000000E+00  0.93827000000E+00 0.  1.
     999902    2    1    2    0    0  0.14973306404E-01 -0.88423963425E-02  0.16069658793E-01  0.10202525463E+01  0.10199777628E+01 0.  0.
     999903    2    3    3    0    0 -0.69038470166E-01 -0.69602277306E-01 -0.81244932177E-01  0.12883801239E+00  0.19690278379E-01 0.  0.
         14    1    1    2    0    0 -0.14973306404E-01  0.88423963425E-02 -0.16069658793E-01  0.23677453653E-01  0.00000000000E+00 0.  1.
     999901    1    3    3    0    0  0.84011776571E-01  0.60759880964E-01  0.97314590970E-01  0.89141453396E+00  0.88000000000E+00 0. -1.
        -11    1    4    4    0    0 -0.57852892101E-01 -0.46249046525E-01 -0.61443146043E-01  0.96236441879E-01  0.51100000000E-03 0. -1.
         11    1    4    4    0    0 -0.11185578066E-01 -0.23353230781E-01 -0.19801786135E-01  0.32601570510E-01  0.51100000000E-03 0.  1.
</event>
<event>
 8    1  0.1064839E+005  0.1043930E+01  0.7957747E-01            NaN
         13   -1    0    0    0    0  0.00000000000E+00  0.00000000000E+00  0.74505805969E-08  0.10566000000E+00  0.10566000000E+00 0.  1.
     999900   -1    0    0    0    0 -0.00000000000E+00 -0.00000000000E+00 -0.74505805969E-08  0.93827000000E+00  0.93827000000E+00 0.  1.
     999902    2    1    2    0    0  0.79595327868E-02  0.70639081962E-02  0.20998976250E-01  0.10203883356E+01  0.10201167312E+01 0.  0.
     999903    2    3    3    0    0 -0.43859335548E-01 -0.10829216680E+00  0.55172140215E-01  0.13069174441E+00  0.19634976365E-01 0.  0.
         14    1    1    2    0    0 -0.79595327868E-02 -0.70639081962E-02 -0.20998976250E-01  0.23541664443E-01  0.00000000000E+00 0. -1.
     999901    1    3    3    0    0  0.51818868335E-01  0.11535607500E+00 -0.34173163965E-01  0.88969659114E+00  0.88000000000E+00 0.  1.
        -11    1    4    4    0    0 -0.13435914457E-01 -0.29696791161E-01  0.60939071077E-02  0.33163534603E-01  0.51100000000E-03 0. -1.
         11    1    4    4    0    0 -0.30423421090E-01 -0.78595375642E-01  0.49078233107E-01  0.97528209811E-01  0.51100000000E-03 0.  1.
</event>
<event>
 8    1  0.1064839E+005  0.1043930E+01  0.7957747E-01            NaN
         13   -1    0    0    0    0  0.00000000000E+00  0.00000000000E+00  0.74505805969E-08  0.10566000000E+00  0.10566000000E+00 0.  1.
     999900   -1    0    0    0    0 -0.00000000000E+00 -0.00000000000E+00 -0.74505805969E-08  0.93827000000E+00  0.93827000000E+00 0. -1.
     999902    2    1    2    0    0  0.17887218507E-01  0.30082345082E-01  0.61636022030E-02  0.10083928355E+01  0.10077664514E+01 0.  0.
     999903    2    3    3    0    0  0.79832718943E-01 -0.76086500189E-01  0.36355419934E-01  0.11933681102E+00  0.27516165813E-01 0.  0.
         14    1    1    2    0    0 -0.17887218507E-01 -0.30082345082E-01 -0.61636022030E-02  0.35537164542E-01  0.00000000000E+00 0.  1.
     999901    1    3    3    0    0 -0.61945500437E-01  0.10616884527E+00 -0.30191817731E-01  0.88905602444E+00  0.88000000000E+00 0.  1.
        -11    1    4    4    0    0  0.43973139398E-01 -0.51208929755E-01  0.96981708066E-02  0.68193160311E-01  0.51100000000E-03 0. -1.
         11    1    4    4    0    0  0.35859579545E-01 -0.24877570434E-01  0.26657249128E-01  0.51143650710E-01  0.51100000000E-03 0.  1.
</event>
<event>
 8    1  0.1064839E+005  0.1043930E+01  0.7957747E-01            NaN
         13   -1    0    0    0    0  0.00000000000E+00  0.00000000000E+00  0.74505805969E-08  0.10566000000E+00  0.10566000000E+00 0.  1.
     999900   -1    0    0    0    0 -0.00000000000E+00 -0.00000000000E+00 -0.74505805969E-08  0.93827000000E+00  0.93827000000E+00 0. -1.
     999902    2    1    2    0    0 -0.73398180992E-02 -0.20816991013E-01  0.81804398556E-02  0.10203898292E+01  0.10201182598E+01 0.  0.
     999903    2    3    3    0    0  0.86054718669E-01  0.92335812391E-01 -0.87777578557E-02  0.12808176756E+00  0.19914148068E-01 0.  0.
         14    1    1    2    0    0  0.73398180992E-02  0.20816991013E-01 -0.81804398556E-02  0.23540170789E-01  0.00000000000E+00 0. -1.
     999901    1    3    3    0    0 -0.93394536769E-01 -0.11315280340E+00  0.16958197711E-01  0.89230806165E+00  0.88000000000E+00 0. -1.
        -11    1    4    4    0    0  0.49273238165E-01  0.51588541095E-01  0.48984962764E-02  0.71508642542E-01  0.51100000000E-03 0.  1.
         11    1    4    4    0    0  0.36781480505E-01  0.40747271296E-01 -0.13676254132E-01  0.56573125018E-01  0.51100000000E-03 0. -1.
</event>
<event>
 8    1  0.1064839E+005  0.1043930E+01  0.7957747E-01            NaN
         13   -1    0    0    0    0  0.00000000000E+00  0.00000000000E+00  0.74505805969E-08  0.10566000000E+00  0.10566000000E+00 0. -1.
     999900   -1    0    0    0    0 -0.00000000000E+00 -0.00000000000E+00 -0.74505805969E-08  0.93827000000E+00  0.93827000000E+00 0.  1.
     999902    2    1    2    0    0 -0.26959571678E-02  0.14357105556E-01  0.18007074049E-01  0.10207427324E+01  0.10204793365E+01 0.  0.
     999903    2    3    3    0    0 -0.43557570224E-01 -0.46389106794E-02 -0.11935991211E+00  0.12894667443E+00  0.21486619365E-01 0.  0.
         14    1    1    2    0    0  0.26959571678E-02 -0.14357105556E-01 -0.18007074049E-01  0.23187267644E-01  0.00000000000E+00 0.  1.
     999901    1    3    3    0    0  0.40861613056E-01  0.18996016235E-01  0.13736698615E+00  0.89179605793E+00  0.88000000000E+00 0. -1.
        -11    1    4    4    0    0 -0.38912466297E-02  0.64318446443E-02 -0.21073371021E-01  0.22379868477E-01  0.51100000000E-03 0.  1.
         11    1    4    4    0    0 -0.39666323594E-01 -0.11070755324E-01 -0.98286541084E-01  0.10656680595E+00  0.51100000000E-03 0. -1.
</event>
<event>
 8    1  0.1064839E+005  0.1043930E+01  0.7957747E-01            NaN
         13   -1    0    0    0    0  0.00000000000E+00  0.00000000000E+00  0.74505805969E-08  0.10566000000E+00  0.10566000000E+00 0.  1.
     999900   -1    0    0    0    0 -0.00000000000E+00 -0.00000000000E+00 -0.74505805969E-08  0.93827000000E+00  0.93827000000E+00 0. -1.
     999902    2    1    2    0    0 -0.16723944409E-01 -0.16393345075E-01  0.46172930653E-02  0.10200605326E+01  0.10197812210E+01 0.  0.
     999903    2    3    3    0    0 -0.11154922354E+00  0.61850669624E-01 -0.23775053237E-01  0.13106104736E+00  0.18520539274E-01 0.  0.
         14    1    1    2    0    0  0.16723944409E-01  0.16393345075E-01 -0.46172930653E-02  0.23869467413E-01  0.00000000000E+00 0. -1.
     999901    1    3    3    0    0  0.94825279129E-01 -0.78244014699E-01  0.28392346302E-01  0.88899948522E+00  0.88000000000E+00 0.  1.
        -11    1    4    4    0    0 -0.63966538038E-01  0.30476273469E-01 -0.49296061844E-02  0.71028750315E-01  0.51100000000E-03 0. -1.
         11    1    4    4    0    0 -0.47582685500E-01  0.31374396154E-01 -0.18845447053E-01  0.60032297050E-01  0.51100000000E-03 0.  1.
</event>
<event>
 8    1  0.1064839E+005  0.1043930E+01  0.7957747E-01            NaN
         13   -1    0    0    0    0  0.00000000000E+00  0.00000000000E+00  0.74505805969E-08  0.10566000000E+00  0.10566000000E+00 0.  1.
     999900   -1    0    0    0    0 -0.00000000000E+00 -0.00000000000E+00 -0.74505805969E-08  0.93827000000E+00  0.93827000000E+00 0. -1.
     999902    2    1    2    0    0  0.41392342335E-03  0.41242985251E-02  0.25339540290E-01  0.10182536787E+01  0.10179298998E+01 0.  0.
     999903    2    3    3    0    0  0.38264923365E-01  0.20904189554E-01 -0.11672641247E+00  0.12589892985E+00  0.18008211180E-01 0.  0.
         14    1    1    2    0    0 -0.41392342335E-03 -0.41242985251E-02 -0.25339540290E-01  0.25676321252E-01  0.00000000000E+00 0. -1.
     999901    1    3    3    0    0 -0.37850999942E-01 -0.16779891029E-01  0.14206595276E+00  0.89235474889E+00  0.88000000000E+00 0.  1.
        -11    1    4    4    0    0  0.21111723440E-01  0.13540626124E-02 -0.52136681507E-01  0.56267513111E-01  0.51100000000E-03 0. -1.
         11    1    4    4    0    0  0.17153199925E-01  0.19550126942E-01 -0.64589730961E-01  0.69631416744E-01  0.51100000000E-03 0.  1.
</event>
<event>
 8    1  0.1064839E+005  0.1043930E+01  0.7957747E-01            NaN
         13   -1    0    0    0    0  0.00000000000E+00  0.00000000000E+00  0.74505805969E-08  0.10566000000E+00  0.10566000000E+00 0.  1.
     999900   -1    0    0    0    0 -0.00000000000E+00 -0.00000000000E+00 -0.74505805969E-08  0.93827000000E+00  0.93827000000E+00 0. -1.
     999902    2    1    2    0    0  0.13110067876E-01  0.17568972043E-01  0.89803472669E-02  0.10202405657E+01  0.10199655007E+01 0.  0.
     999903    2    3    3    0    0 -0.12198611356E+00  0.17734941959E-01 -0.32186873081E-01  0.12897980378E+00  0.20116036293E-01 0.  0.
         14    1    1    2    0    0 -0.13110067876E-01 -0.17568972043E-01 -0.89803472669E-02  0.23689434256E-01  0.00000000000E+00 0. -1.
     999901    1    3    3    0    0  0.13509618144E+00 -0.16596991578E-03  0.41167220348E-01  0.89126076196E+00  0.88000000000E+00 0.  1.
        -11    1    4    4    0    0 -0.41971019151E-01  0.14645763752E-01 -0.67827218814E-02  0.44970337797E-01  0.51100000000E-03 0.  1.
         11    1    4    4    0    0 -0.80015094411E-01  0.30891782073E-02 -0.25404151199E-01  0.84009465983E-01  0.51100000000E-03 0. -1.
</event>
<event>
 8    1  0.1064839E+005  0.1043930E+01  0.7957747E-01            NaN
         13   -1    0    0    0    0  0.00000000000E+00  0.00000000000E+00  0.74505805969E-08  0.10566000000E+00  0.10566000000E+00 0. -1.
     999900   -1    0    0    0    0 -0.00000000000E+00 -0.00000000000E+00 -0.74505805969E-08  0.93827000000E+00  0.93827000000E+00 0.  1.
     999902    2    1    2    0    0  0.49951769139E-02  0.22397435368E-01 -0.43788863778E-02  0.10205682460E+01  0.10203008249E+01 0.  0.
     999903    2    3    3    0    0  0.47178046031E-02  0.38166441614E-01 -0.12483557656E+00  0.13222228148E+00  0.20490866228E-01 0.  0.
         14    1    1    2    0    0 -0.49951769139E-02 -0.22397435368E-01  0.43788863778E-02  0.23361753987E-01  0.00000000000E+00 0. -1.
     999901    1    3    3    0    0  0.27737231080E-03 -0.15769006246E-01  0.12045669018E+00  0.88834596453E+00  0.88000000000E+00 0. -1.
        -11    1    4    4    0    0 -0.37518957711E-02  0.72364798005E-02 -0.52005155543E-01  0.52642574841E-01  0.51100000000E-03 0.  1.
         11    1    4    4    0    0  0.84697003742E-02  0.30929961814E-01 -0.72830421017E-01  0.79579706639E-01  0.51100000000E-03 0. -1.
</event>
<event>
 8    1  0.1064839E+005  0.1043930E+01  0.7957747E-01            NaN
         13   -1    0    0    0    0  0.00000000000E+00  0.00000000000E+00  0.74505805969E-08  0.10566000000E+00  0.10566000000E+00 0. -1.
     999900   -1    0    0    0    0 -0.00000000000E+00 -0.00000000000E+00 -0.74505805969E-08  0.93827000000E+00  0.93827000000E+00 0. -1.
     999902    2    1    2    0    0 -0.79193002997E-03 -0.20704969760E-01  0.10236088827E-01  0.10208193868E+01  0.10205577495E+01 0.  0.
     999903    2    3    3    0    0 -0.12030420951E+00  0.10443600483E-01 -0.45095907859E-01  0.13047392118E+00  0.20189888191E-01 0.  0.
         14    1    1    2    0    0  0.79193002997E-03  0.20704969760E-01 -0.10236088827E-01  0.23110613155E-01  0.00000000000E+00 0. -1.
     999901    1    3    3    0    0  0.11951227948E+00 -0.31148570244E-01  0.55331996686E-01  0.89034546567E+00  0.88000000000E+00 0.  1.
        -11    1    4    4    0    0 -0.16276149310E-01 -0.39096575498E-03 -0.13664024355E-01  0.21261057668E-01  0.51100000000E-03 0. -1.
         11    1    4    4    0    0 -0.10402806020E+00  0.10834566238E-01 -0.31431883504E-01  0.10921286351E+00  0.51100000000E-03 0.  1.
</event>
<event>
 8    1  0.1064839E+005  0.1043930E+01  0.7957747E-01            NaN
         13   -1    0    0    0    0  0.00000000000E+00  0.00000000000E+00  0.74505805969E-08  0.10566000000E+00  0.10566000000E+00 0.  1.
     999900   -1    0    0    0    0 -0.00000000000E+00 -0.00000000000E+00 -0.74505805969E-08  0.93827000000E+00  0.93827000000E+00 0.  1.
     999902    2    1    2    0    0 -0.19685228898E-01  0.12378644028E-01 -0.93324086973E-03  0.10206574840E+01  0.10203921254E+01 0.  0.
     999903    2    3    3    0    0 -0.88969145400E-01 -0.10385577993E-01  0.95357737697E-01  0.13240615497E+00  0.20369650729E-01 0.  0.
         14    1    1    2    0    0  0.19685228898E-01 -0.12378644028E-01  0.93324086973E-03  0.23272516049E-01  0.00000000000E+00 0. -1.
     999901    1    3    3    0    0  0.69283916502E-01  0.22764222021E-01 -0.96290978566E-01  0.88825132898E+00  0.88000000000E+00 0.  1.
        -11    1    4    4    0    0 -0.94658552057E-02  0.39291418882E-03  0.20877910751E-01  0.22932620319E-01  0.51100000000E-03 0. -1.
         11    1    4    4    0    0 -0.79503290194E-01 -0.10778492182E-01  0.74479826945E-01  0.10947353465E+00  0.51100000000E-03 0.  1.
</event>
<event>
 8    1  0.1064839E+005  0.1043930E+01  0.7957747E-01            NaN
         13   -1    0    0    0    0  0.00000000000E+00  0.00000000000E+00  0.74505805969E-08  0.10566000000E+00  0.10566000000E+00 0.  1.
     999900   -1    0    0    0    0 -0.00000000000E+00 -0.00000000000E+00 -0.74505805969E-08  0.93827000000E+00  0.93827000000E+00 0.  1.
     999902    2    1    2    0    0 -0.66661058296E-02 -0.23608482641E-01 -0.57643277101E-02  0.10187302997E+01  0.10184185774E+01 0.  0.
     999903    2    3    3    0    0  0.12430410427E+00  0.10599777704E-02 -0.25465055153E-01  0.12847761227E+00  0.20134396679E-01 0.  0.
         14    1    1    2    0    0  0.66661058296E-02  0.23608482641E-01  0.57643277101E-02  0.25199700266E-01  0.00000000000E+00 0.  1.
     999901    1    3    3    0    0 -0.13097021010E+00 -0.24668460411E-01  0.19700727443E-01  0.89025268746E+00  0.88000000000E+00 0. -1.
        -11    1    4    4    0    0  0.45266305264E-01  0.30854678036E-02  0.12417226799E-03  0.45374387529E-01  0.51100000000E-03 0.  1.
         11    1    4    4    0    0  0.79037799006E-01 -0.20254900332E-02 -0.25589227421E-01  0.83103224743E-01  0.51100000000E-03 0. -1.
</event>
<event>
 8    1  0.1064839E+005  0.1043930E+01  0.7957747E-01            NaN
         13   -1    0    0    0    0  0.00000000000E+00  0.00000000000E+00  0.74505805969E-08  0.10566000000E+00  0.10566000000E+00 0. -1.
     999900   -1    0    0    0    0 -0.00000000000E+00 -0.00000000000E+00 -0.74505805969E-08  0.93827000000E+00  0.93827000000E+00 0.  1.
     999902    2    1    2    0    0 -0.22644010964E-01 -0.65082834918E-02 -0.68621694406E-03  0.10203592580E+01  0.10200869744E+01 0.  0.
     999903    2    3    3    0    0  0.12529213078E+00 -0.15626498518E-01  0.12074277668E-01  0.12787336222E+00  0.16232778328E-01 0.  0.
         14    1    1    2    0    0  0.22644010964E-01  0.65082834918E-02  0.68621694406E-03  0.23570742038E-01  0.00000000000E+00 0. -1.
     999901    1    3    3    0    0 -0.14793614174E+00  0.91182150260E-02 -0.12760494612E-01  0.89248589574E+00  0.88000000000E+00 0.  1.
        -11    1    4    4    0    0  0.34275416774E-01 -0.75047924585E-02 -0.31571448251E-02  0.35232865188E-01  0.51100000000E-03 0. -1.
         11    1    4    4    0    0  0.91016714006E-01 -0.81217060593E-02  0.15231422493E-01  0.92640497030E-01  0.51100000000E-03 0.  1.
</event>
<event>
 8    1  0.1064839E+005  0.1043930E+01  0.7957747E-01            NaN
         13   -1    0    0    0    0  0.00000000000E+00  0.00000000000E+00  0.74505805969E-08  0.10566000000E+00  0.10566000000E+00 0. -1.
     999900   -1    0    0    0    0 -0.00000000000E+00 -0.00000000000E+00 -0.74505805969E-08  0.93827000000E+00  0.93827000000E+00 0.  1.
     999902    2    1    2    0    0  0.92401954430E-02  0.11692574781E-01  0.19044985348E-01  0.10197471759E+01  0.10194603934E+01 0.  0.
     999903    2    3    3    0    0 -0.34830250644E-01 -0.66615740600E-01 -0.10063074549E+00  0.12711249300E+00  0.19499632911E-01 0.  0.
         14    1    1    2    0    0 -0.92401954430E-02 -0.11692574781E-01 -0.19044985348E-01  0.24182824147E-01  0.00000000000E+00 0.  1.
     999901    1    3    3    0    0  0.44070446087E-01  0.78308315382E-01  0.11967573084E+00  0.89263468285E+00  0.88000000000E+00 0. -1.
        -11    1    4    4    0    0 -0.23849630973E-01 -0.32060992451E-01 -0.64823009474E-01  0.76151137961E-01  0.51100000000E-03 0. -1.
         11    1    4    4    0    0 -0.10980619671E-01 -0.34554748149E-01 -0.35807736016E-01  0.50961355041E-01  0.51100000000E-03 0.  1.
</event>
<event>
 8    1  0.1064839E+005  0.1043930E+01  0.7957747E-01            NaN
         13   -1    0    0    0    0  0.00000000000E+00  0.00000000000E+00  0.74505805969E-08  0.10566000000E+00  0.10566000000E+00 0.  1.
     999900   -1    0    0    0    0 -0.00000000000E+00 -0.00000000000E+00 -0.74505805969E-08  0.93827000000E+00  0.93827000000E+00 0. -1.
     999902    2    1    2    0    0 -0.11995265215E-01  0.16354262052E-01  0.15350445355E-01  0.10184941110E+01  0.10181764433E+01 0.  0.
     999903    2    3    3    0    0  0.60391728720E-01  0.12533186271E-01  0.11305942132E+00  0.13012396211E+00  0.18589543083E-01 0.  0.
         14    1    1    2    0    0  0.11995265215E-01 -0.16354262052E-01 -0.15350445355E-01  0.25435888965E-01  0.00000000000E+00 0. -1.
     999901    1    3    3    0    0 -0.72386993935E-01  0.38210757807E-02 -0.97708975961E-01  0.88837014892E+00  0.88000000000E+00 0. -1.
        -11    1    4    4    0    0  0.33448289906E-01  0.66404584625E-03  0.45972897600E-01  0.56859453825E-01  0.51100000000E-03 0.  1.
         11    1    4    4    0    0  0.26943438814E-01  0.11869140425E-01  0.67086523716E-01  0.73264508289E-01  0.51100000000E-03 0. -1.
</event>
<event>
 8    1  0.1064839E+005  0.1043930E+01  0.7957747E-01            NaN
         13   -1    0    0    0    0  0.00000000000E+00  0.00000000000E+00  0.74505805969E-08  0.10566000000E+00  0.10566000000E+00 0. -1.
     999900   -1    0    0    0    0 -0.00000000000E+00 -0.00000000000E+00 -0.74505805969E-08  0.93827000000E+00  0.93827000000E+00 0.  1.
     999902    2    1    2    0    0 -0.99900538431E-02  0.97756998481E-02  0.18801475730E-01  0.10205022179E+01  0.10202332654E+01 0.  0.
     999903    2    3    3    0    0 -0.11548772904E+00  0.29837259737E-01 -0.50920000138E-01  0.13123661651E+00  0.20063037452E-01 0.  0.
         14    1    1    2    0    0  0.99900538431E-02 -0.97756998481E-02 -0.18801475730E-01  0.23427782075E-01  0.00000000000E+00 0.  1.
     999901    1    3    3    0    0  0.10549767520E+00 -0.20061559889E-01  0.69721475868E-01  0.88926560141E+00  0.88000000000E+00 0. -1.
        -11    1    4    4    0    0 -0.63464836242E-01  0.24447764736E-01 -0.35426903267E-01  0.76686408417E-01  0.51100000000E-03 0.  1.
         11    1    4    4    0    0 -0.52022892800E-01  0.53894950012E-02 -0.15493096871E-01  0.54550208096E-01  0.51100000000E-03 0. -1.
</event>
<event>
 8    1  0.1064839E+005  0.1043930E+01  0.7957747E-01            NaN
         13   -1    0    0    0    0  0.00000000000E+00  0.00000000000E+00  0.74505805969E-08  0.10566000000E+00  0.10566000000E+00 0.  1.
     999900   -1    0    0    0    0 -0.00000000000E+00 -0.00000000000E+00 -0.74505805969E-08  0.93827000000E+00  0.93827000000E+00 0.  1.
     999902    2    1    2    0    0  0.17207163387E-02  0.16591893945E-01 -0.12333096347E-01  0.10231849506E+01  0.10229746263E+01 0.  0.
     999903    2    3    3    0    0 -0.51683072919E-01 -0.11002967600E+00  0.43019000605E-01  0.13080115350E+00  0.21923451286E-01 0.  0.
         14    1    1    2    0    0 -0.17207163387E-02 -0.16591893945E-01  0.12333096347E-01  0.20745049407E-01  0.00000000000E+00 0.  1.
     999901    1    3    3    0    0  0.53403789258E-01  0.12662156994E+00 -0.55352096952E-01  0.89238379710E+00  0.88000000000E+00 0.  1.
        -11    1    4    4    0    0 -0.33203240886E-01 -0.88995157425E-01  0.28029304595E-01  0.99037852801E-01  0.51100000000E-03 0.  1.
         11    1    4    4    0    0 -0.18479832033E-01 -0.21034518574E-01  0.14989696010E-01  0.31763300696E-01  0.51100000000E-03 0. -1.
</event>
<event>
 8    1  0.1064839E+005  0.1043930E+01  0.7957747E-01            NaN
         13   -1    0    0    0    0  0.00000000000E+00  0.00000000000E+00  0.74505805969E-08  0.10566000000E+00  0.10566000000E+00 0.  1.
     999900   -1    0    0    0    0 -0.00000000000E+00 -0.00000000000E+00 -0.74505805969E-08  0.93827000000E+00  0.93827000000E+00 0.  1.
     999902    2    1    2    0    0  0.12178058877E-01  0.17483675586E-01  0.71390147122E-02  0.10214589172E+01  0.10212117165E+01 0.  0.
     999903    2    3    3    0    0 -0.87687822343E-01  0.96376404907E-01 -0.90191661326E-02  0.13215675048E+00  0.20161739252E-01 0.  0.
         14    1    1    2    0    0 -0.12178058877E-01 -0.17483675586E-01 -0.71390147122E-02  0.22471082774E-01  0.00000000000E+00 0. -1.
     999901    1    3    3    0    0  0.99865881219E-01 -0.78892729321E-01  0.16158180845E-01  0.88930216675E+00  0.88000000000E+00 0. -1.
        -11    1    4    4    0    0 -0.14124694172E-01  0.20365333937E-01 -0.90111429705E-02  0.26376421866E-01  0.51100000000E-03 0.  1.
         11    1    4    4    0    0 -0.73563128171E-01  0.76011070969E-01 -0.80231620343E-05  0.10578032861E+00  0.51100000000E-03 0. -1.
</event>
<event>
 8    1  0.1064839E+005  0.1043930E+01  0.7957747E-01            NaN
         13   -1    0    0    0    0  0.00000000000E+00  0.00000000000E+00  0.74505805969E-08  0.10566000000E+00  0.10566000000E+00 0. -1.
     999900   -1    0    0    0    0 -0.00000000000E+00 -0.00000000000E+00 -0.74505805969E-08  0.93827000000E+00  0.93827000000E+00 0. -1.
     999902    2    1    2    0    0  0.74940502417E-02 -0.16688492135E-01 -0.15018055757E-01  0.10202612747E+01  0.10199866960E+01 0.  0.
     999903    2    3    3    0    0 -0.46436532118E-01  0.86671275291E-02 -0.12188260835E+00  0.13179549158E+00  0.16828867169E-01 0.  0.
         14    1    1    2    0    0 -0.74940502417E-02  0.16688492135E-01  0.15018055757E-01  0.23668725303E-01  0.00000000000E+00 0. -1.
     999901    1    3    3    0    0  0.53930582360E-01 -0.25355619664E-01  0.10686455259E+00  0.88846578311E+00  0.88000000000E+00 0.  1.
        -11    1    4    4    0    0 -0.91089252779E-02  0.18845292054E-02 -0.46254301018E-01  0.47183105596E-01  0.51100000000E-03 0. -1.
         11    1    4    4    0    0 -0.37327606840E-01  0.67825983237E-02 -0.75628307327E-01  0.84612385988E-01  0.51100000000E-03 0.  1.
</event>
<event>
 8    1  0.1064839E+005  0.1043930E+01  0.7957747E-01            NaN
         13   -1    0    0    0    0  0.00000000000E+00  0.00000000000E+00  0.74505805969E-08  0.10566000000E+00  0.10566000000E+00 0.  1.
     999900   -1    0    0    0    0 -0.00000000000E+00 -0.00000000000E+00 -0.74505805969E-08  0.93827000000E+00  0.93827000000E+00 0.  1.
     999902    2    1    2    0    0 -0.22061940808E-01 -0.14665212166E-02  0.87066025120E-02  0.10201669016E+01  0.10198901031E+01 0.  0.
     999903    2    3    3    0    0 -0.34065838749E-01  0.11309881313E+00  0.54225769283E-01  0.13149299972E+00  0.19953747019E-01 0.  0.
         14    1    1    2    0    0  0.22061940808E-01  0.14665212166E-02 -0.87066025120E-02  0.23763098367E-01  0.00000000000E+00 0. -1.
     999901    1    3    3    0    0  0.12003897941E-01 -0.11456533435E+00 -0.45519166771E-01  0.88867390191E+00  0.88000000000E+00 0.  1.
        -11    1    4    4    0    0 -0.23070457102E-01  0.58008198075E-01  0.19311893059E-01  0.65348353991E-01  0.51100000000E-03 0.  1.
         11    1    4    4    0    0 -0.10995381647E-01  0.55090615054E-01  0.34913876224E-01  0.66144645729E-01  0.51100000000E-03 0. -1.
</event>
<event>
 8    1  0.1064839E+005  0.1043930E+01  0.7957747E-01            NaN
         13   -1    0    0    0    0  0.00000000000E+00  0.00000000000E+00  0.74505805969E-08  0.10566000000E+00  0.10566000000E+00 0.  1.
     999900   -1    0    0    0    0 -0.00000000000E+00 -0.00000000000E+00 -0.74505805969E-08  0.93827000000E+00  0.93827000000E+00 0.  1.
     999902    2    1    2    0    0 -0.17884958314E-01 -0.53522610455E-02  0.14280764674E-01  0.10204255606E+01  0.10201548245E+01 0.  0.
     999903    2    3    3    0    0 -0.33164017229E-01 -0.12564122051E+00  0.14945066918E-01  0.13211068134E+00  0.18555558962E-01 0.  0.
         14    1    1    2    0    0  0.17884958314E-01  0.53522610455E-02 -0.14280764674E-01  0.23504439407E-01  0.00000000000E+00 0. -1.
     999901    1    3    3    0    0  0.15279058916E-01  0.12028895946E+00 -0.66430224347E-03  0.88831487926E+00  0.88000000000E+00 0. -1.
        -11    1    4    4    0    0 -0.10902560875E-01 -0.49558576294E-01  0.14713127360E-01  0.52836119801E-01  0.51100000000E-03 0.  1.
         11    1    4    4    0    0 -0.22261456354E-01 -0.76082644215E-01  0.23193955737E-03  0.79274561536E-01  0.51100000000E-03 0. -1.
</event>
<event>
 8    1  0.1064839E+005  0.1043930E+01  0.7957747E-01            NaN
         13   -1    0    0    0    0  0.00000000000E+00  0.00000000000E+00  0.74505805969E-08  0.10566000000E+00  0.10566000000E+00 0.  1.
     999900   -1    0    0    0    0 -0.00000000000E+00 -0.00000000000E+00 -0.74505805969E-08  0.93827000000E+00  0.93827000000E+00 0.  1.
     999902    2    1    2    0    0 -0.14902174551E-01 -0.17007457913E-01 -0.66971413609E-02  0.10203465284E+01  0.10200739472E+01 0.  0.
     999903    2    3    3    0    0 -0.78084205260E-01 -0.10604782804E+00  0.75619218548E-02  0.13348493975E+00  0.20439215615E-01 0.  0.
         14    1    1    2    0    0  0.14902174551E-01  0.17007457913E-01  0.66971413609E-02  0.23583471615E-01  0.00000000000E+00 0.  1.
     999901    1    3    3    0    0  0.63182030709E-01  0.89040370123E-01 -0.14259063216E-01  0.88686158864E+00  0.88000000000E+00 0. -1.
        -11    1    4    4    0    0 -0.14661873274E-01 -0.31767168468E-01  0.76168150825E-02  0.35810620120E-01  0.51100000000E-03 0.  1.
         11    1    4    4    0    0 -0.63422331986E-01 -0.74280659568E-01 -0.54893227712E-04  0.97674319628E-01  0.51100000000E-03 0. -1.
</event>
<event>
 8    1  0.1064839E+005  0.1043930E+01  0.7957747E-01            NaN
         13   -1    0    0    0    0  0.00000000000E+00  0.00000000000E+00  0.74505805969E-08  0.10566000000E+00  0.10566000000E+00 0. -1.
     999900   -1    0    0    0    0 -0.00000000000E+00 -0.00000000000E+00 -0.74505805969E-08  0.93827000000E+00  0.93827000000E+00 0. -1.
     999902    2    1    2    0    0 -0.10310030635E-01  0.52529618069E-03 -0.22053585824E-01  0.10195797779E+01  0.10192889631E+01 0.  0.
     999903    2    3    3    0    0  0.12573434744E+00 -0.63869012433E-02  0.15078983262E-01  0.12832522451E+00  0.19750161449E-01 0.  0.
         14    1    1    2    0    0  0.10310030635E-01 -0.52529618069E-03  0.22053585824E-01  0.24350222083E-01  0.00000000000E+00 0. -1.
     999901    1    3    3    0    0 -0.13604437807E+00  0.69121974239E-02 -0.37132569086E-01  0.89125455340E+00  0.88000000000E+00 0. -1.
        -11    1    4    4    0    0  0.31685475527E-01  0.21439664368E-02  0.11635165751E-01  0.33826086893E-01  0.51100000000E-03 0. -1.
         11    1    4    4    0    0  0.94048871909E-01 -0.85308676800E-02  0.34438175110E-02  0.94499137619E-01  0.51100000000E-03 0.  1.
</event>
<event>
 8    1  0.1064839E+005  0.1043930E+01  0.7957747E-01            NaN
         13   -1    0    0    0    0  0.00000000000E+00  0.00000000000E+00  0.74505805969E-08  0.10566000000E+00  0.10566000000E+00 0. -1.
     999900   -1    0    0    0    0 -0.00000000000E+00 -0.00000000000E+00 -0.74505805969E-08  0.93827000000E+00  0.93827000000E+00 0. -1.
     999902    2    1    2    0    0  0.16479588620E-01  0.78085542496E-02 -0.15459181762E-01  0.10200231671E+01  0.10197429699E+01 0.  0.
     999903    2    3    3    0    0 -0.10590239882E+00  0.35188057520E-01  0.59328729933E-01  0.12799165428E+00  0.20210094061E-01 0.  0.
         14    1    1    2    0    0 -0.16479588620E-01 -0.78085542496E-02  0.15459181762E-01  0.23906832942E-01  0.00000000000E+00 0.  1.
     999901    1    3    3    0    0  0.12238198744E+00 -0.27379503270E-01 -0.74787911695E-01  0.89203151278E+00  0.88000000000E+00 0.  1.
        -11    1    4    4    0    0 -0.28231435060E-01  0.18048359131E-01  0.13019617403E-01  0.35951755885E-01  0.51100000000E-03 0.  1.
         11    1    4    4    0    0 -0.77670963763E-01  0.17139698389E-01  0.46309112529E-01  0.92039898397E-01  0.51100000000E-03 0. -1.
</event>
<event>
 8    1  0.1064839E+005  0.1043930E+01  0.7957747E-01            NaN
         13   -1    0    0    0    0  0.00000000000E+00  0.00000000000E+00  0.74505805969E-08  0.10566000000E+00  0.10566000000E+00 0. -1.
     999900   -1    0    0    0    0 -0.00000000000E+00 -0.00000000000E+00 -0.74505805969E-08  0.93827000000E+00  0.93827000000E+00 0.  1.
     999902    2    1    2    0    0 -0.43232016738E-02 -0.22858065587E-01 -0.51743703723E-02  0.10200981863E+01  0.10198197656E+01 0.  0.
     999903    2    3    3    0    0  0.10459768907E+00 -0.75556181571E-01  0.15631170164E-01  0.13157484819E+00  0.20449793700E-01 0.  0.
         14    1    1    2    0    0  0.43232016738E-02  0.22858065587E-01  0.51743703723E-02  0.23831813692E-01  0.00000000000E+00 0.  1.
     999901    1    3    3    0    0 -0.10892089074E+00  0.52698115984E-01 -0.20805540536E-01  0.88852333812E+00  0.88000000000E+00 0. -1.
        -11    1    4    4    0    0  0.48373494874E-01 -0.46058820079E-01  0.31805451067E-02  0.66871420663E-01  0.51100000000E-03 0.  1.
         11    1    4    4    0    0  0.56224194196E-01 -0.29497361493E-01  0.12450625057E-01  0.64703427524E-01  0.51100000000E-03 0. -1.
</event>
<event>
 8    1  0.1064839E+005  0.1043930E+01  0.7957747E-01            NaN
         13   -1    0    0    0    0  0.00000000000E+00  0.00000000000E+00  0.74505805969E-08  0.10566000000E+00  0.10566000000E+00 0. -1.
     999900   -1    0    0    0    0 -0.00000000000E+00 -0.00000000000E+00 -0.74505805969E-08  0.93827000000E+00  0.93827000000E+00 0.  1.
     999902    2    1    2    0    0  0.19262105907E-01 -0.31305108912E-02 -0.13940273093E-01  0.10199475056E+01  0.10196655109E+01 0.  0.
     999903    2    3    3    0    0 -0.28742067920E-01 -0.85830731728E-01  0.89303351440E-01  0.12876684311E+00  0.20317242180E-01 0.  0.
         14    1    1    2    0    0 -0.19262105907E-01  0.31305108912E-02  0.13940273093E-01  0.23982494372E-01  0.00000000000E+00 0. -1.
     999901    1    3    3    0    0  0.48004173827E-01  0.82700220837E-01 -0.10324362453E+00  0.89118066251E+00  0.88000000000E+00 0.  1.
        -11    1    4    4    0    0 -0.22813491904E-01 -0.49662697906E-01  0.42022280982E-01  0.68941802965E-01  0.51100000000E-03 0.  1.
         11    1    4    4    0    0 -0.59285760159E-02 -0.36168033822E-01  0.47281070459E-01  0.59825040149E-01  0.51100000000E-03 0. -1.
</event>
<event>
 8    1  0.1064839E+005  0.1043930E+01  0.7957747E-01            NaN
         13   -1    0    0    0    0  0.00000000000E+00  0.00000000000E+00  0.74505805969E-08  0.10566000000E+00  0.10566000000E+00 0. -1.
     999900   -1    0    0    0    0 -0.00000000000E+00 -0.00000000000E+00 -0.74505805969E-08  0.93827000000E+00  0.93827000000E+00 0.  1.
     999902    2    1    2    0    0 -0.13426106516E-01 -0.20329834748E-01  0.45302916943E-02  0.10191492401E+01  0.10188479217E+01 0.  0.
     999903    2    3    3    0    0  0.36666604523E-02 -0.32768264951E-01  0.12513613626E+00  0.13067152686E+00  0.18132615551E-01 0.  0.
         14    1    1    2    0    0  0.13426106516E-01  0.20329834748E-01 -0.45302916943E-02  0.24780759873E-01  0.00000000000E+00 0. -1.
     999901    1    3    3    0    0 -0.17092766968E-01  0.12438430204E-01 -0.12060584457E+00  0.88847771327E+00  0.88000000000E+00 0.  1.
        -11    1    4    4    0    0 -0.65841169471E-02 -0.15246967448E-01  0.69100679193E-01  0.71070286325E-01  0.51100000000E-03 0. -1.
         11    1    4    4    0    0  0.10250777399E-01 -0.17521297503E-01  0.56035457068E-01  0.59601240535E-01  0.51100000000E-03 0.  1.
</event>
<event>
 8    1  0.1064839E+005  0.1043930E+01  0.7957747E-01            NaN
         13   -1    0    0    0    0  0.00000000000E+00  0.00000000000E+00  0.74505805969E-08  0.10566000000E+00  0.10566000000E+00 0. -1.
     999900   -1    0    0    0    0 -0.00000000000E+00 -0.00000000000E+00 -0.74505805969E-08  0.93827000000E+00  0.93827000000E+00 0. -1.
     999902    2    1    2    0    0 -0.23226238896E-01  0.21067628890E-02 -0.68124980876E-03  0.10205984607E+01  0.10203317389E+01 0.  0.
     999903    2    3    3    0    0 -0.10357799950E+00  0.17852243473E-01  0.79217132861E-01  0.13319321106E+00  0.20444382054E-01 0.  0.
         14    1    1    2    0    0  0.23226238896E-01 -0.21067628890E-02  0.68124980876E-03  0.23331539264E-01  0.00000000000E+00 0.  1.
     999901    1    3    3    0    0  0.80351760604E-01 -0.15745480584E-01 -0.79898382670E-01  0.88740524967E+00  0.88000000000E+00 0. -1.
        -11    1    4    4    0    0 -0.26558240519E-01  0.36091581505E-02  0.31960334253E-01  0.41714388988E-01  0.51100000000E-03 0.  1.
         11    1    4    4    0    0 -0.77019758981E-01  0.14243085323E-01  0.47256798608E-01  0.91478822077E-01  0.51100000000E-03 0. -1.
</event>
<event>
 8    1  0.1064839E+005  0.1043930E+01  0.7957747E-01            NaN
         13   -1    0    0    0    0  0.00000000000E+00  0.00000000000E+00  0.74505805969E-08  0.10566000000E+00  0.10566000000E+00 0. -1.
     999900   -1    0    0    0    0 -0.00000000000E+00 -0.00000000000E+00 -0.74505805969E-08  0.93827000000E+00  0.93827000000E+00 0. -1.
     999902    2    1    2    0    0 -0.67161146432E-02 -0.17563975361E-01  0.14918263030E-01  0.10199267919E+01  0.10196443041E+01 0.  0.
     999903    2    3    3    0    0 -0.29550442160E-01  0.86709076057E-01  0.90391256183E-01  0.13026930251E+00  0.20194540833E-01 0.  0.
         14    1    1    2    0    0  0.67161146432E-02  0.17563975361E-01 -0.14918263030E-01  0.24003208082E-01  0.00000000000E+00 0. -1.
     999901    1    3    3    0    0  0.22834327517E-01 -0.10427305142E+00 -0.75472993153E-01  0.88965748941E+00  0.88000000000E+00 0. -1.
        -11    1    4    4    0    0 -0.79943463677E-02  0.25031346679E-01  0.14107440450E-01  0.29828826451E-01  0.51100000000E-03 0.  1.
         11    1    4    4    0    0 -0.21556095793E-01  0.61677729379E-01  0.76283815733E-01  0.10044047606E+00  0.51100000000E-03 0. -1.
</event>
<event>
 8    1  0.1064839E+005  0.1043930E+01  0.7957747E-01            NaN
         13   -1    0    0    0    0  0.00000000000E+00  0.00000000000E+00  0.74505805969E-08  0.10566000000E+00  0.10566000000E+00 0. -1.
     999900   -1    0    0    0    0 -0.00000000000E+00 -0.00000000000E+00 -0.74505805969E-08  0.93827000000E+00  0.93827000000E+00 0. -1.
     999902    2    1    2    0    0  0.99043466992E-02  0.18597581281E-01  0.10035314458E-01  0.10205917557E+01  0.10203248787E+01 0.  0.
     999903    2    3    3    0    0  0.85554527835E-01 -0.95545900022E-01 -0.33315729008E-02  0.12990081155E+00  0.20359892407E-01 0.  0.
         14    1    1    2    0    0 -0.99043466992E-02 -0.18597581281E-01 -0.10035314458E-01  0.23338244349E-01  0.00000000000E+00 0.  1.
     999901    1    3    3    0    0 -0.75650181135E-01  0.11414348130E+00  0.13366887358E-01  0.89069094410E+00  0.88000000000E+00 0. -1.
        -11    1    4    4    0    0  0.10730423127E-01 -0.23614237570E-01  0.15824483545E-02  0.25991141958E-01  0.51100000000E-03 0. -1.
         11    1    4    4    0    0  0.74824104707E-01 -0.71931662452E-01 -0.49140212553E-02  0.10390966959E+00  0.51100000000E-03 0.  1.
</event>
<event>
 8    1  0.1064839E+005  0.1043930E+01  0.7957747E-01            NaN
         13   -1    0    0    0    0  0.00000000000E+00  0.00000000000E+00  0.74505805969E-08  0.10566000000E+00  0.10566000000E+00 0.  1.
     999900   -1    0    0    0    0 -0.00000000000E+00 -0.00000000000E+00 -0.74505805969E-08  0.93827000000E+00  0.93827000000E+00 0.  1.
     999902    2    1    2    0    0 -0.22067930995E-01 -0.86104236888E-02 -0.46103868492E-03  0.10202372684E+01  0.10199621259E+01 0.  0.
     999903    2    3    3    0    0  0.73679954181E-01  0.96842595450E-01  0.34683595128E-01  0.12809202122E+00  0.19934647917E-01 0.  0.
         14    1    1    2    0    0  0.22067930995E-01  0.86104236888E-02  0.46103868492E-03  0.23692731611E-01  0.00000000000E+00 0.  1.
     999901    1    3    3    0    0 -0.95747885176E-01 -0.10545301914E+00 -0.35144633813E-01  0.89214524717E+00  0.88000000000E+00 0.  1.
        -11    1    4    4    0    0  0.63016766817E-01  0.79339834969E-01  0.21091504364E-01  0.10349413022E+00  0.51100000000E-03 0.  1.
         11    1    4    4    0    0  0.10663187363E-01  0.17502760481E-01  0.13592090764E-01  0.24597890998E-01  0.51100000000E-03 0. -1.
</event>
<event>
 8    1  0.1064839E+005  0.1043930E+01  0.7957747E-01            NaN
         13   -1    0    0    0    0  0.00000000000E+00  0.00000000000E+00  0.74505805969E-08  0.10566000000E+00  0.10566000000E+00 0. -1.
     999900   -1    0    0    0    0 -0.00000000000E+00 -0.00000000000E+00 -0.74505805969E-08  0.93827000000E+00  0.93827000000E+00 0. -1.
     999902    2    1    2    0    0  0.11717936973E-01 -0.92687873686E-02  0.18604701843E-01  0.10200688308E+01  0.10197897156E+01 0.  0.
     999903    2    3    3    0    0  0.87208279579E-01 -0.95276480518E-01 -0.16849943012E-01  0.13195107566E+00  0.21077808732E-01 0.  0.
         14    1    1    2    0    0 -0.11717936973E-01  0.92687873686E-02 -0.18604701843E-01  0.23861169227E-01  0.00000000000E+00 0.  1.
     999901    1    3    3    0    0 -0.75490342607E-01  0.86007693150E-01  0.35454644855E-01  0.88811775511E+00  0.88000000000E+00 0. -1.
        -11    1    4    4    0    0  0.65530061685E-01 -0.83608378591E-01 -0.14499614635E-01  0.10721497051E+00  0.51100000000E-03 0.  1.
         11    1    4    4    0    0  0.21678217895E-01 -0.11668101928E-01 -0.23503283770E-02  0.24736105153E-01  0.51100000000E-03 0. -1.
</event>
<event>
 8    1  0.1064839E+005  0.1043930E+01  0.7957747E-01            NaN
         13   -1    0    0    0    0  0.00000000000E+00  0.00000000000E+00  0.74505805969E-08  0.10566000000E+00  0.10566000000E+00 0. -1.
     999900   -1    0    0    0    0 -0.00000000000E+00 -0.00000000000E+00 -0.74505805969E-08  0.93827000000E+00  0.93827000000E+00 0. -1.
     999902    2    1    2    0    0 -0.90367971805E-02 -0.16238964075E-01  0.14037799100E-01  0.10206399278E+01  0.10203741641E+01 0.  0.
     999903    2    3    3    0    0  0.65060693421E-01 -0.51271231354E-01 -0.97864820324E-01  0.12977523885E+00  0.20061320196E-01 0.  0.
         14    1    1    2    0    0  0.90367971805E-02  0.16238964075E-01 -0.14037799100E-01  0.23290072157E-01  0.00000000000E+00 0.  1.
     999901    1    3    3    0    0 -0.74097490602E-01  0.35032267280E-01  0.11190261942E+00  0.89086468900E+00  0.88000000000E+00 0.  1.
        -11    1    4    4    0    0  0.32610789831E-01 -0.35801777178E-01 -0.46997574602E-01  0.67485287300E-01  0.51100000000E-03 0.  1.
         11    1    4    4    0    0  0.32449903591E-01 -0.15469454176E-01 -0.50867245722E-01  0.62289951548E-01  0.51100000000E-03 0. -1.
</event>
<event>
 8    1  0.1064839E+005  0.1043930E+01  0.7957747E-01            NaN
         13   -1    0    0    0    0  0.00000000000E+00  0.00000000000E+00  0.74505805969E-08  0.10566000000E+00  0.10566000000E+00 0.  1.
     999900   -1    0    0    0    0 -0.00000000000E+00 -0.00000000000E+00 -0.74505805969E-08  0.93827000000E+00  0.93827000000E+00 0.  1.
     999902    2    1    2    0    0 -0.16367653028E-01 -0.57786159713E-02 -0.16050022256E-01  0.10202890253E+01  0.10200150977E+01 0.  0.
     999903    2    3    3    0    0  0.90449803410E-01  0.88345619653E-01 -0.14779338920E-01  0.12884583850E+00  0.19917474532E-01 0.  0.
         14    1    1    2    0    0  0.16367653028E-01  0.57786159713E-02  0.16050022256E-01  0.23640974655E-01  0.00000000000E+00 0.  1.
     999901    1    3    3    0    0 -0.10681745644E+00 -0.94124235625E-01 -0.12706833364E-02  0.89144318684E+00  0.88000000000E+00 0. -1.
        -11    1    4    4    0    0  0.13967287827E-01  0.11600980167E-01 -0.91799745262E-02  0.20351926773E-01  0.51100000000E-03 0. -1.
         11    1    4    4    0    0  0.76482515583E-01  0.76744639486E-01 -0.55993643938E-02  0.10849391173E+00  0.51100000000E-03 0.  1.
</event>
<event>
 8    1  0.1064839E+005  0.1043930E+01  0.7957747E-01            NaN
         13   -1    0    0    0    0  0.00000000000E+00  0.00000000000E+00  0.74505805969E-08  0.10566000000E+00  0.10566000000E+00 0. -1.
     999900   -1    0    0    0    0 -0.00000000000E+00 -0.00000000000E+00 -0.74505805969E-08  0.93827000000E+00  0.93827000000E+00 0.  1.
     999902    2    1    2    0    0  0.28341819077E-02  0.72761177405E-02 -0.22436283572E-01  0.10201737104E+01  0.10198970723E+01 0.  0.
     999903    2    3    3    0    0  0.11184797563E+00  0.41677198215E-01 -0.53326194385E-01  0.13224261611E+00  0.19936599655E-01 0.  0.
         14    1    1    2    0    0 -0.28341819077E-02 -0.72761177405E-02  0.22436283572E-01  0.23756289630E-01  0.00000000000E+00 0. -1.
     999901    1    3    3    0    0 -0.10901379372E+00 -0.34401080475E-01  0.30889910813E-01  0.88793109426E+00  0.88000000000E+00 0. -1.
        -11    1    4    4    0    0  0.27936810194E-01  0.17505062491E-02 -0.14526011640E-01  0.31540383180E-01  0.51100000000E-03 0. -1.
         11    1    4    4    0    0  0.83911165433E-01  0.39926691966E-01 -0.38800182744E-01  0.10070223293E+00  0.51100000000E-03 0.  1.
</event>
<event>
 8    1  0.1064839E+005  0.1043930E+01  0.7957747E-01            NaN
         13   -1    0    0    0    0  0.00000000000E+00  0.00000000000E+00  0.74505805969E-08  0.10566000000E+00  0.10566000000E+00 0.  1.
     999900   -1    0    0    0    0 -0.00000000000E+00 -0.00000000000E+00 -0.74505805969E-08  0.93827000000E+00  0.93827000000E+00 0. -1.
     999902    2    1    2    0    0  0.19868545440E-02  0.22914597174E-01 -0.55598868830E-02  0.10202669762E+01  0.10199925313E+01 0.  0.
     999903    2    3    3    0    0  0.10644704381E+00  0.22047464773E-01  0.70299713395E-01  0.13084729907E+00  0.19023725469E-01 0.  0.
         14    1    1    2    0    0 -0.19868545440E-02 -0.22914597174E-01  0.55598868830E-02  0.23663023830E-01  0.00000000000E+00 0.  1.
     999901    1    3    3    0    0 -0.10446018927E+00  0.86713240052E-03 -0.75859600278E-01  0.88941967710E+00  0.88000000000E+00 0. -1.
        -11    1    4    4    0    0  0.32031787333E-01  0.12299439299E-01  0.14165906175E-01  0.37124730647E-01  0.51100000000E-03 0. -1.
         11    1    4    4    0    0  0.74415256480E-01  0.97480254741E-02  0.56133807221E-01  0.93722568422E-01  0.51100000000E-03 0.  1.
</event>
<event>
 8    1  0.1064839E+005  0.1043930E+01  0.7957747E-01            NaN
         13   -1    0    0    0    0  0.00000000000E+00  0.00000000000E+00  0.74505805969E-08  0.10566000000E+00  0.10566000000E+00 0.  1.
     999900   -1    0    0    0    0 -0.00000000000E+00 -0.00000000000E+00 -0.74505805969E-08  0.93827000000E+00  0.93827000000E+00 0. -1.
     999902    2    1    2    0    0  0.13029862484E-01 -0.12575152501E-01  0.16110667917E-01  0.10196923145E+01  0.10194042137E+01 0.  0.
     999903    2    3    3    0    0  0.10507221396E+00 -0.59761479741E-02  0.78247679141E-01  0.13268817164E+00  0.20188291393E-01 0.  0.
         14    1    1    2    0    0 -0.13029862484E-01  0.12575152501E-01 -0.16110667917E-01  0.24237685482E-01  0.00000000000E+00 0. -1.
     999901    1    3    3    0    0 -0.92042351478E-01 -0.65990045271E-02 -0.62137011223E-01  0.88700414288E+00  0.88000000000E+00 0.  1.
        -11    1    4    4    0    0  0.10014499904E+00 -0.48753004450E-02  0.67692512726E-01  0.12097655470E+00  0.51100000000E-03 0.  1.
         11    1    4    4    0    0  0.49272149229E-02 -0.11008475292E-02  0.10555166414E-01  0.11711616934E-01  0.51100000000E-03 0. -1.
</event>
<event>
 8    1  0.1064839E+005  0.1043930E+01  0.7957747E-01            NaN
         13   -1    0    0    0    0  0.00000000000E+00  0.00000000000E+00  0.74505805969E-08  0.10566000000E+00  0.10566000000E+00 0.  1.
     999900   -1    0    0    0    0 -0.00000000000E+00 -0.00000000000E+00 -0.74505805969E-08  0.93827000000E+00  0.93827000000E+00 0. -1.
     999902    2    1    2    0    0 -0.21989600918E-01  0.83625131581E-02 -0.33888428068E-02  0.10201611458E+01  0.10198842115E+01 0.  0.
     999903    2    3    3    0    0 -0.54298533897E-01  0.11883401841E+00 -0.11890839558E-01  0.13262517211E+00  0.19447094865E-01 0.  0.
         14    1    1    2    0    0  0.21989600918E-01 -0.83625131581E-02  0.33888428068E-02  0.23768854209E-01  0.00000000000E+00 0.  1.
     999901    1    3    3    0    0  0.32308932979E-01 -0.11047150525E+00  0.85019967511E-02  0.88753597368E+00  0.88000000000E+00 0.  1.
        -11    1    4    4    0    0 -0.40836006522E-01  0.89140487111E-01 -0.17323284010E-01  0.99568886510E-01  0.51100000000E-03 0. -1.
         11    1    4    4    0    0 -0.13462527375E-01  0.29693531297E-01  0.54324444524E-02  0.33056285604E-01  0.51100000000E-03 0.  1.
</event>
<event>
 8    1  0.1064839E+005  0.1043930E+01  0.7957747E-01            NaN
         13   -1    0    0    0    0  0.00000000000E+00  0.00000000000E+00  0.74505805969E-08  0.10566000000E+00  0.10566000000E+00 0.  1.
     999900   -1    0    0    0    0 -0.00000000000E+00 -0.00000000000E+00 -0.74505805969E-08  0.93827000000E+00  0.93827000000E+00 0.  1.
     999902    2    1    2    0    0  0.10710756832E-02 -0.40524690701E-02 -0.23318608712E-01  0.10202376548E+01  0.10199625214E+01 0.  0.
     999903    2    3    3    0    0 -0.88678992480E-01  0.93137058208E-01 -0.63387931738E-02  0.13018754774E+00  0.19239074002E-01 0.  0.
         14    1    1    2    0    0 -0.10710756832E-02  0.40524690701E-02  0.23318608712E-01  0.23692345198E-01  0.00000000000E+00 0.  1.
     999901    1    3    3    0    0  0.89750068164E-01 -0.97189527278E-01 -0.16979815539E-01  0.89005010706E+00  0.88000000000E+00 0. -1.
        -11    1    4    4    0    0 -0.41088149257E-01  0.41858805733E-01 -0.12435901388E-01  0.59960890513E-01  0.51100000000E-03 0. -1.
         11    1    4    4    0    0 -0.47590843223E-01  0.51278252474E-01  0.60971082142E-02  0.70226657226E-01  0.51100000000E-03 0.  1.
</event>
<event>
 8    1  0.1064839E+005  0.1043930E+01  0.7957747E-01            NaN
         13   -1    0    0    0    0  0.00000000000E+00  0.00000000000E+00  0.74505805969E-08  0.10566000000E+00  0.10566000000E+00 0. -1.
     999900   -1    0    0    0    0 -0.00000000000E+00 -0.00000000000E+00 -0.74505805969E-08  0.93827000000E+00  0.93827000000E+00 0. -1.
     999902    2    1    2    0    0  0.92319751684E-02  0.23208611740E-02  0.20747662403E-01  0.10211027957E+01  0.10208476077E+01 0.  0.
     999903    2    3    3    0    0 -0.69161520394E-01  0.98970192978E-01 -0.44879876928E-01  0.12992738791E+00  0.16985516625E-01 0.  0.
         14    1    1    2    0    0 -0.92319751684E-02 -0.23208611740E-02 -0.20747662403E-01  0.22827204325E-01  0.00000000000E+00 0.  1.
     999901    1    3    3    0    0  0.78393495563E-01 -0.96649331804E-01  0.65627539331E-01  0.89117540776E+00  0.88000000000E+00 0.  1.
        -11    1    4    4    0    0 -0.12223639029E-01  0.30328721134E-01 -0.13566208119E-01  0.35405533472E-01  0.51100000000E-03 0. -1.
         11    1    4    4    0    0 -0.56937881365E-01  0.68641471844E-01 -0.31313668809E-01  0.94521854439E-01  0.51100000000E-03 0.  1.
</event>
<event>
 8    1  0.1064839E+005  0.1043930E+01  0.7957747E-01            NaN
         13   -1    0    0    0    0  0.00000000000E+00  0.00000000000E+00  0.74505805969E-08  0.10566000000E+00  0.10566000000E+00 0.  1.
     999900   -1    0    0    0    0 -0.00000000000E+00 -0.00000000000E+00 -0.74505805969E-08  0.93827000000E+00  0.93827000000E+00 0.  1.
     999902    2    1    2    0    0  0.13325137407E-01  0.10681815200E-01  0.15246497324E-01  0.10210364170E+01  0.10207797258E+01 0.  0.
     999903    2    3    3    0    0 -0.28817700788E-01 -0.56614036609E-01  0.11394737309E+00  0.13196577110E+00  0.19883457669E-01 0.  0.
         14    1    1    2    0    0 -0.13325137407E-01 -0.10681815200E-01 -0.15246497324E-01  0.22893583021E-01  0.00000000000E+00 0. -1.
     999901    1    3    3    0    0  0.42142838196E-01  0.67295851808E-01 -0.98700875765E-01  0.88907064588E+00  0.88000000000E+00 0.  1.
        -11    1    4    4    0    0 -0.20498659628E-01 -0.38087307830E-01  0.57358059797E-01  0.71840421832E-01  0.51100000000E-03 0. -1.
         11    1    4    4    0    0 -0.83190411602E-02 -0.18526728779E-01  0.56589313292E-01  0.60125349271E-01  0.51100000000E-03 0.  1.
</event>
<event>
 8    1  0.1064839E+005  0.1043930E+01  0.7957747E-01            NaN
         13   -1    0    0    0    0  0.00000000000E+00  0.00000000000E+00  0.74505805969E-08  0.10566000000E+00  0.10566000000E+00 0.  1.
     999900   -1    0    0    0    0 -0.00000000000E+00 -0.00000000000E+00 -0.74505805969E-08  0.93827000000E+00  0.93827000000E+00 0. -1.
     999902    2    1    2    0    0 -0.19081271375E-01  0.84031066796E-02 -0.10802103420E-01  0.10204482505E+01  0.10201780430E+01 0.  0.
     999903    2    3    3    0    0  0.27999938359E-01  0.10793516379E+00 -0.67364793579E-01  0.13178486736E+00  0.19880636776E-01 0.  0.
         14    1    1    2    0    0  0.19081271375E-01 -0.84031066796E-02  0.10802103420E-01  0.23481749455E-01  0.00000000000E+00 0.  1.
     999901    1    3    3    0    0 -0.47081209734E-01 -0.99532057115E-01  0.56562690159E-01  0.88866338319E+00  0.88000000000E+00 0.  1.
        -11    1    4    4    0    0  0.23838100906E-02  0.29225736788E-01 -0.26260933470E-01  0.39366533871E-01  0.51100000000E-03 0.  1.
         11    1    4    4    0    0  0.25616128269E-01  0.78709427007E-01 -0.41103860110E-01  0.92418333485E-01  0.51100000000E-03 0. -1.
</event>
<event>
 8    1  0.1064839E+005  0.1043930E+01  0.7957747E-01            NaN
         13   -1    0    0    0    0  0.00000000000E+00  0.00000000000E+00  0.74505805969E-08  0.10566000000E+00  0.10566000000E+00 0.  1.
     999900   -1    0    0    0    0 -0.00000000000E+00 -0.00000000000E+00 -0.74505805969E-08  0.93827000000E+00  0.93827000000E+00 0.  1.
     999902    2    1    2    0    0  0.92064882441E-02  0.23333502784E-01 -0.92480907205E-02  0.10171953977E+01  0.10168440088E+01 0.  0.
     999903    2    3    3    0    0 -0.92108482134E-01 -0.52135593329E-01  0.63941483560E-01  0.12516567764E+00  0.19386618240E-01 0.  0.
         14    1    1    2    0    0 -0.92064882441E-02 -0.23333502784E-01  0.92480907205E-02  0.26734602296E-01  0.00000000000E+00 0. -1.
     999901    1    3    3    0    0  0.10131497038E+00  0.75469096113E-01 -0.73189574280E-01  0.89202972006E+00  0.88000000000E+00 0.  1.
        -11    1    4    4    0    0 -0.61033909446E-01 -0.30195891994E-01  0.30909494654E-01  0.74783607671E-01  0.51100000000E-03 0.  1.
         11    1    4    4    0    0 -0.31074572689E-01 -0.21939701334E-01  0.33031988905E-01  0.50382069970E-01  0.51100000000E-03 0. -1.
</event>
<event>
 8    1  0.1064839E+005  0.1043930E+01  0.7957747E-01            NaN
         13   -1    0    0    0    0  0.00000000000E+00  0.00000000000E+00  0.74505805969E-08  0.10566000000E+00  0.10566000000E+00 0.  1.
     999900   -1    0    0    0    0 -0.00000000000E+00 -0.00000000000E+00 -0.74505805969E-08  0.93827000000E+00  0.93827000000E+00 0. -1.
     999902    2    1    2    0    0 -0.82590366546E-02 -0.20455770279E-01  0.86639270510E-02  0.10202294967E+01  0.10199541716E+01 0.  0.
     999903    2    3    3    0    0 -0.90503328141E-01  0.36178959367E-01 -0.83292806229E-01  0.12982079455E+00  0.20395529497E-01 0.  0.
         14    1    1    2    0    0  0.82590366546E-02  0.20455770279E-01 -0.86639270510E-02  0.23700503288E-01  0.00000000000E+00 0. -1.
     999901    1    3    3    0    0  0.82244291486E-01 -0.56634729645E-01  0.91956733281E-01  0.89040870216E+00  0.88000000000E+00 0.  1.
        -11    1    4    4    0    0 -0.22661013883E-01  0.10277681024E-01 -0.33651821473E-01  0.41855208599E-01  0.51100000000E-03 0.  1.
         11    1    4    4    0    0 -0.67842314258E-01  0.25901278343E-01 -0.49640984756E-01  0.87965585954E-01  0.51100000000E-03 0. -1.
</event>
<event>
 8    1  0.1064839E+005  0.1043930E+01  0.7957747E-01            NaN
         13   -1    0    0    0    0  0.00000000000E+00  0.00000000000E+00  0.74505805969E-08  0.10566000000E+00  0.10566000000E+00 0.  1.
     999900   -1    0    0    0    0 -0.00000000000E+00 -0.00000000000E+00 -0.74505805969E-08  0.93827000000E+00  0.93827000000E+00 0.  1.
     999902    2    1    2    0    0  0.24253432463E-01  0.20392695794E-02  0.43659595859E-03  0.10195870704E+01  0.10192964318E+01 0.  0.
     999903    2    3    3    0    0  0.69349715289E-01  0.25744174067E-01 -0.10694349871E+00  0.13159715942E+00  0.20217688873E-01 0.  0.
         14    1    1    2    0    0 -0.24253432463E-01 -0.20392695794E-02 -0.43659595859E-03  0.24342929624E-01  0.00000000000E+00 0. -1.
     999901    1    3    3    0    0 -0.45096282826E-01 -0.23704904488E-01  0.10738009467E+00  0.88798991095E+00  0.88000000000E+00 0. -1.
        -11    1    4    4    0    0  0.23559516996E-01  0.14113423439E-02 -0.23206000742E-01  0.33103207092E-01  0.51100000000E-03 0. -1.
         11    1    4    4    0    0  0.45790198293E-01  0.24332831723E-01 -0.83737497967E-01  0.98493952333E-01  0.51100000000E-03 0.  1.
</event>
<event>
 8    1  0.1064839E+005  0.1043930E+01  0.7957747E-01            NaN
         13   -1    0    0    0    0  0.00000000000E+00  0.00000000000E+00  0.74505805969E-08  0.10566000000E+00  0.10566000000E+00 0. -1.
     999900   -1    0    0    0    0 -0.00000000000E+00 -0.00000000000E+00 -0.74505805969E-08  0.93827000000E+00  0.93827000000E+00 0.  1.
     999902    2    1    2    0    0 -0.56718898318E-02  0.16028556573E-01  0.13579692505E-01  0.10221701055E+01  0.10219384676E+01 0.  0.
     999903    2    3    3    0    0 -0.76613446126E-01  0.99433291171E-01  0.44840131345E-01  0.13483349001E+00  0.20318295391E-01 0.  0.
         14    1    1    2    0    0  0.56718898318E-02 -0.16028556573E-01 -0.13579692505E-01  0.21759894499E-01  0.00000000000E+00 0.  1.
     999901    1    3    3    0    0  0.70941556294E-01 -0.83404734598E-01 -0.31260438840E-01  0.88733661550E+00  0.88000000000E+00 0.  1.
        -11    1    4    4    0    0 -0.29696363485E-01  0.54825966798E-01  0.24153330166E-01  0.66868565999E-01  0.51100000000E-03 0. -1.
         11    1    4    4    0    0 -0.46917082641E-01  0.44607324373E-01  0.20686801179E-01  0.67964924007E-01  0.51100000000E-03 0.  1.
</event>
<event>
 8    1  0.1064839E+005  0.1043930E+01  0.7957747E-01            NaN
         13   -1    0    0    0    0  0.00000000000E+00  0.00000000000E+00  0.74505805969E-08  0.10566000000E+00  0.10566000000E+00 0.  1.
     999900   -1    0    0    0    0 -0.00000000000E+00 -0.00000000000E+00 -0.74505805969E-08  0.93827000000E+00  0.93827000000E+00 0.  1.
     999902    2    1    2    0    0  0.17008252978E-01  0.11163278961E-01 -0.15832530144E-01  0.10181507743E+01  0.10178243614E+01 0.  0.
     999903    2    3    3    0    0 -0.47243508339E-01 -0.18750179100E-01 -0.11727062099E+00  0.12949291547E+00  0.20796593756E-01 0.  0.
         14    1    1    2    0    0 -0.17008252978E-01 -0.11163278961E-01  0.15832530144E-01  0.25779225692E-01  0.00000000000E+00 0.  1.
     999901    1    3    3    0    0  0.64251761317E-01  0.29913458061E-01  0.10143809085E+00  0.88865785884E+00  0.88000000000E+00 0. -1.
        -11    1    4    4    0    0 -0.23910019938E-01  0.97222665556E-03 -0.59618309843E-01  0.64243585420E-01  0.51100000000E-03 0. -1.
         11    1    4    4    0    0 -0.23333488401E-01 -0.19722405756E-01 -0.57652311149E-01  0.65249330047E-01  0.51100000000E-03 0.  1.
</event>
<event>
 8    1  0.1064839E+005  0.1043930E+01  0.7957747E-01            NaN
         13   -1    0    0    0    0  0.00000000000E+00  0.00000000000E+00  0.74505805969E-08  0.10566000000E+00  0.10566000000E+00 0. -1.
     999900   -1    0    0    0    0 -0.00000000000E+00 -0.00000000000E+00 -0.74505805969E-08  0.93827000000E+00  0.93827000000E+00 0.  1.
     999902    2    1    2    0    0  0.15122585714E-01  0.27127970393E-02 -0.18419360429E-01  0.10199440728E+01  0.10196619964E+01 0.  0.
     999903    2    3    3    0    0 -0.27107282521E-01 -0.98082137904E-01 -0.80070602912E-01  0.13104370919E+00  0.20155439090E-01 0.  0.
         14    1    1    2    0    0 -0.15122585714E-01 -0.27127970393E-02  0.18419360429E-01  0.23985927230E-01  0.00000000000E+00 0. -1.
     999901    1    3    3    0    0  0.42229868235E-01  0.10079493494E+00  0.61651242483E-01  0.88890036358E+00  0.88000000000E+00 0. -1.
        -11    1    4    4    0    0 -0.27888479157E-01 -0.84624404765E-01 -0.62254518720E-01  0.10869656560E+00  0.51100000000E-03 0.  1.
         11    1    4    4    0    0  0.78119663612E-03 -0.13457733139E-01 -0.17816084192E-01  0.22347143584E-01  0.51100000000E-03 0. -1.
</event>
<event>
 8    1  0.1064839E+005  0.1043930E+01  0.7957747E-01            NaN
         13   -1    0    0    0    0  0.00000000000E+00  0.00000000000E+00  0.74505805969E-08  0.10566000000E+00  0.10566000000E+00 0. -1.
     999900   -1    0    0    0    0 -0.00000000000E+00 -0.00000000000E+00 -0.74505805969E-08  0.93827000000E+00  0.93827000000E+00 0. -1.
     999902    2    1    2    0    0  0.19464932688E-01  0.75826932804E-02 -0.10866673946E-01  0.10203829101E+01  0.10201111791E+01 0.  0.
     999903    2    3    3    0    0  0.11574307491E+00 -0.25877570359E-01  0.53522557670E-01  0.13216275545E+00  0.23156461551E-01 0.  0.
         14    1    1    2    0    0 -0.19464932688E-01 -0.75826932804E-02  0.10866673946E-01  0.23547089939E-01  0.00000000000E+00 0. -1.
     999901    1    3    3    0    0 -0.96278142219E-01  0.33460263639E-01 -0.64389231616E-01  0.88822015461E+00  0.88000000000E+00 0. -1.
        -11    1    4    4    0    0  0.58781130871E-01 -0.46258856530E-02  0.35155240145E-01  0.68649633613E-01  0.51100000000E-03 0.  1.
         11    1    4    4    0    0  0.56961944037E-01 -0.21251684706E-01  0.18367317525E-01  0.63513121836E-01  0.51100000000E-03 0. -1.
</event>
<event>
 8    1  0.1064839E+005  0.1043930E+01  0.7957747E-01            NaN
         13   -1    0    0    0    0  0.00000000000E+00  0.00000000000E+00  0.74505805969E-08  0.10566000000E+00  0.10566000000E+00 0.  1.
     999900   -1    0    0    0    0 -0.00000000000E+00 -0.00000000000E+00 -0.74505805969E-08  0.93827000000E+00  0.93827000000E+00 0. -1.
     999902    2    1    2    0    0  0.82101549718E-03  0.19901220210E-01 -0.37772696494E-02  0.10236568552E+01  0.10234560845E+01 0.  0.
     999903    2    3    3    0    0  0.70724995115E-01 -0.65213857612E-01  0.87936606678E-01  0.13206133151E+00  0.21271490927E-01 0.  0.
         14    1    1    2    0    0 -0.82101549718E-03 -0.19901220210E-01  0.37772696494E-02  0.20273144756E-01  0.00000000000E+00 0. -1.
     999901    1    3    3    0    0 -0.69903979618E-01  0.85115077822E-01 -0.91713876327E-01  0.89159552374E+00  0.88000000000E+00 0. -1.
        -11    1    4    4    0    0  0.19902575037E-01 -0.26820556365E-01  0.41300811151E-01  0.53117538154E-01  0.51100000000E-03 0. -1.
         11    1    4    4    0    0  0.50822420079E-01 -0.38393301247E-01  0.46635795527E-01  0.78943793352E-01  0.51100000000E-03 0.  1.
</event>
<event>
 8    1  0.1064839E+005  0.1043930E+01  0.7957747E-01            NaN
         13   -1    0    0    0    0  0.00000000000E+00  0.00000000000E+00  0.74505805969E-08  0.10566000000E+00  0.10566000000E+00 0.  1.
     999900   -1    0    0    0    0 -0.00000000000E+00 -0.00000000000E+00 -0.74505805969E-08  0.93827000000E+00  0.93827000000E+00 0.  1.
     999902    2    1    2    0    0  0.53582300736E-02 -0.14055063882E-01  0.18517733160E-01  0.10200728859E+01  0.10197938668E+01 0.  0.
     999903    2    3    3    0    0  0.67334879090E-01 -0.32675474942E-01 -0.10339095068E+00  0.12931503336E+00  0.20760938436E-01 0.  0.
         14    1    1    2    0    0 -0.53582300736E-02  0.14055063882E-01 -0.18517733160E-01  0.23857114068E-01  0.00000000000E+00 0. -1.
     999901    1    3    3    0    0 -0.61976649016E-01  0.18620411060E-01  0.12190868384E+00  0.89075785258E+00  0.88000000000E+00 0.  1.
        -11    1    4    4    0    0  0.42948265646E-01 -0.15232261041E-01 -0.76453547088E-01  0.89005512648E-01  0.51100000000E-03 0. -1.
         11    1    4    4    0    0  0.24386613443E-01 -0.17443213901E-01 -0.26937403591E-01  0.40309520707E-01  0.51100000000E-03 0.  1.
</event>
<event>
 8    1  0.1064839E+005  0.1043930E+01  0.7957747E-01            NaN
         13   -1    0    0    0    0  0.00000000000E+00  0.00000000000E+00  0.74505805969E-08  0.10566000000E+00  0.10566000000E+00 0. -1.
     999900   -1    0    0    0    0 -0.00000000000E+00 -0.00000000000E+00 -0.74505805969E-08  0.93827000000E+00  0.93827000000E+00 0.  1.
     999902    2    1    2    0    0 -0.17747363528E-01 -0.12015789165E-01 -0.10575081732E-01  0.10200306181E+01  0.10197505977E+01 0.  0.
     999903    2    3    3    0    0  0.12562640365E-01 -0.99217465395E-01  0.81124033124E-01  0.13046243278E+00  0.20914402789E-01 0.  0.
         14    1    1    2    0    0  0.17747363528E-01  0.12015789165E-01  0.10575081732E-01  0.23899381898E-01  0.00000000000E+00 0. -1.
     999901    1    3    3    0    0 -0.30310003893E-01  0.87201676230E-01 -0.91699114856E-01  0.88956818532E+00  0.88000000000E+00 0.  1.
        -11    1    4    4    0    0  0.11395428310E-01 -0.40021654437E-01  0.44073039250E-01  0.60615860301E-01  0.51100000000E-03 0.  1.
         11    1    4    4    0    0  0.11672120547E-02 -0.59195810958E-01  0.37050993874E-01  0.69846572478E-01  0.51100000000E-03 0. -1.
</event>
<event>
 8    1  0.1064839E+005  0.1043930E+01  0.7957747E-01            NaN
         13   -1    0    0    0    0  0.00000000000E+00  0.00000000000E+00  0.74505805969E-08  0.10566000000E+00  0.10566000000E+00 0.  1.
     999900   -1    0    0    0    0 -0.00000000000E+00 -0.00000000000E+00 -0.74505805969E-08  0.93827000000E+00  0.93827000000E+00 0.  1.
     999902    2    1    2    0    0 -0.62016245748E-02  0.13080548821E-01 -0.18913027799E-01  0.10201127053E+01  0.10198346278E+01 0.  0.
     999903    2    3    3    0    0 -0.82188710698E-03 -0.12667289681E+00 -0.11764839259E-01  0.12903972081E+00  0.21590271412E-01 0.  0.
         14    1    1    2    0    0  0.62016245748E-02 -0.13080548821E-01  0.18913027799E-01  0.23817294669E-01  0.00000000000E+00 0.  1.
     999901    1    3    3    0    0 -0.53797374678E-02  0.13975344563E+00 -0.71481885397E-02  0.89107298452E+00  0.88000000000E+00 0.  1.
        -11    1    4    4    0    0 -0.61675405170E-02 -0.71671619752E-01  0.24428860767E-02  0.71979778044E-01  0.51100000000E-03 0. -1.
         11    1    4    4    0    0  0.53456534101E-02 -0.55001277059E-01 -0.14207725336E-01  0.57059942768E-01  0.51100000000E-03 0.  1.
</event>
<event>
 8    1  0.1064839E+005  0.1043930E+01  0.7957747E-01            NaN
         13   -1    0    0    0    0  0.00000000000E+00  0.00000000000E+00  0.74505805969E-08  0.10566000000E+00  0.10566000000E+00 0. -1.
     999900   -1    0    0    0    0 -0.00000000000E+00 -0.00000000000E+00 -0.74505805969E-08  0.93827000000E+00  0.93827000000E+00 0.  1.
     999902    2    1    2    0    0 -0.59320755164E-02 -0.20693458361E-01 -0.75301748578E-02  0.10211240299E+01  0.10208693218E+01 0.  0.
     999903    2    3    3    0    0  0.11941011464E+00 -0.50671190860E-01 -0.11845035491E-01  0.13172651073E+00  0.19627116535E-01 0.  0.
         14    1    1    2    0    0  0.59320755164E-02  0.20693458361E-01  0.75301748578E-02  0.22805970102E-01  0.00000000000E+00 0.  1.
     999901    1    3    3    0    0 -0.12534219015E+00  0.29977732498E-01  0.43148606329E-02  0.88939751917E+00  0.88000000000E+00 0. -1.
        -11    1    4    4    0    0  0.92476604072E-01 -0.47674286708E-01 -0.10791145404E-01  0.10460148113E+00  0.51100000000E-03 0.  1.
         11    1    4    4    0    0  0.26933510563E-01 -0.29969041516E-02 -0.10538900865E-02  0.27125029605E-01  0.51100000000E-03 0. -1.
</event>
<event>
 8    1  0.1064839E+005  0.1043930E+01  0.7957747E-01            NaN
         13   -1    0    0    0    0  0.00000000000E+00  0.00000000000E+00  0.74505805969E-08  0.10566000000E+00  0.10566000000E+00 0.  1.
     999900   -1    0    0    0    0 -0.00000000000E+00 -0.00000000000E+00 -0.74505805969E-08  0.93827000000E+00  0.93827000000E+00 0.  1.
     999902    2    1    2    0    0  0.15721988231E-01  0.23396783147E-01 -0.16232774114E-01  0.10114016534E+01  0.10108784354E+01 0.  0.
     999903    2    3    3    0    0 -0.85366708052E-01  0.70526193630E-01  0.47268495417E-01  0.12209151794E+00  0.20263495785E-01 0.  0.
         14    1    1    2    0    0 -0.15721988231E-01 -0.23396783147E-01  0.16232774114E-01  0.32528346577E-01  0.00000000000E+00 0.  1.
     999901    1    3    3    0    0  0.10108869628E+00 -0.47129410482E-01 -0.63501269531E-01  0.88931013549E+00  0.88000000000E+00 0. -1.
        -11    1    4    4    0    0 -0.19249842882E-01  0.20540430257E-01  0.35409711162E-02  0.28377197246E-01  0.51100000000E-03 0. -1.
         11    1    4    4    0    0 -0.66116865170E-01  0.49985763373E-01  0.43727524301E-01  0.93714320690E-01  0.51100000000E-03 0.  1.
</event>
<event>
 8    1  0.1064839E+005  0.1043930E+01  0.7957747E-01            NaN
         13   -1    0    0    0    0  0.00000000000E+00  0.00000000000E+00  0.74505805969E-08  0.10566000000E+00  0.10566000000E+00 0.  1.
     999900   -1    0    0    0    0 -0.00000000000E+00 -0.00000000000E+00 -0.74505805969E-08  0.93827000000E+00  0.93827000000E+00 0.  1.
     999902    2    1    2    0    0  0.19067145711E-01 -0.11495453868E-01 -0.74809917184E-02  0.10204424130E+01  0.10201720696E+01 0.  0.
     999903    2    3    3    0    0 -0.11516785653E+00 -0.20742641535E-01  0.48925417747E-01  0.12842995271E+00  0.20165909259E-01 0.  0.
         14    1    1    2    0    0 -0.19067145711E-01  0.11495453868E-01  0.74809917184E-02  0.23487586984E-01  0.00000000000E+00 0.  1.
     999901    1    3    3    0    0  0.13423500224E+00  0.92471876667E-02 -0.56406409465E-01  0.89201246030E+00  0.88000000000E+00 0.  1.
        -11    1    4    4    0    0 -0.56009225099E-01 -0.91585978984E-03  0.18361613842E-01  0.58951523129E-01  0.51100000000E-03 0. -1.
         11    1    4    4    0    0 -0.59158631433E-01 -0.19826781745E-01  0.30563803905E-01  0.69478429585E-01  0.51100000000E-03 0.  1.
</event>
<event>
 8    1  0.1064839E+005  0.1043930E+01  0.7957747E-01            NaN
         13   -1    0    0    0    0  0.00000000000E+00  0.00000000000E+00  0.74505805969E-08  0.10566000000E+00  0.10566000000E+00 0.  1.
     999900   -1    0    0    0    0 -0.00000000000E+00 -0.00000000000E+00 -0.74505805969E-08  0.93827000000E+00  0.93827000000E+00 0.  1.
     999902    2    1    2    0    0 -0.19678913653E-01  0.82990188212E-02 -0.10094874812E-01  0.10203071328E+01  0.10200336296E+01 0.  0.
     999903    2    3    3    0    0  0.11754974979E+00  0.47803389470E-01 -0.39253714845E-02  0.12877453996E+00  0.21549150376E-01 0.  0.
         14    1    1    2    0    0  0.19678913653E-01 -0.82990188212E-02  0.10094874812E-01  0.23622867172E-01  0.00000000000E+00 0.  1.
     999901    1    3    3    0    0 -0.13722866344E+00 -0.39504370649E-01 -0.61695033277E-02  0.89153259287E+00  0.88000000000E+00 0. -1.
        -11    1    4    4    0    0  0.84448803014E-01  0.44248762449E-01 -0.48843457650E-02  0.95465550139E-01  0.51100000000E-03 0.  1.
         11    1    4    4    0    0  0.33100946772E-01  0.35546270209E-02  0.95897428051E-03  0.33308989824E-01  0.51100000000E-03 0. -1.
</event>
<event>
 8    1  0.1064839E+005  0.1043930E+01  0.7957747E-01            NaN
         13   -1    0    0    0    0  0.00000000000E+00  0.00000000000E+00  0.74505805969E-08  0.10566000000E+00  0.10566000000E+00 0. -1.
     999900   -1    0    0    0    0 -0.00000000000E+00 -0.00000000000E+00 -0.74505805969E-08  0.93827000000E+00  0.93827000000E+00 0. -1.
     999902    2    1    2    0    0 -0.15321674694E-02  0.21853416107E-01 -0.88794396875E-02  0.10202918152E+01  0.10200179529E+01 0.  0.
     999903    2    3    3    0    0  0.52611661146E-01 -0.11270746361E+00 -0.22683028052E-01  0.12831158917E+00  0.21872012057E-01 0.  0.
         14    1    1    2    0    0  0.15321674694E-02 -0.21853416107E-01  0.88794396875E-02  0.23638184826E-01  0.00000000000E+00 0. -1.
     999901    1    3    3    0    0 -0.54143828615E-01  0.13456087972E+00  0.13803588364E-01  0.89198022600E+00  0.88000000000E+00 0.  1.
        -11    1    4    4    0    0  0.34627580489E-01 -0.90560275360E-01 -0.11384921141E-01  0.97622284107E-01  0.51100000000E-03 0.  1.
         11    1    4    4    0    0  0.17984080656E-01 -0.22147188253E-01 -0.11298106911E-01  0.30689305064E-01  0.51100000000E-03 0. -1.
</event>
<event>
 8    1  0.1064839E+005  0.1043930E+01  0.7957747E-01            NaN
         13   -1    0    0    0    0  0.00000000000E+00  0.00000000000E+00  0.74505805969E-08  0.10566000000E+00  0.10566000000E+00 0. -1.
     999900   -1    0    0    0    0 -0.00000000000E+00 -0.00000000000E+00 -0.74505805969E-08  0.93827000000E+00  0.93827000000E+00 0.  1.
     999902    2    1    2    0    0 -0.93866587999E-02 -0.18700965041E-01 -0.95573811188E-02  0.10209261092E+01  0.10206669102E+01 0.  0.
     999903    2    3    3    0    0  0.58803277751E-01 -0.58783973575E-01 -0.10136960933E+00  0.13262098132E+00  0.19978637748E-01 0.  0.
         14    1    1    2    0    0  0.93866587999E-02  0.18700965041E-01  0.95573811188E-02  0.23003890774E-01  0.00000000000E+00 0.  1.
     999901    1    3    3    0    0 -0.68189936551E-01  0.40083008534E-01  0.91812228212E-01  0.88830512791E+00  0.88000000000E+00 0. -1.
        -11    1    4    4    0    0  0.21086188546E-01 -0.14648361848E-01 -0.44330948877E-01  0.51231787023E-01  0.51100000000E-03 0.  1.
         11    1    4    4    0    0  0.37717089205E-01 -0.44135611726E-01 -0.57038660454E-01  0.81389194295E-01  0.51100000000E-03 0. -1.
</event>
<event>
 8    1  0.1064839E+005  0.1043930E+01  0.7957747E-01            NaN
         13   -1    0    0    0    0  0.00000000000E+00  0.00000000000E+00  0.74505805969E-08  0.10566000000E+00  0.10566000000E+00 0.  1.
     999900   -1    0    0    0    0 -0.00000000000E+00 -0.00000000000E+00 -0.74505805969E-08  0.93827000000E+00  0.93827000000E+00 0. -1.
     999902    2    1    2    0    0 -0.15609035669E-01 -0.76125792808E-02 -0.16090431429E-01  0.10202552172E+01  0.10199804963E+01 0.  0.
     999903    2    3    3    0    0 -0.27207961363E-01  0.35279869978E-01 -0.12321916295E+00  0.13264558317E+00  0.20662677214E-01 0.  0.
         14    1    1    2    0    0  0.15609035669E-01  0.76125792808E-02  0.16090431429E-01  0.23674782816E-01  0.00000000000E+00 0. -1.
     999901    1    3    3    0    0  0.11598925695E-01 -0.42892449258E-01  0.10712873152E+00  0.88760963402E+00  0.88000000000E+00 0.  1.
        -11    1    4    4    0    0 -0.11936309539E-01  0.23156230400E-01 -0.44701642715E-01  0.51741515963E-01  0.51100000000E-03 0.  1.
         11    1    4    4    0    0 -0.15271651824E-01  0.12123639578E-01 -0.78517520232E-01  0.80904067205E-01  0.51100000000E-03 0. -1.
</event>
<event>
 8    1  0.1064839E+005  0.1043930E+01  0.7957747E-01            NaN
         13   -1    0    0    0    0  0.00000000000E+00  0.00000000000E+00  0.74505805969E-08  0.10566000000E+00  0.10566000000E+00 0. -1.
     999900   -1    0    0    0    0 -0.00000000000E+00 -0.00000000000E+00 -0.74505805969E-08  0.93827000000E+00  0.93827000000E+00 0.  1.
     999902    2    1    2    0    0 -0.23105064120E-01  0.47582768473E-02 -0.42204690341E-02  0.10199654941E+01  0.10196839273E+01 0.  0.
     999903    2    3    3    0    0  0.97291777805E-01 -0.55901101625E-01 -0.58263751696E-01  0.12805987340E+00  0.20348052070E-01 0.  0.
         14    1    1    2    0    0  0.23105064120E-01 -0.47582768473E-02  0.42204690341E-02  0.23964505949E-01  0.00000000000E+00 0.  1.
     999901    1    3    3    0    0 -0.12039684192E+00  0.60659378472E-01  0.54043282662E-01  0.89190562065E+00  0.88000000000E+00 0.  1.
        -11    1    4    4    0    0  0.78534623201E-01 -0.46531226643E-01 -0.55682347434E-01  0.10692813957E+00  0.51100000000E-03 0. -1.
         11    1    4    4    0    0  0.18757154603E-01 -0.93698749819E-02 -0.25814042617E-02  0.21131733837E-01  0.51100000000E-03 0.  1.
</event>
<event>
 8    1  0.1064839E+005  0.1043930E+01  0.7957747E-01            NaN
         13   -1    0    0    0    0  0.00000000000E+00  0.00000000000E+00  0.74505805969E-08  0.10566000000E+00  0.10566000000E+00 0. -1.
     999900   -1    0    0    0    0 -0.00000000000E+00 -0.00000000000E+00 -0.74505805969E-08  0.93827000000E+00  0.93827000000E+00 0.  1.
     999902    2    1    2    0    0 -0.32546606664E-02  0.15647303459E-01 -0.18172535677E-01  0.10197293394E+01  0.10194421286E+01 0.  0.
     999903    2    3    3    0    0 -0.85639679355E-01  0.74901834171E-01  0.60532400865E-01  0.13040776776E+00  0.19939280200E-01 0.  0.
         14    1    1    2    0    0  0.32546606664E-02 -0.15647303459E-01  0.18172535677E-01  0.24200660622E-01  0.00000000000E+00 0. -1.
     999901    1    3    3    0    0  0.82385018688E-01 -0.59254530712E-01 -0.78704936542E-01  0.88932157162E+00  0.88000000000E+00 0.  1.
        -11    1    4    4    0    0 -0.11525298038E-01  0.20534211494E-01  0.13668230122E-01  0.27231745670E-01  0.51100000000E-03 0. -1.
         11    1    4    4    0    0 -0.74114381316E-01  0.54367622677E-01  0.46864170743E-01  0.10317602209E+00  0.51100000000E-03 0.  1.
</event>
<event>
 8    1  0.1064839E+005  0.1043930E+01  0.7957747E-01            NaN
         13   -1    0    0    0    0  0.00000000000E+00  0.00000000000E+00  0.74505805969E-08  0.10566000000E+00  0.10566000000E+00 0.  1.
     999900   -1    0    0    0    0 -0.00000000000E+00 -0.00000000000E+00 -0.74505805969E-08  0.93827000000E+00  0.93827000000E+00 0. -1.
     999902    2    1    2    0    0 -0.20280550597E-01  0.11040313799E-01  0.50019600055E-02  0.10203035558E+01  0.10200299687E+01 0.  0.
     999903    2    3    3    0    0  0.61572108007E-02  0.11769735466E+00  0.57031679285E-01  0.13194452294E+00  0.16314599391E-01 0.  0.
         14    1    1    2    0    0  0.20280550597E-01 -0.11040313799E-01 -0.50019600055E-02  0.23626444193E-01  0.00000000000E+00 0.  1.
     999901    1    3    3    0    0 -0.26437761398E-01 -0.10665704086E+00 -0.52029719279E-01  0.88835903287E+00  0.88000000000E+00 0. -1.
        -11    1    4    4    0    0  0.10214817964E-01  0.69103513182E-01  0.38603629479E-01  0.79813152864E-01  0.51100000000E-03 0.  1.
         11    1    4    4    0    0 -0.40576071629E-02  0.48593841475E-01  0.18428049805E-01  0.52131370074E-01  0.51100000000E-03 0. -1.
</event>
<event>
 8    1  0.1064839E+005  0.1043930E+01  0.7957747E-01            NaN
         13   -1    0    0    0    0  0.00000000000E+00  0.00000000000E+00  0.74505805969E-08  0.10566000000E+00  0.10566000000E+00 0. -1.
     999900   -1    0    0    0    0 -0.00000000000E+00 -0.00000000000E+00 -0.74505805969E-08  0.93827000000E+00  0.93827000000E+00 0.  1.
     999902    2    1    2    0    0  0.10221320310E-01  0.73054372745E-02  0.16655117087E-01  0.10230676481E+01  0.10228549139E+01 0.  0.
     999903    2    3    3    0    0  0.90296390457E-01  0.94969219982E-01  0.25900620049E-01  0.13504600702E+00  0.19849207027E-01 0.  0.
         14    1    1    2    0    0 -0.10221320310E-01 -0.73054372745E-02 -0.16655117087E-01  0.20862351925E-01  0.00000000000E+00 0. -1.
     999901    1    3    3    0    0 -0.80075070147E-01 -0.87663782708E-01 -0.92455029615E-02  0.88802164106E+00  0.88000000000E+00 0. -1.
        -11    1    4    4    0    0  0.11401557479E-01  0.40399582177E-02  0.34005843104E-02  0.12575447109E-01  0.51100000000E-03 0. -1.
         11    1    4    4    0    0  0.78894832978E-01  0.90929261764E-01  0.22500035738E-01  0.12247055991E+00  0.51100000000E-03 0.  1.
</event>
<event>
 8    1  0.1064839E+005  0.1043930E+01  0.7957747E-01            NaN
         13   -1    0    0    0    0  0.00000000000E+00  0.00000000000E+00  0.74505805969E-08  0.10566000000E+00  0.10566000000E+00 0.  1.
     999900   -1    0    0    0    0 -0.00000000000E+00 -0.00000000000E+00 -0.74505805969E-08  0.93827000000E+00  0.93827000000E+00 0. -1.
     999902    2    1    2    0    0  0.15316424322E-01  0.88622642410E-02  0.14914378194E-01  0.10207875875E+01  0.10205252214E+01 0.  0.
     999903    2    3    3    0    0 -0.10890293038E+00  0.46012826421E-01 -0.47524527394E-01  0.12909861181E+00  0.20756744168E-01 0.  0.
         14    1    1    2    0    0 -0.15316424322E-01 -0.88622642410E-02 -0.14914378194E-01  0.23142412545E-01  0.00000000000E+00 0. -1.
     999901    1    3    3    0    0  0.12421935470E+00 -0.37150562179E-01  0.62438905588E-01  0.89168897564E+00  0.88000000000E+00 0. -1.
        -11    1    4    4    0    0 -0.91768459393E-01  0.42287154802E-01 -0.32916619437E-01  0.10627049711E+00  0.51100000000E-03 0.  1.
         11    1    4    4    0    0 -0.17134470983E-01  0.37256716187E-02 -0.14607907956E-01  0.22828114699E-01  0.51100000000E-03 0. -1.
</event>
<event>
 8    1  0.1064839E+005  0.1043930E+01  0.7957747E-01            NaN
         13   -1    0    0    0    0  0.00000000000E+00  0.00000000000E+00  0.74505805969E-08  0.10566000000E+00  0.10566000000E+00 0.  1.
     999900   -1    0    0    0    0 -0.00000000000E+00 -0.00000000000E+00 -0.74505805969E-08  0.93827000000E+00  0.93827000000E+00 0.  1.
     999902    2    1    2    0    0  0.16107826118E-01  0.18429415403E-01 -0.19154975409E-02  0.10193785327E+01  0.10190828320E+01 0.  0.
     999903    2    3    3    0    0  0.62437241173E-01  0.55217572323E-01 -0.10004276683E+00  0.13195036991E+00  0.21329686943E-01 0.  0.
         14    1    1    2    0    0 -0.16107826118E-01 -0.18429415403E-01  0.19154975409E-02  0.24551467271E-01  0.00000000000E+00 0.  1.
     999901    1    3    3    0    0 -0.46329415055E-01 -0.36788156920E-01  0.98127269290E-01  0.88742816282E+00  0.88000000000E+00 0. -1.
        -11    1    4    4    0    0  0.57333573677E-01  0.47395542235E-01 -0.76916725671E-01  0.10700429853E+00  0.51100000000E-03 0.  1.
         11    1    4    4    0    0  0.51036674962E-02  0.78220300884E-02 -0.23126041160E-01  0.24946071381E-01  0.51100000000E-03 0. -1.
</event>
<event>
 8    1  0.1064839E+005  0.1043930E+01  0.7957747E-01            NaN
         13   -1    0    0    0    0  0.00000000000E+00  0.00000000000E+00  0.74505805969E-08  0.10566000000E+00  0.10566000000E+00 0. -1.
     999900   -1    0    0    0    0 -0.00000000000E+00 -0.00000000000E+00 -0.74505805969E-08  0.93827000000E+00  0.93827000000E+00 0.  1.
     999902    2    1    2    0    0 -0.45441901492E-02  0.86841959591E-02  0.22225438044E-01  0.10196393635E+01  0.10193499873E+01 0.  0.
     999903    2    3    3    0    0 -0.21379240621E-01  0.11396785544E+00  0.61558607147E-01  0.13233154430E+00  0.16626229280E-01 0.  0.
         14    1    1    2    0    0  0.45441901492E-02 -0.86841959591E-02 -0.22225438044E-01  0.24290636464E-01  0.00000000000E+00 0.  1.
     999901    1    3    3    0    0  0.16835050472E-01 -0.10528365948E+00 -0.39333169103E-01  0.88730781923E+00  0.88000000000E+00 0.  1.
        -11    1    4    4    0    0 -0.16039087439E-01  0.75387445549E-01  0.32095155619E-01  0.83491792456E-01  0.51100000000E-03 0. -1.
         11    1    4    4    0    0 -0.53401531815E-02  0.38580409894E-01  0.29463451528E-01  0.48839751848E-01  0.51100000000E-03 0.  1.
</event>
<event>
 8    1  0.1064839E+005  0.1043930E+01  0.7957747E-01            NaN
         13   -1    0    0    0    0  0.00000000000E+00  0.00000000000E+00  0.74505805969E-08  0.10566000000E+00  0.10566000000E+00 0.  1.
     999900   -1    0    0    0    0 -0.00000000000E+00 -0.00000000000E+00 -0.74505805969E-08  0.93827000000E+00  0.93827000000E+00 0.  1.
     999902    2    1    2    0    0 -0.21095136931E-01  0.49438296007E-02  0.87794510828E-02  0.10205521255E+01  0.10202843309E+01 0.  0.
     999903    2    3    3    0    0 -0.96090261909E-01  0.89410149490E-01 -0.10702117097E-01  0.13311854522E+00  0.19455038059E-01 0.  0.
         14    1    1    2    0    0  0.21095136931E-01 -0.49438296007E-02 -0.87794510828E-02  0.23377874467E-01  0.00000000000E+00 0.  1.
     999901    1    3    3    0    0  0.74995124978E-01 -0.84466319890E-01  0.19481568180E-01  0.88743358031E+00  0.88000000000E+00 0. -1.
        -11    1    4    4    0    0 -0.22734328977E-01  0.10831242410E-01 -0.22331961871E-02  0.25286633077E-01  0.51100000000E-03 0.  1.
         11    1    4    4    0    0 -0.73355932932E-01  0.78578907080E-01 -0.84689209103E-02  0.10783191214E+00  0.51100000000E-03 0. -1.
</event>
<event>
 8    1  0.1064839E+005  0.1043930E+01  0.7957747E-01            NaN
         13   -1    0    0    0    0  0.00000000000E+00  0.00000000000E+00  0.74505805969E-08  0.10566000000E+00  0.10566000000E+00 0.  1.
     999900   -1    0    0    0    0 -0.00000000000E+00 -0.00000000000E+00 -0.74505805969E-08  0.93827000000E+00  0.93827000000E+00 0.  1.
     999902    2    1    2    0    0 -0.68208623035E-02  0.21812914048E-01 -0.38313500015E-02  0.10207565966E+01  0.10204935193E+01 0.  0.
     999903    2    3    3    0    0 -0.50237153233E-01 -0.11513294807E+00 -0.25467473267E-01  0.12884445671E+00  0.13150457606E-01 0.  0.
         14    1    1    2    0    0  0.68208623035E-02 -0.21812914048E-01  0.38313500015E-02  0.23173403389E-01  0.00000000000E+00 0.  1.
     999901    1    3    3    0    0  0.43416290930E-01  0.13694586211E+00  0.21636123265E-01  0.89191213990E+00  0.88000000000E+00 0. -1.
        -11    1    4    4    0    0 -0.42241467412E-01 -0.82334563860E-01 -0.18663547361E-01  0.94402918897E-01  0.51100000000E-03 0. -1.
         11    1    4    4    0    0 -0.79956858208E-02 -0.32798384207E-01 -0.68039259060E-02  0.34441537815E-01  0.51100000000E-03 0.  1.
</event>
<event>
 8    1  0.1064839E+005  0.1043930E+01  0.7957747E-01            NaN
         13   -1    0    0    0    0  0.00000000000E+00  0.00000000000E+00  0.74505805969E-08  0.10566000000E+00  0.10566000000E+00 0. -1.
     999900   -1    0    0    0    0 -0.00000000000E+00 -0.00000000000E+00 -0.74505805969E-08  0.93827000000E+00  0.93827000000E+00 0.  1.
     999902    2    1    2    0    0  0.20319794274E-01 -0.10309078830E-01 -0.60118785529E-02  0.10203649023E+01  0.10200927507E+01 0.  0.
     999903    2    3    3    0    0 -0.50003950347E-01 -0.11775742525E+00 -0.18754347672E-01  0.13095332900E+00  0.20732644963E-01 0.  0.
         14    1    1    2    0    0 -0.20319794274E-01  0.10309078830E-01  0.60118785529E-02  0.23565097695E-01  0.00000000000E+00 0.  1.
     999901    1    3    3    0    0  0.70323744621E-01  0.10744834642E+00  0.12742469119E-01  0.88941157330E+00  0.88000000000E+00 0.  1.
        -11    1    4    4    0    0 -0.11062476192E-01 -0.52092667959E-01 -0.73831059860E-02  0.53766121392E-01  0.51100000000E-03 0.  1.
         11    1    4    4    0    0 -0.38941474155E-01 -0.65664757295E-01 -0.11371241685E-01  0.77187207609E-01  0.51100000000E-03 0. -1.
</event>
<event>
 8    1  0.1064839E+005  0.1043930E+01  0.7957747E-01            NaN
         13   -1    0    0    0    0  0.00000000000E+00  0.00000000000E+00  0.74505805969E-08  0.10566000000E+00  0.10566000000E+00 0.  1.
     999900   -1    0    0    0    0 -0.00000000000E+00 -0.00000000000E+00 -0.74505805969E-08  0.93827000000E+00  0.93827000000E+00 0. -1.
     999902    2    1    2    0    0  0.12239902796E-01  0.20402804219E-02  0.29061257403E-02  0.10311854509E+01  0.10311066922E+01 0.  0.
     999903    2    3    3    0    0  0.90245416329E-01 -0.11551492673E-01  0.10710867064E+00  0.14150698832E+00  0.16561650423E-01 0.  0.
         14    1    1    2    0    0 -0.12239902796E-01 -0.20402804219E-02 -0.29061257403E-02  0.12744549089E-01  0.00000000000E+00 0. -1.
     999901    1    3    3    0    0 -0.78005513533E-01  0.13591773095E-01 -0.10420254490E+00  0.88967846259E+00  0.88000000000E+00 0. -1.
        -11    1    4    4    0    0  0.16515437087E-01 -0.55737870475E-02  0.29664226799E-01  0.34410089172E-01  0.51100000000E-03 0. -1.
         11    1    4    4    0    0  0.73729979242E-01 -0.59777056258E-02  0.77444443844E-01  0.10709689915E+00  0.51100000000E-03 0.  1.
</event>
<event>
 8    1  0.1064839E+005  0.1043930E+01  0.7957747E-01            NaN
         13   -1    0    0    0    0  0.00000000000E+00  0.00000000000E+00  0.74505805969E-08  0.10566000000E+00  0.10566000000E+00 0.  1.
     999900   -1    0    0    0    0 -0.00000000000E+00 -0.00000000000E+00 -0.74505805969E-08  0.93827000000E+00  0.93827000000E+00 0. -1.
     999902    2    1    2    0    0  0.17846312821E-01 -0.77504410594E-02  0.10361992169E-01  0.10218861551E+01  0.10216483655E+01 0.  0.
     999903    2    3    3    0    0 -0.18383065718E-01 -0.11055504656E+00 -0.66044076646E-01  0.13187534494E+00  0.21654817414E-01 0.  0.
         14    1    1    2    0    0 -0.17846312821E-01  0.77504410594E-02 -0.10361992169E-01  0.22043844937E-01  0.00000000000E+00 0.  1.
     999901    1    3    3    0    0  0.36229378538E-01  0.10280460550E+00  0.76406068815E-01  0.89001081012E+00  0.88000000000E+00 0.  1.
        -11    1    4    4    0    0  0.22521241632E-02 -0.36912646649E-01 -0.28409496795E-01  0.46636639834E-01  0.51100000000E-03 0. -1.
         11    1    4    4    0    0 -0.20635189881E-01 -0.73642399915E-01 -0.37634579851E-01  0.85238705106E-01  0.51100000000E-03 0.  1.
</event>
<event>
 8    1  0.1064839E+005  0.1043930E+01  0.7957747E-01            NaN
         13   -1    0    0    0    0  0.00000000000E+00  0.00000000000E+00  0.74505805969E-08  0.10566000000E+00  0.10566000000E+00 0. -1.
     999900   -1    0    0    0    0 -0.00000000000E+00 -0.00000000000E+00 -0.74505805969E-08  0.93827000000E+00  0.93827000000E+00 0.  1.
     999902    2    1    2    0    0 -0.11357315127E-01  0.81126477260E-02  0.18311130022E-01  0.10209060746E+01  0.10206464187E+01 0.  0.
     999903    2    3    3    0    0  0.49699467060E-01 -0.45707426923E-01  0.11193371815E+00  0.13220493239E+00  0.19742871839E-01 0.  0.
         14    1    1    2    0    0  0.11357315127E-01 -0.81126477260E-02 -0.18311130022E-01  0.23023925441E-01  0.00000000000E+00 0.  1.
     999901    1    3    3    0    0 -0.61056782187E-01  0.53820074649E-01 -0.93622588123E-01  0.88870114217E+00  0.88000000000E+00 0.  1.
        -11    1    4    4    0    0  0.28613196512E-01 -0.20415928875E-01  0.41055079061E-01  0.54049105489E-01  0.51100000000E-03 0.  1.
         11    1    4    4    0    0  0.21086270548E-01 -0.25291498047E-01  0.70878639085E-01  0.78155826901E-01  0.51100000000E-03 0. -1.
</event>
<event>
 8    1  0.1064839E+005  0.1043930E+01  0.7957747E-01            NaN
         13   -1    0    0    0    0  0.00000000000E+00  0.00000000000E+00  0.74505805969E-08  0.10566000000E+00  0.10566000000E+00 0.  1.
     999900   -1    0    0    0    0 -0.00000000000E+00 -0.00000000000E+00 -0.74505805969E-08  0.93827000000E+00  0.93827000000E+00 0. -1.
     999902    2    1    2    0    0  0.44295264793E-03  0.65742900548E-02  0.23119314560E-01  0.10198900291E+01  0.10196066649E+01 0.  0.
     999903    2    3    3    0    0 -0.97950221660E-02  0.91341290685E-01 -0.88055593711E-01  0.12879512910E+00  0.19880237725E-01 0.  0.
         14    1    1    2    0    0 -0.44295264793E-03 -0.65742900548E-02 -0.23119314560E-01  0.24039970933E-01  0.00000000000E+00 0. -1.
     999901    1    3    3    0    0  0.10237974814E-01 -0.84767000630E-01  0.11117490827E+00  0.89109489997E+00  0.88000000000E+00 0.  1.
        -11    1    4    4    0    0  0.19271328407E-02  0.49255991694E-01 -0.37251106311E-01  0.61788126701E-01  0.51100000000E-03 0.  1.
         11    1    4    4    0    0 -0.11722155007E-01  0.42085298991E-01 -0.50804487399E-01  0.67007002395E-01  0.51100000000E-03 0. -1.
</event>
<event>
 8    1  0.1064839E+005  0.1043930E+01  0.7957747E-01            NaN
         13   -1    0    0    0    0  0.00000000000E+00  0.00000000000E+00  0.74505805969E-08  0.10566000000E+00  0.10566000000E+00 0. -1.
     999900   -1    0    0    0    0 -0.00000000000E+00 -0.00000000000E+00 -0.74505805969E-08  0.93827000000E+00  0.93827000000E+00 0.  1.
     999902    2    1    2    0    0  0.19299666553E-01  0.12617657731E-02  0.13758712714E-01  0.10201945548E+01  0.10199184077E+01 0.  0.
     999903    2    3    3    0    0 -0.12517257523E+00  0.12828950241E-01  0.15486554747E-01  0.12833749574E+00  0.19948029506E-01 0.  0.
         14    1    1    2    0    0 -0.19299666553E-01 -0.12617657731E-02 -0.13758712714E-01  0.23735445171E-01  0.00000000000E+00 0.  1.
     999901    1    3    3    0    0  0.14447224178E+00 -0.11567184468E-01 -0.17278420321E-02  0.89185705909E+00  0.88000000000E+00 0.  1.
        -11    1    4    4    0    0 -0.55396303415E-01  0.10927561861E-01 -0.15391670929E-02  0.56487097611E-01  0.51100000000E-03 0. -1.
         11    1    4    4    0    0 -0.69776271817E-01  0.19013883798E-02  0.17025721840E-01  0.71850398132E-01  0.51100000000E-03 0.  1.
</event>
<event>
 8    1  0.1064839E+005  0.1043930E+01  0.7957747E-01            NaN
         13   -1    0    0    0    0  0.00000000000E+00  0.00000000000E+00  0.74505805969E-08  0.10566000000E+00  0.10566000000E+00 0.  1.
     999900   -1    0    0    0    0 -0.00000000000E+00 -0.00000000000E+00 -0.74505805969E-08  0.93827000000E+00  0.93827000000E+00 0.  1.
     999902    2    1    2    0    0  0.23991596728E-01  0.82588784850E-02 -0.21128309726E-01  0.10109116527E+01  0.10103722870E+01 0.  0.
     999903    2    3    3    0    0 -0.68281991429E-01 -0.93733013190E-01 -0.24420824253E-01  0.12022225582E+00  0.20216478976E-01 0.  0.
         14    1    1    2    0    0 -0.23991596728E-01 -0.82588784850E-02  0.21128309726E-01  0.33018347313E-01  0.00000000000E+00 0.  1.
     999901    1    3    3    0    0  0.92273588157E-01  0.10199189168E+00  0.32925145266E-02  0.89068939687E+00  0.88000000000E+00 0.  1.
        -11    1    4    4    0    0 -0.54522656006E-01 -0.76415426973E-01 -0.11432813943E-01  0.94567477777E-01  0.51100000000E-03 0. -1.
         11    1    4    4    0    0 -0.13759335423E-01 -0.17317586217E-01 -0.12988010310E-01  0.25654778044E-01  0.51100000000E-03 0.  1.
</event>
<event>
 8    1  0.1064839E+005  0.1043930E+01  0.7957747E-01            NaN
         13   -1    0    0    0    0  0.00000000000E+00  0.00000000000E+00  0.74505805969E-08  0.10566000000E+00  0.10566000000E+00 0.  1.
     999900   -1    0    0    0    0 -0.00000000000E+00 -0.00000000000E+00 -0.74505805969E-08  0.93827000000E+00  0.93827000000E+00 0.  1.
     999902    2    1    2    0    0 -0.21580387181E-01  0.86902071447E-02  0.32063808655E-02  0.10204456714E+01  0.10201754038E+01 0.  0.
     999903    2    3    3    0    0 -0.76575115833E-01  0.80913793482E-02 -0.10559294302E+00  0.13204144379E+00  0.18864105571E-01 0.  0.
         14    1    1    2    0    0  0.21580387181E-01 -0.86902071447E-02 -0.32063808655E-02  0.23484328591E-01  0.00000000000E+00 0.  1.
     999901    1    3    3    0    0  0.54994728652E-01  0.59882779648E-03  0.10879932388E+00  0.88840422762E+00  0.88000000000E+00 0. -1.
        -11    1    4    4    0    0 -0.28066159186E-01  0.65259614030E-02 -0.25987982546E-01  0.38806363157E-01  0.51100000000E-03 0. -1.
         11    1    4    4    0    0 -0.48508956647E-01  0.15654179452E-02 -0.79604960469E-01  0.93235080633E-01  0.51100000000E-03 0.  1.
</event>
<event>
 8    1  0.1064839E+005  0.1043930E+01  0.7957747E-01            NaN
         13   -1    0    0    0    0  0.00000000000E+00  0.00000000000E+00  0.74505805969E-08  0.10566000000E+00  0.10566000000E+00 0.  1.
     999900   -1    0    0    0    0 -0.00000000000E+00 -0.00000000000E+00 -0.74505805969E-08  0.93827000000E+00  0.93827000000E+00 0.  1.
     999902    2    1    2    0    0 -0.11307735183E-01  0.11593829251E-01 -0.17337197222E-01  0.10202053259E+01  0.10199294323E+01 0.  0.
     999903    2    3    3    0    0 -0.17849882815E-01 -0.98493131652E-01 -0.82451879900E-01  0.13093491681E+00  0.18058921396E-01 0.  0.
         14    1    1    2    0    0  0.11307735183E-01 -0.11593829251E-01  0.17337197222E-01  0.23724674059E-01  0.00000000000E+00 0.  1.
     999901    1    3    3    0    0  0.65421476320E-02  0.11008696090E+00  0.65114682678E-01  0.88927040913E+00  0.88000000000E+00 0. -1.
        -11    1    4    4    0    0 -0.89966164645E-02 -0.84377072813E-01 -0.71750055569E-01  0.11112497973E+00  0.51100000000E-03 0.  1.
         11    1    4    4    0    0 -0.88532663501E-02 -0.14116058839E-01 -0.10701824330E-01  0.19809937082E-01  0.51100000000E-03 0. -1.
</event>
<event>
 8    1  0.1064839E+005  0.1043930E+01  0.7957747E-01            NaN
         13   -1    0    0    0    0  0.00000000000E+00  0.00000000000E+00  0.74505805969E-08  0.10566000000E+00  0.10566000000E+00 0.  1.
     999900   -1    0    0    0    0 -0.00000000000E+00 -0.00000000000E+00 -0.74505805969E-08  0.93827000000E+00  0.93827000000E+00 0. -1.
     999902    2    1    2    0    0  0.14966648112E-01 -0.78137662765E-03 -0.18764033065E-01  0.10199154202E+01  0.10196326615E+01 0.  0.
     999903    2    3    3    0    0  0.94767954990E-01 -0.27924679952E-01  0.82206381838E-01  0.13014014961E+00  0.20440554865E-01 0.  0.
         14    1    1    2    0    0 -0.14966648112E-01  0.78137662765E-03  0.18764033065E-01  0.24014579781E-01  0.00000000000E+00 0.  1.
     999901    1    3    3    0    0 -0.79801306878E-01  0.27143303325E-01 -0.10097041490E+00  0.88977527061E+00  0.88000000000E+00 0. -1.
        -11    1    4    4    0    0  0.36810077136E-01 -0.16526591474E-01  0.22729387314E-01  0.46314103394E-01  0.51100000000E-03 0.  1.
         11    1    4    4    0    0  0.57957877854E-01 -0.11398088479E-01  0.59476994524E-01  0.83826046220E-01  0.51100000000E-03 0. -1.
</event>
<event>
 8    1  0.1064839E+005  0.1043930E+01  0.7957747E-01            NaN
         13   -1    0    0    0    0  0.00000000000E+00  0.00000000000E+00  0.74505805969E-08  0.10566000000E+00  0.10566000000E+00 0.  1.
     999900   -1    0    0    0    0 -0.00000000000E+00 -0.00000000000E+00 -0.74505805969E-08  0.93827000000E+00  0.93827000000E+00 0.  1.
     999902    2    1    2    0    0 -0.20470328968E-01  0.81894910245E-03  0.86365729110E-02  0.10216972440E+01  0.10214553162E+01 0.  0.
     999903    2    3    3    0    0 -0.41377304675E-01  0.75438163793E-01 -0.98591219824E-01  0.13180796533E+00  0.15814967590E-01 0.  0.
         14    1    1    2    0    0  0.20470328968E-01 -0.81894910245E-03 -0.86365729110E-02  0.22232755954E-01  0.00000000000E+00 0.  1.
     999901    1    3    3    0    0  0.20906975708E-01 -0.74619214691E-01  0.10722779274E+00  0.88988927871E+00  0.88000000000E+00 0. -1.
        -11    1    4    4    0    0 -0.13085597305E-01  0.31200420445E-01 -0.49229065030E-01  0.59736597304E-01  0.51100000000E-03 0. -1.
         11    1    4    4    0    0 -0.28291707371E-01  0.44237743348E-01 -0.49362154795E-01  0.72071368028E-01  0.51100000000E-03 0.  1.
</event>
<event>
 8    1  0.1215034E+005  0.1043930E+01  0.7957747E-01            NaN
         13   -1    0    0    0    0  0.00000000000E+00  0.00000000000E+00  0.74505805969E-08  0.10566000000E+00  0.10566000000E+00 0. -1.
     999900   -1    0    0    0    0 -0.00000000000E+00 -0.00000000000E+00 -0.74505805969E-08  0.93827000000E+00  0.93827000000E+00 0.  1.
     999902    2    1    2    0    0  0.24127805351E-01  0.84039841378E-02  0.69651893963E-02  0.10174480853E+01  0.10171033942E+01 0.  0.
     999903    2    3    3    0    0 -0.64147327249E-01 -0.41548309840E-01  0.99458607019E-01  0.12680631504E+00  0.18619489254E-01 0.  0.
         14    1    1    2    0    0 -0.24127805351E-01 -0.84039841378E-02 -0.69651893963E-02  0.26481914655E-01  0.00000000000E+00 0.  1.
     999901    1    3    3    0    0  0.88275132600E-01  0.49952293978E-01 -0.92493417623E-01  0.89064177031E+00  0.88000000000E+00 0.  1.
        -11    1    4    4    0    0 -0.36908091032E-01 -0.20404829324E-01  0.68607568142E-01  0.80534612253E-01  0.51100000000E-03 0.  1.
         11    1    4    4    0    0 -0.27239236217E-01 -0.21143480516E-01  0.30851038877E-01  0.46271702787E-01  0.51100000000E-03 0. -1.
</event>
<event>
 8    1  0.1064839E+005  0.1043930E+01  0.7957747E-01            NaN
         13   -1    0    0    0    0  0.00000000000E+00  0.00000000000E+00  0.74505805969E-08  0.10566000000E+00  0.10566000000E+00 0.  1.
     999900   -1    0    0    0    0 -0.00000000000E+00 -0.00000000000E+00 -0.74505805969E-08  0.93827000000E+00  0.93827000000E+00 0.  1.
     999902    2    1    2    0    0 -0.13395260698E-01 -0.18553601268E-01  0.43572290683E-02  0.10206350526E+01  0.10203691763E+01 0.  0.
     999903    2    3    3    0    0  0.75681178007E-01  0.99986343117E-01  0.17632217726E-01  0.12813152002E+00  0.19541796388E-01 0.  0.
         14    1    1    2    0    0  0.13395260698E-01  0.18553601268E-01 -0.43572290683E-02  0.23294947399E-01  0.00000000000E+00 0.  1.
     999901    1    3    3    0    0 -0.89076438705E-01 -0.11853994438E+00 -0.13274988658E-01  0.89250353258E+00  0.88000000000E+00 0. -1.
        -11    1    4    4    0    0  0.76510542868E-02  0.13033690245E-01  0.85070396460E-02  0.17350693290E-01  0.51100000000E-03 0.  1.
         11    1    4    4    0    0  0.68030123720E-01  0.86952652872E-01  0.91251780798E-02  0.11078082673E+00  0.51100000000E-03 0. -1.
</event>
<event>
 8    1  0.1064839E+005  0.1043930E+01  0.7957747E-01            NaN
         13   -1    0    0    0    0  0.00000000000E+00  0.00000000000E+00  0.74505805969E-08  0.10566000000E+00  0.10566000000E+00 0.  1.
     999900   -1    0    0    0    0 -0.00000000000E+00 -0.00000000000E+00 -0.74505805969E-08  0.93827000000E+00  0.93827000000E+00 0.  1.
     999902    2    1    2    0    0  0.14032124200E-01  0.16680679050E-01 -0.87884011160E-02  0.10204272011E+01  0.10201565033E+01 0.  0.
     999903    2    3    3    0    0  0.22575100554E-02 -0.72004218630E-01 -0.10684123798E+00  0.13047326326E+00  0.20457723261E-01 0.  0.
         14    1    1    2    0    0 -0.14032124200E-01 -0.16680679050E-01  0.87884011160E-02  0.23502798925E-01  0.00000000000E+00 0.  1.
     999901    1    3    3    0    0  0.11774614145E-01  0.88684897679E-01  0.98052836862E-01  0.88995393781E+00  0.88000000000E+00 0. -1.
        -11    1    4    4    0    0  0.75342894913E-02 -0.53039256272E-01 -0.65024194327E-01  0.84251618339E-01  0.51100000000E-03 0.  1.
         11    1    4    4    0    0 -0.52767794359E-02 -0.18964962358E-01 -0.41817043652E-01  0.46221644921E-01  0.51100000000E-03 0. -1.
</event>
<event>
 8    1  0.1064839E+005  0.1043930E+01  0.7957747E-01            NaN
         13   -1    0    0    0    0  0.00000000000E+00  0.00000000000E+00  0.74505805969E-08  0.10566000000E+00  0.10566000000E+00 0.  1.
     999900   -1    0    0    0    0 -0.00000000000E+00 -0.00000000000E+00 -0.74505805969E-08  0.93827000000E+00  0.93827000000E+00 0. -1.
     999902    2    1    2    0    0 -0.18238274414E-01 -0.16066116392E-01  0.28580008211E-02  0.10194570983E+01  0.10191633099E+01 0.  0.
     999903    2    3    3    0    0 -0.21191253567E-02  0.61198149446E-01 -0.11129260712E+00  0.12858115011E+00  0.19933980463E-01 0.  0.
         14    1    1    2    0    0  0.18238274414E-01  0.16066116392E-01 -0.28580008211E-02  0.24472901712E-01  0.00000000000E+00 0. -1.
     999901    1    3    3    0    0 -0.16119149057E-01 -0.77264265838E-01  0.11415060794E+00  0.89087594817E+00  0.88000000000E+00 0.  1.
        -11    1    4    4    0    0  0.45731204541E-02  0.47350666876E-01 -0.94530485692E-01  0.10582661731E+00  0.51100000000E-03 0.  1.
         11    1    4    4    0    0 -0.66922458108E-02  0.13847482570E-01 -0.16762121427E-01  0.22754532807E-01  0.51100000000E-03 0. -1.
</event>
<event>
 8    1  0.1064839E+005  0.1043930E+01  0.7957747E-01            NaN
         13   -1    0    0    0    0  0.00000000000E+00  0.00000000000E+00  0.74505805969E-08  0.10566000000E+00  0.10566000000E+00 0. -1.
     999900   -1    0    0    0    0 -0.00000000000E+00 -0.00000000000E+00 -0.74505805969E-08  0.93827000000E+00  0.93827000000E+00 0.  1.
     999902    2    1    2    0    0 -0.75189347839E-02  0.22179682824E-01 -0.56894003732E-02  0.10198293364E+01  0.10195445225E+01 0.  0.
     999903    2    3    3    0    0 -0.52946240975E-01 -0.71808382748E-01 -0.90988968739E-01  0.12956341376E+00  0.23408064543E-01 0.  0.
         14    1    1    2    0    0  0.75189347839E-02 -0.22179682824E-01  0.56894003732E-02  0.24100663623E-01  0.00000000000E+00 0. -1.
     999901    1    3    3    0    0  0.45427306191E-01  0.93988065572E-01  0.85299568366E-01  0.89026592262E+00  0.88000000000E+00 0.  1.
        -11    1    4    4    0    0 -0.47604529999E-01 -0.69806986930E-01 -0.76490819800E-01  0.11397505576E+00  0.51100000000E-03 0.  1.
         11    1    4    4    0    0 -0.53417109764E-02 -0.20013958181E-02 -0.14498148939E-01  0.15588357997E-01  0.51100000000E-03 0. -1.
</event>
<event>
 8    1  0.1618793E+005  0.1043930E+01  0.7957747E-01            NaN
         13   -1    0    0    0    0  0.00000000000E+00  0.00000000000E+00  0.74505805969E-08  0.10566000000E+00  0.10566000000E+00 0.  1.
     999900   -1    0    0    0    0 -0.00000000000E+00 -0.00000000000E+00 -0.74505805969E-08  0.93827000000E+00  0.93827000000E+00 0.  1.
     999902    2    1    2    0    0 -0.71378003176E-02 -0.23182487998E-01 -0.85486018808E-02  0.10182112415E+01  0.10178863777E+01 0.  0.
     999903    2    3    3    0    0 -0.90400244248E-01  0.84689371270E-01  0.21265714564E-01  0.12722422363E+00  0.19730146916E-01 0.  0.
         14    1    1    2    0    0  0.71378003176E-02  0.23182487998E-01  0.85486018808E-02  0.25718758471E-01  0.00000000000E+00 0.  1.
     999901    1    3    3    0    0  0.83262443930E-01 -0.10787185927E+00 -0.29814316445E-01  0.89098701789E+00  0.88000000000E+00 0.  1.
        -11    1    4    4    0    0 -0.37858149778E-01  0.40321886614E-01  0.18765742929E-01  0.58408118215E-01  0.51100000000E-03 0. -1.
         11    1    4    4    0    0 -0.52542094470E-01  0.44367484656E-01  0.24999716353E-02  0.68816105420E-01  0.51100000000E-03 0.  1.
</event>
<event>
 8    1  0.1064839E+005  0.1043930E+01  0.7957747E-01            NaN
         13   -1    0    0    0    0  0.00000000000E+00  0.00000000000E+00  0.74505805969E-08  0.10566000000E+00  0.10566000000E+00 0.  1.
     999900   -1    0    0    0    0 -0.00000000000E+00 -0.00000000000E+00 -0.74505805969E-08  0.93827000000E+00  0.93827000000E+00 0. -1.
     999902    2    1    2    0    0 -0.82651871044E-02  0.20015675043E-01  0.26107368042E-02  0.10221181566E+01  0.10218853994E+01 0.  0.
     999903    2    3    3    0    0  0.10464365843E+00 -0.25280413870E-01  0.71861397307E-01  0.13105373860E+00  0.20533567727E-01 0.  0.
         14    1    1    2    0    0  0.82651871044E-02 -0.20015675043E-01 -0.26107368042E-02  0.21811843387E-01  0.00000000000E+00 0. -1.
     999901    1    3    3    0    0 -0.11290884553E+00  0.45296088913E-01 -0.69250660503E-01  0.89106441801E+00  0.88000000000E+00 0. -1.
        -11    1    4    4    0    0  0.40205302905E-01 -0.36020248379E-02  0.36475048436E-01  0.54407088178E-01  0.51100000000E-03 0.  1.
         11    1    4    4    0    0  0.64438355522E-01 -0.21678389032E-01  0.35386348871E-01  0.76646650421E-01  0.51100000000E-03 0. -1.
</event>
<event>
 8    1  0.1064839E+005  0.1043930E+01  0.7957747E-01            NaN
         13   -1    0    0    0    0  0.00000000000E+00  0.00000000000E+00  0.74505805969E-08  0.10566000000E+00  0.10566000000E+00 0. -1.
     999900   -1    0    0    0    0 -0.00000000000E+00 -0.00000000000E+00 -0.74505805969E-08  0.93827000000E+00  0.93827000000E+00 0.  1.
     999902    2    1    2    0    0  0.93786414463E-02 -0.21586330755E-01  0.51403449655E-02  0.10198395094E+01  0.10195549388E+01 0.  0.
     999903    2    3    3    0    0  0.24901645256E-01 -0.12897675180E+00 -0.77890932904E-02  0.13308089707E+00  0.19868586963E-01 0.  0.
         14    1    1    2    0    0 -0.93786414463E-02  0.21586330755E-01 -0.51403449655E-02  0.24090490597E-01  0.00000000000E+00 0.  1.
     999901    1    3    3    0    0 -0.15523003810E-01  0.10739042105E+00  0.12929438256E-01  0.88675861234E+00  0.88000000000E+00 0. -1.
        -11    1    4    4    0    0  0.15038892587E-01 -0.34693772746E-01 -0.58193060653E-02  0.38261620479E-01  0.51100000000E-03 0.  1.
         11    1    4    4    0    0  0.98627526692E-02 -0.94282979055E-01 -0.19697872251E-02  0.94819276587E-01  0.51100000000E-03 0. -1.
</event>
<event>
 8    1  0.1064839E+005  0.1043930E+01  0.7957747E-01            NaN
         13   -1    0    0    0    0  0.00000000000E+00  0.00000000000E+00  0.74505805969E-08  0.10566000000E+00  0.10566000000E+00 0. -1.
     999900   -1    0    0    0    0 -0.00000000000E+00 -0.00000000000E+00 -0.74505805969E-08  0.93827000000E+00  0.93827000000E+00 0. -1.
     999902    2    1    2    0    0  0.21001733897E-02  0.38097059223E-02 -0.21613753640E-01  0.10218828021E+01  0.10216449395E+01 0.  0.
     999903    2    3    3    0    0  0.72701041141E-01  0.38759191632E-01  0.98832166537E-01  0.13019161749E+00  0.19858091638E-01 0.  0.
         14    1    1    2    0    0 -0.21001733897E-02 -0.38097059223E-02  0.21613753640E-01  0.22047197869E-01  0.00000000000E+00 0. -1.
     999901    1    3    3    0    0 -0.70600867751E-01 -0.34949485710E-01 -0.12044592018E+00  0.89169118464E+00  0.88000000000E+00 0. -1.
        -11    1    4    4    0    0  0.28661872983E-01  0.22769133126E-01  0.54734711775E-01  0.65848964914E-01  0.51100000000E-03 0.  1.
         11    1    4    4    0    0  0.44039168158E-01  0.15990058506E-01  0.44097454762E-01  0.64342652576E-01  0.51100000000E-03 0. -1.
</event>
<event>
 7    1  0.1083164E+005  0.1043930E+01  0.7957747E-01            NaN
         13   -1    0    0    0    0  0.00000000000E+00  0.00000000000E+00  0.74505805969E-08  0.10566000000E+00  0.10566000000E+00 0.  1.
     999900   -1    0    0    0    0 -0.00000000000E+00 -0.00000000000E+00 -0.74505805969E-08  0.93827000000E+00  0.93827000000E+00 0.  1.
     999903    2    1    2    0    0  0.81962756216E-01 -0.19664697284E-01  0.16368222794E-01  0.88155463859E-01  0.19971814262E-01 0.  0.
         14    1    1    2    0    0 -0.64641352612E-01  0.12891552480E-01 -0.36504552345E-01  0.75347720170E-01  0.00000000000E+00 0.  1.
     999901    1    1    2    0    0 -0.17321403604E-01  0.67731448045E-02  0.20136329551E-01  0.88042681597E+00  0.88000000000E+00 0. -1.
        -11    1    3    3    0    0  0.64549475656E-01 -0.11127336141E-01  0.19850240785E-01  0.68445201419E-01  0.51100000000E-03 0. -1.
         11    1    3    3    0    0  0.17413280560E-01 -0.85373611435E-02 -0.34820179908E-02  0.19710262440E-01  0.51100000000E-03 0.  1.
</event>
<event>
 8    1  0.1064839E+005  0.1043930E+01  0.7957747E-01            NaN
         13   -1    0    0    0    0  0.00000000000E+00  0.00000000000E+00  0.74505805969E-08  0.10566000000E+00  0.10566000000E+00 0. -1.
     999900   -1    0    0    0    0 -0.00000000000E+00 -0.00000000000E+00 -0.74505805969E-08  0.93827000000E+00  0.93827000000E+00 0.  1.
     999902    2    1    2    0    0  0.17769147544E-01  0.10082623205E-01  0.12403239060E-01  0.10200293257E+01  0.10197492746E+01 0.  0.
     999903    2    3    3    0    0  0.75545089381E-01  0.92422537347E-01 -0.52600713214E-01  0.13191703842E+00  0.19654110423E-01 0.  0.
         14    1    1    2    0    0 -0.17769147544E-01 -0.10082623205E-01 -0.12403239060E-01  0.23900674348E-01  0.00000000000E+00 0.  1.
     999901    1    3    3    0    0 -0.57775941837E-01 -0.82339914142E-01  0.65003952273E-01  0.88811228723E+00  0.88000000000E+00 0. -1.
        -11    1    4    4    0    0  0.33857145637E-01  0.31165796442E-01 -0.12612802903E-01  0.47717471608E-01  0.51100000000E-03 0. -1.
         11    1    4    4    0    0  0.41687943743E-01  0.61256740905E-01 -0.39987910310E-01  0.84199566815E-01  0.51100000000E-03 0.  1.
</event>
<event>
 8    1  0.1064839E+005  0.1043930E+01  0.7957747E-01            NaN
         13   -1    0    0    0    0  0.00000000000E+00  0.00000000000E+00  0.74505805969E-08  0.10566000000E+00  0.10566000000E+00 0. -1.
     999900   -1    0    0    0    0 -0.00000000000E+00 -0.00000000000E+00 -0.74505805969E-08  0.93827000000E+00  0.93827000000E+00 0.  1.
     999902    2    1    2    0    0  0.21178244473E-01  0.58248560330E-02  0.71592084147E-02  0.10208280249E+01  0.10205665854E+01 0.  0.
     999903    2    3    3    0    0 -0.62260063380E-01  0.11150288602E+00  0.14329280393E-01  0.13055772487E+00  0.23038710115E-01 0.  0.
         14    1    1    2    0    0 -0.21178244473E-01 -0.58248560330E-02 -0.71592084147E-02  0.23101975065E-01  0.00000000000E+00 0.  1.
     999901    1    3    3    0    0  0.83438307853E-01 -0.10567802999E+00 -0.71700719786E-02  0.89027030006E+00  0.88000000000E+00 0.  1.
        -11    1    4    4    0    0 -0.36729274991E-01  0.86597810740E-01  0.11696112191E-01  0.94790720156E-01  0.51100000000E-03 0. -1.
         11    1    4    4    0    0 -0.25530788389E-01  0.24905075283E-01  0.26331682025E-02  0.35767004717E-01  0.51100000000E-03 0.  1.
</event>
<event>
 8    1  0.1064839E+005  0.1043930E+01  0.7957747E-01            NaN
         13   -1    0    0    0    0  0.00000000000E+00  0.00000000000E+00  0.74505805969E-08  0.10566000000E+00  0.10566000000E+00 0. -1.
     999900   -1    0    0    0    0 -0.00000000000E+00 -0.00000000000E+00 -0.74505805969E-08  0.93827000000E+00  0.93827000000E+00 0. -1.
     999902    2    1    2    0    0  0.75830506612E-02  0.85997187398E-02  0.20159997441E-01  0.10207376884E+01  0.10204741767E+01 0.  0.
     999903    2    3    3    0    0 -0.45116333168E-01 -0.96254596375E-01 -0.69239794846E-01  0.12845747721E+00  0.20167880867E-01 0.  0.
         14    1    1    2    0    0 -0.75830506612E-02 -0.85997187398E-02 -0.20159997441E-01  0.23192311583E-01  0.00000000000E+00 0.  1.
     999901    1    3    3    0    0  0.52699383829E-01  0.10485431511E+00  0.89399792286E-01  0.89228021121E+00  0.88000000000E+00 0.  1.
        -11    1    4    4    0    0 -0.27381348980E-01 -0.36985482169E-01 -0.34378076397E-01  0.57443689131E-01  0.51100000000E-03 0. -1.
         11    1    4    4    0    0 -0.17734984188E-01 -0.59269114206E-01 -0.34861718449E-01  0.71013788078E-01  0.51100000000E-03 0.  1.
</event>
<event>
 8    1  0.1064839E+005  0.1043930E+01  0.7957747E-01            NaN
         13   -1    0    0    0    0  0.00000000000E+00  0.00000000000E+00  0.74505805969E-08  0.10566000000E+00  0.10566000000E+00 0. -1.
     999900   -1    0    0    0    0 -0.00000000000E+00 -0.00000000000E+00 -0.74505805969E-08  0.93827000000E+00  0.93827000000E+00 0.  1.
     999902    2    1    2    0    0 -0.19379956176E-01 -0.12015640135E-01 -0.36434831527E-02  0.10208381556E+01  0.10205769479E+01 0.  0.
     999903    2    3    3    0    0 -0.12654850225E+00  0.29293433156E-01 -0.24994660753E-01  0.13311781133E+00  0.14932849004E-01 0.  0.
         14    1    1    2    0    0  0.19379956176E-01  0.12015640135E-01  0.36434831527E-02  0.23091844420E-01  0.00000000000E+00 0. -1.
     999901    1    3    3    0    0  0.10716854608E+00 -0.41309073291E-01  0.21351177601E-01  0.88772034425E+00  0.88000000000E+00 0. -1.
        -11    1    4    4    0    0 -0.62133218827E-01  0.12008713251E-01 -0.49669520004E-02  0.63479743296E-01  0.51100000000E-03 0.  1.
         11    1    4    4    0    0 -0.64415283426E-01  0.17284719905E-01 -0.20027708753E-01  0.69638068037E-01  0.51100000000E-03 0. -1.
</event>
<event>
 8    1  0.1064839E+005  0.1043930E+01  0.7957747E-01            NaN
         13   -1    0    0    0    0  0.00000000000E+00  0.00000000000E+00  0.74505805969E-08  0.10566000000E+00  0.10566000000E+00 0.  1.
     999900   -1    0    0    0    0 -0.00000000000E+00 -0.00000000000E+00 -0.74505805969E-08  0.93827000000E+00  0.93827000000E+00 0. -1.
     999902    2    1    2    0    0 -0.22635640792E-01  0.60241136214E-02 -0.45265778396E-03  0.10205020876E+01  0.10202331321E+01 0.  0.
     999903    2    3    3    0    0 -0.17518829990E-01  0.12270514056E+00  0.40218737379E-01  0.13185434742E+00  0.20113706106E-01 0.  0.
         14    1    1    2    0    0  0.22635640792E-01 -0.60241136214E-02  0.45265778396E-03  0.23427912371E-01  0.00000000000E+00 0.  1.
     999901    1    3    3    0    0 -0.51168108023E-02 -0.11668102693E+00 -0.40671395163E-01  0.88864774021E+00  0.88000000000E+00 0. -1.
        -11    1    4    4    0    0  0.45591583387E-02  0.20939382232E-01  0.69823852742E-02  0.22544588667E-01  0.51100000000E-03 0.  1.
         11    1    4    4    0    0 -0.22077988329E-01  0.10176575832E+00  0.33236352105E-01  0.10930975875E+00  0.51100000000E-03 0. -1.
</event>
<event>
 8    1  0.1064839E+005  0.1043930E+01  0.7957747E-01            NaN
         13   -1    0    0    0    0  0.00000000000E+00  0.00000000000E+00  0.74505805969E-08  0.10566000000E+00  0.10566000000E+00 0.  1.
     999900   -1    0    0    0    0 -0.00000000000E+00 -0.00000000000E+00 -0.74505805969E-08  0.93827000000E+00  0.93827000000E+00 0.  1.
     999902    2    1    2    0    0 -0.20546887771E-01 -0.10390302948E-01  0.36358586615E-02  0.10206200781E+01  0.10203538559E+01 0.  0.
     999903    2    3    3    0    0  0.54089137328E-01 -0.73904174401E-01  0.91159338099E-01  0.13086454559E+00  0.20689190418E-01 0.  0.
         14    1    1    2    0    0  0.20546887771E-01  0.10390302948E-01 -0.36358586615E-02  0.23309921935E-01  0.00000000000E+00 0. -1.
     999901    1    3    3    0    0 -0.74636025098E-01  0.63513871453E-01 -0.87523479438E-01  0.88975553247E+00  0.88000000000E+00 0.  1.
        -11    1    4    4    0    0  0.23996020957E-01 -0.31728640050E-01  0.25627603386E-01  0.47323892460E-01  0.51100000000E-03 0.  1.
         11    1    4    4    0    0  0.30093116371E-01 -0.42175534351E-01  0.65531734713E-01  0.83540653135E-01  0.51100000000E-03 0. -1.
</event>
<event>
 7    1  0.1064839E+005  0.1043930E+01  0.7957747E-01            NaN
         13   -1    0    0    0    0  0.00000000000E+00  0.00000000000E+00  0.74505805969E-08  0.10566000000E+00  0.10566000000E+00 0.  1.
     999900   -1    0    0    0    0 -0.00000000000E+00 -0.00000000000E+00 -0.74505805969E-08  0.93827000000E+00  0.93827000000E+00 0.  1.
     999903    2    1    2    0    0  0.17752521612E-01  0.89660377416E-01  0.68226157362E-01  0.11587374382E+00  0.20439683390E-01 0.  0.
         14    1    1    2    0    0  0.33730924462E-01 -0.18500665842E-01  0.11350913324E-01  0.40111010146E-01  0.00000000000E+00 0.  1.
     999901    1    1    2    0    0 -0.51483446074E-01 -0.71159711574E-01 -0.79577070686E-01  0.88794524603E+00  0.88000000000E+00 0. -1.
        -11    1    3    3    0    0  0.20488996647E-01  0.51968901722E-01  0.40669278557E-01  0.69100051152E-01  0.51100000000E-03 0.  1.
         11    1    3    3    0    0 -0.27364750353E-02  0.37691475694E-01  0.27556878805E-01  0.46773692671E-01  0.51100000000E-03 0. -1.
</event>
<event>
 8    1  0.1064839E+005  0.1043930E+01  0.7957747E-01            NaN
         13   -1    0    0    0    0  0.00000000000E+00  0.00000000000E+00  0.74505805969E-08  0.10566000000E+00  0.10566000000E+00 0. -1.
     999900   -1    0    0    0    0 -0.00000000000E+00 -0.00000000000E+00 -0.74505805969E-08  0.93827000000E+00  0.93827000000E+00 0.  1.
     999902    2    1    2    0    0  0.22643461042E-01 -0.49297316864E-02  0.88549210243E-03  0.10207392113E+01  0.10204757346E+01 0.  0.
     999903    2    3    3    0    0 -0.11899141806E-01 -0.90340222012E-01 -0.92073795169E-01  0.13105973402E+00  0.19902885122E-01 0.  0.
         14    1    1    2    0    0 -0.22643461042E-01  0.49297316864E-02 -0.88549210243E-03  0.23190788661E-01  0.00000000000E+00 0.  1.
     999901    1    3    3    0    0  0.34542602847E-01  0.85410490325E-01  0.92959287272E-01  0.88967947732E+00  0.88000000000E+00 0.  1.
        -11    1    4    4    0    0  0.58843522611E-03 -0.52061377940E-01 -0.42626051282E-01  0.67290227358E-01  0.51100000000E-03 0.  1.
         11    1    4    4    0    0 -0.12487577032E-01 -0.38278844072E-01 -0.49447743887E-01  0.63769506664E-01  0.51100000000E-03 0. -1.
</event>
<event>
 8    1  0.1064839E+005  0.1043930E+01  0.7957747E-01            NaN
         13   -1    0    0    0    0  0.00000000000E+00  0.00000000000E+00  0.74505805969E-08  0.10566000000E+00  0.10566000000E+00 0.  1.
     999900   -1    0    0    0    0 -0.00000000000E+00 -0.00000000000E+00 -0.74505805969E-08  0.93827000000E+00  0.93827000000E+00 0. -1.
     999902    2    1    2    0    0 -0.11819489258E-01 -0.32768400900E-02  0.18358795797E-01  0.10218509740E+01  0.10216124165E+01 0.  0.
     999903    2    3    3    0    0 -0.83565066483E-01 -0.74177842176E-01  0.72057997370E-01  0.13446268004E+00  0.20059529738E-01 0.  0.
         14    1    1    2    0    0  0.11819489258E-01  0.32768400900E-02 -0.18358795797E-01  0.22079026030E-01  0.00000000000E+00 0. -1.
     999901    1    3    3    0    0  0.71745577225E-01  0.70901002086E-01 -0.53699201573E-01  0.88738829393E+00  0.88000000000E+00 0.  1.
        -11    1    4    4    0    0 -0.26853428370E-01 -0.18190413085E-01  0.30761348971E-01  0.44704803489E-01  0.51100000000E-03 0.  1.
         11    1    4    4    0    0 -0.56711638113E-01 -0.55987429091E-01  0.41296648399E-01  0.89757876555E-01  0.51100000000E-03 0. -1.
</event>
<event>
 8    1  0.1064839E+005  0.1043930E+01  0.7957747E-01            NaN
         13   -1    0    0    0    0  0.00000000000E+00  0.00000000000E+00  0.74505805969E-08  0.10566000000E+00  0.10566000000E+00 0. -1.
     999900   -1    0    0    0    0 -0.00000000000E+00 -0.00000000000E+00 -0.74505805969E-08  0.93827000000E+00  0.93827000000E+00 0. -1.
     999902    2    1    2    0    0 -0.23803697925E-01 -0.54899414939E-02 -0.15900063801E-02  0.10194497301E+01  0.10191557627E+01 0.  0.
     999903    2    3    3    0    0 -0.10651937848E+00  0.70564341080E-01  0.28144220717E-01  0.13180663633E+00  0.15974604784E-01 0.  0.
         14    1    1    2    0    0  0.23803697925E-01  0.54899414939E-02  0.15900063801E-02  0.24480269868E-01  0.00000000000E+00 0. -1.
     999901    1    3    3    0    0  0.82715680556E-01 -0.76054282574E-01 -0.29734227097E-01  0.88764309380E+00  0.88000000000E+00 0. -1.
        -11    1    4    4    0    0 -0.29979551297E-01  0.27634060893E-01  0.12628914735E-01  0.42686829652E-01  0.51100000000E-03 0.  1.
         11    1    4    4    0    0 -0.76539827184E-01  0.42930280187E-01  0.15515305981E-01  0.89119806681E-01  0.51100000000E-03 0. -1.
</event>
<event>
 8    1  0.1064839E+005  0.1043930E+01  0.7957747E-01            NaN
         13   -1    0    0    0    0  0.00000000000E+00  0.00000000000E+00  0.74505805969E-08  0.10566000000E+00  0.10566000000E+00 0. -1.
     999900   -1    0    0    0    0 -0.00000000000E+00 -0.00000000000E+00 -0.74505805969E-08  0.93827000000E+00  0.93827000000E+00 0.  1.
     999902    2    1    2    0    0  0.15833414008E-01 -0.48266935897E-02  0.17017058376E-01  0.10201902813E+01  0.10199140335E+01 0.  0.
     999903    2    3    3    0    0 -0.84506624908E-01  0.83928629783E-01  0.46855132751E-01  0.12955234050E+00  0.20075380774E-01 0.  0.
         14    1    1    2    0    0 -0.15833414008E-01  0.48266935897E-02 -0.17017058376E-01  0.23739718741E-01  0.00000000000E+00 0.  1.
     999901    1    3    3    0    0  0.10034003892E+00 -0.88755323373E-01 -0.29838074375E-01  0.89063794076E+00  0.88000000000E+00 0.  1.
        -11    1    4    4    0    0 -0.19591905693E-01  0.12565985575E-01  0.26383368268E-02  0.23430081186E-01  0.51100000000E-03 0. -1.
         11    1    4    4    0    0 -0.64914719215E-01  0.71362644208E-01  0.44216795924E-01  0.10612225931E+00  0.51100000000E-03 0.  1.
</event>
<event>
 8    1  0.1064839E+005  0.1043930E+01  0.7957747E-01            NaN
         13   -1    0    0    0    0  0.00000000000E+00  0.00000000000E+00  0.74505805969E-08  0.10566000000E+00  0.10566000000E+00 0.  1.
     999900   -1    0    0    0    0 -0.00000000000E+00 -0.00000000000E+00 -0.74505805969E-08  0.93827000000E+00  0.93827000000E+00 0. -1.
     999902    2    1    2    0    0 -0.73905531331E-02 -0.17167862023E-01 -0.13569733628E-01  0.10208325232E+01  0.10205711867E+01 0.  0.
     999903    2    3    3    0    0 -0.11786387191E+00  0.25346214678E-01 -0.51080523789E-01  0.13211498641E+00  0.17630281473E-01 0.  0.
         14    1    1    2    0    0  0.73905531331E-02  0.17167862023E-01  0.13569733628E-01  0.23097476762E-01  0.00000000000E+00 0.  1.
     999901    1    3    3    0    0  0.11047331878E+00 -0.42514076701E-01  0.37510790162E-01  0.88871753682E+00  0.88000000000E+00 0.  1.
        -11    1    4    4    0    0 -0.98675265747E-01  0.14338187734E-01 -0.41793427979E-01  0.10811726708E+00  0.51100000000E-03 0. -1.
         11    1    4    4    0    0 -0.19188606162E-01  0.11008026944E-01 -0.92870958103E-02  0.23997719333E-01  0.51100000000E-03 0.  1.
</event>
<event>
 8    1  0.1064839E+005  0.1043930E+01  0.7957747E-01            NaN
         13   -1    0    0    0    0  0.00000000000E+00  0.00000000000E+00  0.74505805969E-08  0.10566000000E+00  0.10566000000E+00 0. -1.
     999900   -1    0    0    0    0 -0.00000000000E+00 -0.00000000000E+00 -0.74505805969E-08  0.93827000000E+00  0.93827000000E+00 0. -1.
     999902    2    1    2    0    0  0.11383257684E-01  0.45299739364E-02 -0.20555229507E-01  0.10200005897E+01  0.10197198567E+01 0.  0.
     999903    2    3    3    0    0 -0.87775051685E-01  0.82170286843E-01 -0.47354554277E-01  0.13063081711E+00  0.19119122113E-01 0.  0.
         14    1    1    2    0    0 -0.11383257684E-01 -0.45299739364E-02  0.20555229507E-01  0.23929410345E-01  0.00000000000E+00 0. -1.
     999901    1    3    3    0    0  0.99158309369E-01 -0.77640312907E-01  0.26799324769E-01  0.88936977254E+00  0.88000000000E+00 0. -1.
        -11    1    4    4    0    0 -0.65539601980E-01  0.67313088760E-01 -0.29505822127E-01  0.98475103485E-01  0.51100000000E-03 0.  1.
         11    1    4    4    0    0 -0.22235449705E-01  0.14857198083E-01 -0.17848732150E-01  0.32155713626E-01  0.51100000000E-03 0. -1.
</event>
<event>
 8    1  0.1064839E+005  0.1043930E+01  0.7957747E-01            NaN
         13   -1    0    0    0    0  0.00000000000E+00  0.00000000000E+00  0.74505805969E-08  0.10566000000E+00  0.10566000000E+00 0. -1.
     999900   -1    0    0    0    0 -0.00000000000E+00 -0.00000000000E+00 -0.74505805969E-08  0.93827000000E+00  0.93827000000E+00 0.  1.
     999902    2    1    2    0    0  0.12573794645E-02  0.18656121268E-01  0.10998965015E-01  0.10222364734E+01  0.10220062615E+01 0.  0.
     999903    2    3    3    0    0  0.10153190782E+00 -0.25301680926E-01  0.79437265672E-01  0.13281471160E+00  0.19508077197E-01 0.  0.
         14    1    1    2    0    0 -0.12573794645E-02 -0.18656121268E-01 -0.10998965015E-01  0.21693526576E-01  0.00000000000E+00 0.  1.
     999901    1    3    3    0    0 -0.10027452836E+00  0.43957802194E-01 -0.68438300656E-01  0.88942176183E+00  0.88000000000E+00 0.  1.
        -11    1    4    4    0    0  0.91031184438E-01 -0.25014753123E-01  0.77450459683E-01  0.12211162615E+00  0.51100000000E-03 0.  1.
         11    1    4    4    0    0  0.10500723385E-01 -0.28692780238E-03  0.19868059888E-02  0.10703085453E-01  0.51100000000E-03 0. -1.
</event>
<event>
 8    1  0.1064839E+005  0.1043930E+01  0.7957747E-01            NaN
         13   -1    0    0    0    0  0.00000000000E+00  0.00000000000E+00  0.74505805969E-08  0.10566000000E+00  0.10566000000E+00 0. -1.
     999900   -1    0    0    0    0 -0.00000000000E+00 -0.00000000000E+00 -0.74505805969E-08  0.93827000000E+00  0.93827000000E+00 0.  1.
     999902    2    1    2    0    0 -0.17695939830E-01  0.10018964822E-01  0.14636251306E-01  0.10188751443E+01  0.10185670394E+01 0.  0.
     999903    2    3    3    0    0  0.98661951734E-01 -0.72289362841E-01 -0.25410117992E-01  0.12650889020E+00  0.19972293410E-01 0.  0.
         14    1    1    2    0    0  0.17695939830E-01 -0.10018964822E-01 -0.14636251306E-01  0.25054855714E-01  0.00000000000E+00 0. -1.
     999901    1    3    3    0    0 -0.11635789156E+00  0.82308327662E-01  0.40046369298E-01  0.89236625408E+00  0.88000000000E+00 0.  1.
        -11    1    4    4    0    0  0.42294066355E-01 -0.27382972729E-01 -0.93572497964E-03  0.50395951688E-01  0.51100000000E-03 0. -1.
         11    1    4    4    0    0  0.56367885379E-01 -0.44906390112E-01 -0.24474393013E-01  0.76112938515E-01  0.51100000000E-03 0.  1.
</event>
<event>
 8    1  0.1064839E+005  0.1043930E+01  0.7957747E-01            NaN
         13   -1    0    0    0    0  0.00000000000E+00  0.00000000000E+00  0.74505805969E-08  0.10566000000E+00  0.10566000000E+00 0. -1.
     999900   -1    0    0    0    0 -0.00000000000E+00 -0.00000000000E+00 -0.74505805969E-08  0.93827000000E+00  0.93827000000E+00 0.  1.
     999902    2    1    2    0    0 -0.75466861504E-02 -0.17190803937E-01 -0.14260871876E-01  0.10203535567E+01  0.10200811399E+01 0.  0.
     999903    2    3    3    0    0 -0.68707215176E-01  0.10716461791E+00  0.84200524919E-02  0.12921983745E+00  0.20540992128E-01 0.  0.
         14    1    1    2    0    0  0.75466861504E-02  0.17190803937E-01  0.14260871876E-01  0.23576443296E-01  0.00000000000E+00 0. -1.
     999901    1    3    3    0    0  0.61160529025E-01 -0.12435542185E+00 -0.22680924368E-01  0.89113371925E+00  0.88000000000E+00 0. -1.
        -11    1    4    4    0    0 -0.33074577369E-01  0.35310641610E-01  0.78194527927E-02  0.49011978557E-01  0.51100000000E-03 0. -1.
         11    1    4    4    0    0 -0.35632637806E-01  0.71853976305E-01  0.60059969923E-03  0.80207858897E-01  0.51100000000E-03 0.  1.
</event>
<event>
 8    1  0.1064839E+005  0.1043930E+01  0.7957747E-01            NaN
         13   -1    0    0    0    0  0.00000000000E+00  0.00000000000E+00  0.74505805969E-08  0.10566000000E+00  0.10566000000E+00 0.  1.
     999900   -1    0    0    0    0 -0.00000000000E+00 -0.00000000000E+00 -0.74505805969E-08  0.93827000000E+00  0.93827000000E+00 0.  1.
     999902    2    1    2    0    0 -0.18941490897E-02 -0.24563147217E-02  0.23534808571E-01  0.10201916661E+01  0.10199154509E+01 0.  0.
     999903    2    3    3    0    0  0.47333938794E-01 -0.10308295307E+00 -0.58668377744E-01  0.12928960142E+00  0.20179829366E-01 0.  0.
         14    1    1    2    0    0  0.18941490897E-02  0.24563147217E-02 -0.23534808571E-01  0.23738333919E-01  0.00000000000E+00 0. -1.
     999901    1    3    3    0    0 -0.49228087884E-01  0.10062663834E+00  0.82203186314E-01  0.89090206466E+00  0.88000000000E+00 0. -1.
        -11    1    4    4    0    0  0.11361569518E-02 -0.20757586820E-01 -0.11368918705E-01  0.23699824825E-01  0.51100000000E-03 0. -1.
         11    1    4    4    0    0  0.46197781842E-01 -0.82325366246E-01 -0.47299459038E-01  0.10558977659E+00  0.51100000000E-03 0.  1.
</event>
<event>
 8    1  0.1064839E+005  0.1043930E+01  0.7957747E-01            NaN
         13   -1    0    0    0    0  0.00000000000E+00  0.00000000000E+00  0.74505805969E-08  0.10566000000E+00  0.10566000000E+00 0. -1.
     999900   -1    0    0    0    0 -0.00000000000E+00 -0.00000000000E+00 -0.74505805969E-08  0.93827000000E+00  0.93827000000E+00 0.  1.
     999902    2    1    2    0    0  0.14083721657E-01 -0.56143503117E-02  0.17951955536E-01  0.10204322373E+01  0.10201616568E+01 0.  0.
     999903    2    3    3    0    0  0.12538961671E+00 -0.29359955419E-01  0.26839907968E-01  0.13305866785E+00  0.19991634932E-01 0.  0.
         14    1    1    2    0    0 -0.14083721657E-01  0.56143503117E-02 -0.17951955536E-01  0.23497762717E-01  0.00000000000E+00 0.  1.
     999901    1    3    3    0    0 -0.11130589506E+00  0.23745605107E-01 -0.88879524326E-02  0.88737356944E+00  0.88000000000E+00 0. -1.
        -11    1    4    4    0    0  0.18010805834E-01 -0.95794634228E-02 -0.82063998967E-03  0.20422776923E-01  0.51100000000E-03 0. -1.
         11    1    4    4    0    0  0.10737881088E+00 -0.19780491996E-01  0.27660547958E-01  0.11263589092E+00  0.51100000000E-03 0.  1.
</event>
<event>
 8    1  0.1064839E+005  0.1043930E+01  0.7957747E-01            NaN
         13   -1    0    0    0    0  0.00000000000E+00  0.00000000000E+00  0.74505805969E-08  0.10566000000E+00  0.10566000000E+00 0. -1.
     999900   -1    0    0    0    0 -0.00000000000E+00 -0.00000000000E+00 -0.74505805969E-08  0.93827000000E+00  0.93827000000E+00 0.  1.
     999902    2    1    2    0    0  0.91356592513E-02  0.15701252993E-01  0.15447745180E-01  0.10200841944E+01  0.10198054428E+01 0.  0.
     999903    2    3    3    0    0 -0.11840326724E+00  0.32461191200E-01  0.39293577756E-01  0.13041251501E+00  0.19757939954E-01 0.  0.
         14    1    1    2    0    0 -0.91356592513E-02 -0.15701252993E-01 -0.15447745180E-01  0.23845805640E-01  0.00000000000E+00 0. -1.
     999901    1    3    3    0    0  0.12753892649E+00 -0.16759938207E-01 -0.23845832577E-01  0.88967167935E+00  0.88000000000E+00 0. -1.
        -11    1    4    4    0    0 -0.46931565813E-01  0.14762793369E-01  0.58727796840E-02  0.49550606454E-01  0.51100000000E-03 0. -1.
         11    1    4    4    0    0 -0.71471701430E-01  0.17698397831E-01  0.33420798072E-01  0.80861908559E-01  0.51100000000E-03 0.  1.
</event>
<event>
 8    1  0.1064839E+005  0.1043930E+01  0.7957747E-01            NaN
         13   -1    0    0    0    0  0.00000000000E+00  0.00000000000E+00  0.74505805969E-08  0.10566000000E+00  0.10566000000E+00 0.  1.
     999900   -1    0    0    0    0 -0.00000000000E+00 -0.00000000000E+00 -0.74505805969E-08  0.93827000000E+00  0.93827000000E+00 0.  1.
     999902    2    1    2    0    0 -0.98695841112E-02  0.17274973397E-01 -0.13284447923E-01  0.10200069995E+01  0.10197264187E+01 0.  0.
     999903    2    3    3    0    0 -0.11790011746E+00 -0.52095029862E-01 -0.35229050555E-02  0.13063751430E+00  0.20962334026E-01 0.  0.
         14    1    1    2    0    0  0.98695841112E-02 -0.17274973397E-01  0.13284447923E-01  0.23923000501E-01  0.00000000000E+00 0.  1.
     999901    1    3    3    0    0  0.10803053335E+00  0.69370003258E-01 -0.97615428672E-02  0.88936948520E+00  0.88000000000E+00 0.  1.
        -11    1    4    4    0    0 -0.60654389270E-01 -0.38186079625E-01 -0.21824395850E-02  0.71708826364E-01  0.51100000000E-03 0.  1.
         11    1    4    4    0    0 -0.57245728192E-01 -0.13908950237E-01 -0.13404654705E-02  0.58928687934E-01  0.51100000000E-03 0. -1.
</event>
<event>
 8    1  0.1064839E+005  0.1043930E+01  0.7957747E-01            NaN
         13   -1    0    0    0    0  0.00000000000E+00  0.00000000000E+00  0.74505805969E-08  0.10566000000E+00  0.10566000000E+00 0. -1.
     999900   -1    0    0    0    0 -0.00000000000E+00 -0.00000000000E+00 -0.74505805969E-08  0.93827000000E+00  0.93827000000E+00 0. -1.
     999902    2    1    2    0    0 -0.16876056010E-01 -0.54459658609E-02 -0.17831296433E-01  0.10187821384E+01  0.10184717132E+01 0.  0.
     999903    2    3    3    0    0  0.64263370258E-01  0.10818196716E+00  0.59609930161E-02  0.12745672830E+00  0.19405292418E-01 0.  0.
         14    1    1    2    0    0  0.16876056010E-01  0.54459658609E-02  0.17831296433E-01  0.25147861601E-01  0.00000000000E+00 0. -1.
     999901    1    3    3    0    0 -0.81139426268E-01 -0.11362793302E+00 -0.23792289449E-01  0.89132541010E+00  0.88000000000E+00 0. -1.
        -11    1    4    4    0    0  0.17909124265E-01  0.41361679884E-01 -0.51763934503E-02  0.45371593149E-01  0.51100000000E-03 0.  1.
         11    1    4    4    0    0  0.46354245993E-01  0.66820287280E-01  0.11137386466E-01  0.82085135147E-01  0.51100000000E-03 0. -1.
</event>
<event>
 8    1  0.1064839E+005  0.1043930E+01  0.7957747E-01            NaN
         13   -1    0    0    0    0  0.00000000000E+00  0.00000000000E+00  0.74505805969E-08  0.10566000000E+00  0.10566000000E+00 0.  1.
     999900   -1    0    0    0    0 -0.00000000000E+00 -0.00000000000E+00 -0.74505805969E-08  0.93827000000E+00  0.93827000000E+00 0.  1.
     999902    2    1    2    0    0 -0.81672575815E-02  0.19919716473E-01  0.10584428531E-01  0.10199398077E+01  0.10196576298E+01 0.  0.
     999903    2    3    3    0    0  0.10563449839E+00  0.41953833420E-01  0.61930082179E-01  0.13085448099E+00  0.19203872712E-01 0.  0.
         14    1    1    2    0    0  0.81672575815E-02 -0.19919716473E-01 -0.10584428531E-01  0.23990192331E-01  0.00000000000E+00 0. -1.
     999901    1    3    3    0    0 -0.11380175597E+00 -0.22034116946E-01 -0.51345653648E-01  0.88908532668E+00  0.88000000000E+00 0.  1.
        -11    1    4    4    0    0  0.62335498245E-02  0.80839050705E-02  0.45719365286E-02  0.11196891945E-01  0.51100000000E-03 0. -1.
         11    1    4    4    0    0  0.99400948565E-01  0.33869928349E-01  0.57358145650E-01  0.11965758904E+00  0.51100000000E-03 0.  1.
</event>
<event>
 8    1  0.1064839E+005  0.1043930E+01  0.7957747E-01            NaN
         13   -1    0    0    0    0  0.00000000000E+00  0.00000000000E+00  0.74505805969E-08  0.10566000000E+00  0.10566000000E+00 0. -1.
     999900   -1    0    0    0    0 -0.00000000000E+00 -0.00000000000E+00 -0.74505805969E-08  0.93827000000E+00  0.93827000000E+00 0. -1.
     999902    2    1    2    0    0 -0.93060415108E-02 -0.18666030292E-01 -0.12325692402E-01  0.10197030359E+01  0.10194151930E+01 0.  0.
     999903    2    3    3    0    0  0.64133329071E-01  0.10173365061E+00  0.36227364978E-01  0.12715229579E+00  0.19810724073E-01 0.  0.
         14    1    1    2    0    0  0.93060415108E-02  0.18666030292E-01  0.12325692402E-01  0.24226964082E-01  0.00000000000E+00 0. -1.
     999901    1    3    3    0    0 -0.73439370582E-01 -0.12039968090E+00 -0.48553057380E-01  0.89255074012E+00  0.88000000000E+00 0.  1.
        -11    1    4    4    0    0  0.22263175436E-01  0.19498164057E-01  0.85729414848E-02  0.30815318087E-01  0.51100000000E-03 0.  1.
         11    1    4    4    0    0  0.41870153635E-01  0.82235486554E-01  0.27654423493E-01  0.96336977708E-01  0.51100000000E-03 0. -1.
</event>
<event>
 8    1  0.1064839E+005  0.1043930E+01  0.7957747E-01            NaN
         13   -1    0    0    0    0  0.00000000000E+00  0.00000000000E+00  0.74505805969E-08  0.10566000000E+00  0.10566000000E+00 0. -1.
     999900   -1    0    0    0    0 -0.00000000000E+00 -0.00000000000E+00 -0.74505805969E-08  0.93827000000E+00  0.93827000000E+00 0.  1.
     999902    2    1    2    0    0  0.90633816124E-02  0.48324957058E-02 -0.21528399174E-01  0.10200769106E+01  0.10197979867E+01 0.  0.
     999903    2    3    3    0    0 -0.10241447662E+00  0.28094676978E-01  0.68830258658E-01  0.12815027184E+00  0.20170566909E-01 0.  0.
         14    1    1    2    0    0 -0.90633816124E-02 -0.48324957058E-02  0.21528399174E-01  0.23853089360E-01  0.00000000000E+00 0. -1.
     999901    1    3    3    0    0  0.11147785824E+00 -0.23262181272E-01 -0.90358657832E-01  0.89192663880E+00  0.88000000000E+00 0. -1.
        -11    1    4    4    0    0 -0.69975931256E-02  0.76012835676E-02  0.87226636139E-02  0.13531141968E-01  0.51100000000E-03 0.  1.
         11    1    4    4    0    0 -0.95416883498E-01  0.20493393410E-01  0.60107595044E-01  0.11461912987E+00  0.51100000000E-03 0. -1.
</event>
<event>
 8    1  0.1064839E+005  0.1043930E+01  0.7957747E-01            NaN
         13   -1    0    0    0    0  0.00000000000E+00  0.00000000000E+00  0.74505805969E-08  0.10566000000E+00  0.10566000000E+00 0. -1.
     999900   -1    0    0    0    0 -0.00000000000E+00 -0.00000000000E+00 -0.74505805969E-08  0.93827000000E+00  0.93827000000E+00 0. -1.
     999902    2    1    2    0    0  0.13746719150E-01  0.64208957619E-02  0.18369895001E-01  0.10201045256E+01  0.10198262547E+01 0.  0.
     999903    2    3    3    0    0  0.61508316005E-01  0.80221918484E-02  0.11633999364E+00  0.13337915967E+00  0.20183597681E-01 0.  0.
         14    1    1    2    0    0 -0.13746719150E-01 -0.64208957619E-02 -0.18369895001E-01  0.23825474436E-01  0.00000000000E+00 0.  1.
     999901    1    3    3    0    0 -0.47761596855E-01 -0.16012960865E-02 -0.97970098640E-01  0.88672536589E+00  0.88000000000E+00 0. -1.
        -11    1    4    4    0    0  0.31137718285E-01  0.82396345734E-02  0.78520003554E-01  0.84871085518E-01  0.51100000000E-03 0. -1.
         11    1    4    4    0    0  0.30370597720E-01 -0.21744272499E-03  0.37819990087E-01  0.48508074157E-01  0.51100000000E-03 0.  1.
</event>
<event>
 8    1  0.1064839E+005  0.1043930E+01  0.7957747E-01            NaN
         13   -1    0    0    0    0  0.00000000000E+00  0.00000000000E+00  0.74505805969E-08  0.10566000000E+00  0.10566000000E+00 0. -1.
     999900   -1    0    0    0    0 -0.00000000000E+00 -0.00000000000E+00 -0.74505805969E-08  0.93827000000E+00  0.93827000000E+00 0.  1.
     999902    2    1    2    0    0 -0.11111649686E-01 -0.20832566810E-01 -0.49309346710E-02  0.10198099105E+01  0.10195246318E+01 0.  0.
     999903    2    3    3    0    0 -0.23325258705E-01 -0.89316056980E-02  0.12596964842E+00  0.12996398693E+00  0.19961069624E-01 0.  0.
         14    1    1    2    0    0  0.11111649686E-01  0.20832566810E-01  0.49309346710E-02  0.24120089456E-01  0.00000000000E+00 0. -1.
     999901    1    3    3    0    0  0.12213609019E-01 -0.11900961112E-01 -0.13090058309E+00  0.88984592362E+00  0.88000000000E+00 0.  1.
        -11    1    4    4    0    0 -0.24183013825E-01 -0.12438694415E-02  0.95745131670E-01  0.98761109392E-01  0.51100000000E-03 0. -1.
         11    1    4    4    0    0  0.85775512070E-03 -0.76877362564E-02  0.30224516753E-01  0.31202877537E-01  0.51100000000E-03 0.  1.
</event>
<event>
 8    1  0.1064839E+005  0.1043930E+01  0.7957747E-01            NaN
         13   -1    0    0    0    0  0.00000000000E+00  0.00000000000E+00  0.74505805969E-08  0.10566000000E+00  0.10566000000E+00 0. -1.
     999900   -1    0    0    0    0 -0.00000000000E+00 -0.00000000000E+00 -0.74505805969E-08  0.93827000000E+00  0.93827000000E+00 0.  1.
     999902    2    1    2    0    0  0.91074540601E-02 -0.30086169398E-02  0.19535605961E-01  0.10221667880E+01  0.10219350787E+01 0.  0.
     999903    2    3    3    0    0 -0.63354419167E-01  0.91793456818E-01 -0.64025211889E-01  0.13019113446E+00  0.20265305152E-01 0.  0.
         14    1    1    2    0    0 -0.91074540601E-02  0.30086169398E-02 -0.19535605961E-01  0.21763211978E-01  0.00000000000E+00 0.  1.
     999901    1    3    3    0    0  0.72461873227E-01 -0.94802073758E-01  0.83560817850E-01  0.89197565356E+00  0.88000000000E+00 0.  1.
        -11    1    4    4    0    0 -0.32813029516E-01  0.42380393225E-01 -0.19648814054E-01  0.57088787434E-01  0.51100000000E-03 0.  1.
         11    1    4    4    0    0 -0.30541389651E-01  0.49413063593E-01 -0.44376397835E-01  0.73102347030E-01  0.51100000000E-03 0. -1.
</event>
<event>
 8    1  0.1064839E+005  0.1043930E+01  0.7957747E-01            NaN
         13   -1    0    0    0    0  0.00000000000E+00  0.00000000000E+00  0.74505805969E-08  0.10566000000E+00  0.10566000000E+00 0.  1.
     999900   -1    0    0    0    0 -0.00000000000E+00 -0.00000000000E+00 -0.74505805969E-08  0.93827000000E+00  0.93827000000E+00 0.  1.
     999902    2    1    2    0    0  0.14124134731E-01 -0.29304088361E-02 -0.19352167180E-01  0.10197932054E+01  0.10195075267E+01 0.  0.
     999903    2    3    3    0    0 -0.12653448940E+00  0.25847503237E-03 -0.95378016172E-02  0.12856296621E+00  0.20650007347E-01 0.  0.
         14    1    1    2    0    0 -0.14124134731E-01  0.29304088361E-02  0.19352167180E-01  0.24136794576E-01  0.00000000000E+00 0.  1.
     999901    1    3    3    0    0  0.14065862413E+00 -0.31888838685E-02 -0.98143655631E-02  0.89123023922E+00  0.88000000000E+00 0. -1.
        -11    1    4    4    0    0 -0.10138383967E+00  0.64543780913E-02 -0.21127810965E-02  0.10161233639E+00  0.51100000000E-03 0. -1.
         11    1    4    4    0    0 -0.25150649730E-01 -0.61959030590E-02 -0.74250205207E-02  0.26950629813E-01  0.51100000000E-03 0.  1.
</event>
<event>
 8    1  0.1064839E+005  0.1043930E+01  0.7957747E-01            NaN
         13   -1    0    0    0    0  0.00000000000E+00  0.00000000000E+00  0.74505805969E-08  0.10566000000E+00  0.10566000000E+00 0. -1.
     999900   -1    0    0    0    0 -0.00000000000E+00 -0.00000000000E+00 -0.74505805969E-08  0.93827000000E+00  0.93827000000E+00 0.  1.
     999902    2    1    2    0    0  0.12922506692E-01  0.11765899625E-01  0.14648290278E-01  0.10211264919E+01  0.10208718394E+01 0.  0.
     999903    2    3    3    0    0 -0.89323938237E-01 -0.90958862184E-01  0.74798818583E-02  0.12924191514E+00  0.19880730512E-01 0.  0.
         14    1    1    2    0    0 -0.12922506692E-01 -0.11765899625E-01 -0.14648290278E-01  0.22803508092E-01  0.00000000000E+00 0.  1.
     999901    1    3    3    0    0  0.10224644493E+00  0.10272476181E+00  0.71684084201E-02  0.89188457676E+00  0.88000000000E+00 0. -1.
        -11    1    4    4    0    0 -0.42153159650E-01 -0.32072488211E-01 -0.30580459458E-02  0.53057950719E-01  0.51100000000E-03 0. -1.
         11    1    4    4    0    0 -0.47170778588E-01 -0.58886373973E-01  0.10537927804E-01  0.76183964426E-01  0.51100000000E-03 0.  1.
</event>
<event>
 8    1  0.1140430E+005  0.1043930E+01  0.7957747E-01            NaN
         13   -1    0    0    0    0  0.00000000000E+00  0.00000000000E+00  0.74505805969E-08  0.10566000000E+00  0.10566000000E+00 0.  1.
     999900   -1    0    0    0    0 -0.00000000000E+00 -0.00000000000E+00 -0.74505805969E-08  0.93827000000E+00  0.93827000000E+00 0.  1.
     999902    2    1    2    0    0 -0.16571088255E-01  0.14284764158E-01 -0.74087564399E-02  0.10208314043E+01  0.10205700421E+01 0.  0.
     999903    2    3    3    0    0  0.89674128132E-01  0.37054545754E-01 -0.85376525738E-01  0.13072720699E+00  0.19645938065E-01 0.  0.
         14    1    1    2    0    0  0.16571088255E-01 -0.14284764158E-01  0.74087564399E-02  0.23098595736E-01  0.00000000000E+00 0.  1.
     999901    1    3    3    0    0 -0.10624521639E+00 -0.22769781596E-01  0.77967769298E-01  0.89010419728E+00  0.88000000000E+00 0. -1.
        -11    1    4    4    0    0  0.52422456146E-01  0.31878911700E-01 -0.54422121023E-01  0.82014677328E-01  0.51100000000E-03 0.  1.
         11    1    4    4    0    0  0.37251671985E-01  0.51756340540E-02 -0.30954404715E-01  0.48712529659E-01  0.51100000000E-03 0. -1.
</event>
<event>
 7    1  0.1064839E+005  0.1043930E+01  0.7957747E-01            NaN
         13   -1    0    0    0    0  0.00000000000E+00  0.00000000000E+00  0.74505805969E-08  0.10566000000E+00  0.10566000000E+00 0. -1.
     999900   -1    0    0    0    0 -0.00000000000E+00 -0.00000000000E+00 -0.74505805969E-08  0.93827000000E+00  0.93827000000E+00 0. -1.
     999903    2    1    2    0    0 -0.87099552925E-01 -0.17255112623E-01  0.47057542709E-01  0.10260930520E+00  0.20740929494E-01 0.  0.
         14    1    1    2    0    0  0.47798435297E-01  0.25029298959E-01 -0.26638038388E-01  0.60172596025E-01  0.00000000000E+00 0. -1.
     999901    1    1    2    0    0  0.39301117629E-01 -0.77741863365E-02 -0.20419504321E-01  0.88114809878E+00  0.88000000000E+00 0.  1.
        -11    1    3    3    0    0 -0.40201606751E-01 -0.38116929939E-02  0.10745768505E-01  0.41790320058E-01  0.51100000000E-03 0.  1.
         11    1    3    3    0    0 -0.46897946175E-01 -0.13443419629E-01  0.36311774204E-01  0.60818985141E-01  0.51100000000E-03 0. -1.
</event>
<event>
 8    1  0.1064839E+005  0.1043930E+01  0.7957747E-01            NaN
         13   -1    0    0    0    0  0.00000000000E+00  0.00000000000E+00  0.74505805969E-08  0.10566000000E+00  0.10566000000E+00 0. -1.
     999900   -1    0    0    0    0 -0.00000000000E+00 -0.00000000000E+00 -0.74505805969E-08  0.93827000000E+00  0.93827000000E+00 0.  1.
     999902    2    1    2    0    0 -0.19954749722E-01 -0.92892023193E-02  0.16309253487E-02  0.10218587238E+01  0.10216203356E+01 0.  0.
     999903    2    3    3    0    0  0.97458286197E-01 -0.46409249388E-01 -0.70517482565E-01  0.13036048393E+00  0.19214693509E-01 0.  0.
         14    1    1    2    0    0  0.19954749722E-01  0.92892023193E-02 -0.16309253487E-02  0.22071276214E-01  0.00000000000E+00 0. -1.
     999901    1    3    3    0    0 -0.11741303592E+00  0.37120047068E-01  0.72148407914E-01  0.89149823985E+00  0.88000000000E+00 0.  1.
        -11    1    4    4    0    0  0.25391064326E-01 -0.20825796883E-01 -0.16685924570E-01  0.36838853989E-01  0.51100000000E-03 0.  1.
         11    1    4    4    0    0  0.72067221870E-01 -0.25583452505E-01 -0.53831557995E-01  0.93521629944E-01  0.51100000000E-03 0. -1.
</event>
<event>
 8    1  0.1064839E+005  0.1043930E+01  0.7957747E-01            NaN
         13   -1    0    0    0    0  0.00000000000E+00  0.00000000000E+00  0.74505805969E-08  0.10566000000E+00  0.10566000000E+00 0. -1.
     999900   -1    0    0    0    0 -0.00000000000E+00 -0.00000000000E+00 -0.74505805969E-08  0.93827000000E+00  0.93827000000E+00 0. -1.
     999902    2    1    2    0    0  0.14619977116E-01 -0.58099462999E-02  0.17470057651E-01  0.10204203824E+01  0.10201495256E+01 0.  0.
     999903    2    3    3    0    0  0.10481665481E+00  0.72724170600E-01  0.29567172572E-01  0.13224844610E+00  0.18441737660E-01 0.  0.
         14    1    1    2    0    0 -0.14619977116E-01  0.58099462999E-02 -0.17470057651E-01  0.23509617632E-01  0.00000000000E+00 0.  1.
     999901    1    3    3    0    0 -0.90196677689E-01 -0.78534116900E-01 -0.12097114921E-01  0.88817193627E+00  0.88000000000E+00 0.  1.
        -11    1    4    4    0    0  0.67449607086E-01  0.55663338210E-01  0.15437194277E-01  0.88805544900E-01  0.51100000000E-03 0. -1.
         11    1    4    4    0    0  0.37367047719E-01  0.17060832390E-01  0.14129978295E-01  0.43442901200E-01  0.51100000000E-03 0.  1.
</event>
<event>
 7    1  0.1064839E+005  0.1043930E+01  0.7957747E-01            NaN
         13   -1    0    0    0    0  0.00000000000E+00  0.00000000000E+00  0.74505805969E-08  0.10566000000E+00  0.10566000000E+00 0.  1.
     999900   -1    0    0    0    0 -0.00000000000E+00 -0.00000000000E+00 -0.74505805969E-08  0.93827000000E+00  0.93827000000E+00 0. -1.
     999903    2    1    2    0    0 -0.92125721685E-01  0.53680911312E-01  0.15086598662E-01  0.10983955499E+00  0.21641015340E-01 0.  0.
         14    1    1    2    0    0 -0.15374715859E-01  0.91099759560E-02 -0.41237287677E-01  0.44943157929E-01  0.00000000000E+00 0. -1.
     999901    1    1    2    0    0  0.10750043754E+00 -0.62790887268E-01  0.26150689015E-01  0.88914728709E+00  0.88000000000E+00 0.  1.
        -11    1    3    3    0    0 -0.81065477836E-01  0.37853096282E-01  0.11749421331E-01  0.90237346025E-01  0.51100000000E-03 0. -1.
         11    1    3    3    0    0 -0.11060243849E-01  0.15827815029E-01  0.33371773310E-02  0.19602208961E-01  0.51100000000E-03 0.  1.
</event>
<event>
 8    1  0.1064839E+005  0.1043930E+01  0.7957747E-01            NaN
         13   -1    0    0    0    0  0.00000000000E+00  0.00000000000E+00  0.74505805969E-08  0.10566000000E+00  0.10566000000E+00 0.  1.
     999900   -1    0    0    0    0 -0.00000000000E+00 -0.00000000000E+00 -0.74505805969E-08  0.93827000000E+00  0.93827000000E+00 0.  1.
     999902    2    1    2    0    0 -0.15840670831E-01 -0.16909342346E-01 -0.22685463022E-02  0.10206491277E+01  0.10203835764E+01 0.  0.
     999903    2    3    3    0    0  0.11490551449E-01 -0.53015760318E-01  0.11785294908E+00  0.13133487351E+00  0.20416360533E-01 0.  0.
         14    1    1    2    0    0  0.15840670831E-01  0.16909342346E-01  0.22685463022E-02  0.23280872261E-01  0.00000000000E+00 0.  1.
     999901    1    3    3    0    0 -0.27331222280E-01  0.36106417973E-01 -0.12012149538E+00  0.88931425423E+00  0.88000000000E+00 0.  1.
        -11    1    4    4    0    0 -0.18864026979E-02 -0.24727802313E-01  0.68942190741E-01  0.73268748505E-01  0.51100000000E-03 0.  1.
         11    1    4    4    0    0  0.13376954147E-01 -0.28287958005E-01  0.48910758337E-01  0.58066125000E-01  0.51100000000E-03 0. -1.
</event>
<event>
 8    1  0.1064839E+005  0.1043930E+01  0.7957747E-01            NaN
         13   -1    0    0    0    0  0.00000000000E+00  0.00000000000E+00  0.74505805969E-08  0.10566000000E+00  0.10566000000E+00 0.  1.
     999900   -1    0    0    0    0 -0.00000000000E+00 -0.00000000000E+00 -0.74505805969E-08  0.93827000000E+00  0.93827000000E+00 0.  1.
     999902    2    1    2    0    0  0.28734510647E-02 -0.19508336186E-01 -0.13373655858E-01  0.10201038259E+01  0.10198255385E+01 0.  0.
     999903    2    3    3    0    0 -0.34420746188E-01 -0.97684935586E-01  0.77866615384E-01  0.13115656933E+00  0.20290428263E-01 0.  0.
         14    1    1    2    0    0 -0.28734510647E-02  0.19508336186E-01  0.13373655858E-01  0.23826174111E-01  0.00000000000E+00 0. -1.
     999901    1    3    3    0    0  0.37294197253E-01  0.78176599400E-01 -0.91240271243E-01  0.88894725656E+00  0.88000000000E+00 0.  1.
        -11    1    4    4    0    0 -0.25810412736E-01 -0.45124263617E-01  0.43321918033E-01  0.67671458353E-01  0.51100000000E-03 0.  1.
         11    1    4    4    0    0 -0.86103334522E-02 -0.52560671969E-01  0.34544697351E-01  0.63485110979E-01  0.51100000000E-03 0. -1.
</event>
<event>
 8    1  0.1064839E+005  0.1043930E+01  0.7957747E-01            NaN
         13   -1    0    0    0    0  0.00000000000E+00  0.00000000000E+00  0.74505805969E-08  0.10566000000E+00  0.10566000000E+00 0.  1.
     999900   -1    0    0    0    0 -0.00000000000E+00 -0.00000000000E+00 -0.74505805969E-08  0.93827000000E+00  0.93827000000E+00 0. -1.
     999902    2    1    2    0    0 -0.23320382574E-02  0.33223926597E-02 -0.23691803917E-01  0.10198929813E+01  0.10196096876E+01 0.  0.
     999903    2    3    3    0    0  0.87224398987E-01 -0.83540749842E-01 -0.45909895486E-01  0.13081525434E+00  0.20439168310E-01 0.  0.
         14    1    1    2    0    0  0.23320382574E-02 -0.33223926597E-02  0.23691803917E-01  0.24037018706E-01  0.00000000000E+00 0.  1.
     999901    1    3    3    0    0 -0.89556437244E-01  0.86863142501E-01  0.22218091570E-01  0.88907772696E+00  0.88000000000E+00 0.  1.
        -11    1    4    4    0    0  0.52158614498E-01 -0.61990626611E-01 -0.34849203023E-01  0.88193463059E-01  0.51100000000E-03 0.  1.
         11    1    4    4    0    0  0.35065784489E-01 -0.21550123231E-01 -0.11060692463E-01  0.42621791279E-01  0.51100000000E-03 0. -1.
</event>
<event>
 8    1  0.1064839E+005  0.1043930E+01  0.7957747E-01            NaN
         13   -1    0    0    0    0  0.00000000000E+00  0.00000000000E+00  0.74505805969E-08  0.10566000000E+00  0.10566000000E+00 0. -1.
     999900   -1    0    0    0    0 -0.00000000000E+00 -0.00000000000E+00 -0.74505805969E-08  0.93827000000E+00  0.93827000000E+00 0. -1.
     999902    2    1    2    0    0  0.46759373596E-02 -0.45220890489E-02 -0.22922446447E-01  0.10201024481E+01  0.10198241281E+01 0.  0.
     999903    2    3    3    0    0 -0.98732466940E-01  0.79587707984E-02 -0.84605470916E-01  0.13181540807E+00  0.20143833646E-01 0.  0.
         14    1    1    2    0    0 -0.46759373596E-02  0.45220890489E-02  0.22922446447E-01  0.23827551924E-01  0.00000000000E+00 0. -1.
     999901    1    3    3    0    0  0.10340840430E+00 -0.12480859847E-01  0.61683024469E-01  0.88828704001E+00  0.88000000000E+00 0.  1.
        -11    1    4    4    0    0 -0.20607947416E-01  0.15660610240E-02 -0.29392990416E-01  0.35935345420E-01  0.51100000000E-03 0.  1.
         11    1    4    4    0    0 -0.78124519524E-01  0.63927097744E-02 -0.55212480500E-01  0.95880062647E-01  0.51100000000E-03 0. -1.
</event>
<event>
 8    1  0.1064839E+005  0.1043930E+01  0.7957747E-01            NaN
         13   -1    0    0    0    0  0.00000000000E+00  0.00000000000E+00  0.74505805969E-08  0.10566000000E+00  0.10566000000E+00 0. -1.
     999900   -1    0    0    0    0 -0.00000000000E+00 -0.00000000000E+00 -0.74505805969E-08  0.93827000000E+00  0.93827000000E+00 0.  1.
     999902    2    1    2    0    0 -0.17247271798E-01 -0.13786907075E-01  0.49155830808E-02  0.10213089888E+01  0.10210584412E+01 0.  0.
     999903    2    3    3    0    0 -0.10572750907E+00  0.74866153717E-01  0.18075824681E-01  0.13234256111E+00  0.20113947868E-01 0.  0.
         14    1    1    2    0    0  0.17247271798E-01  0.13786907075E-01 -0.49155830808E-02  0.22621011210E-01  0.00000000000E+00 0.  1.
     999901    1    3    3    0    0  0.88480237268E-01 -0.88653060792E-01 -0.13160241600E-01  0.88896642768E+00  0.88000000000E+00 0.  1.
        -11    1    4    4    0    0 -0.62566672920E-01  0.32550147259E-01  0.12633271490E-01  0.71651666529E-01  0.51100000000E-03 0. -1.
         11    1    4    4    0    0 -0.43160836146E-01  0.42316006458E-01  0.54425531910E-02  0.60690894586E-01  0.51100000000E-03 0.  1.
</event>
<event>
 8    1  0.1064839E+005  0.1043930E+01  0.7957747E-01            NaN
         13   -1    0    0    0    0  0.00000000000E+00  0.00000000000E+00  0.74505805969E-08  0.10566000000E+00  0.10566000000E+00 0.  1.
     999900   -1    0    0    0    0 -0.00000000000E+00 -0.00000000000E+00 -0.74505805969E-08  0.93827000000E+00  0.93827000000E+00 0. -1.
     999902    2    1    2    0    0  0.78487786172E-02  0.10243627169E-01 -0.18996801371E-01  0.10209645110E+01  0.10207061864E+01 0.  0.
     999903    2    3    3    0    0 -0.29255928526E-01  0.95433628261E-01  0.81407228483E-01  0.13039443245E+00  0.20299862235E-01 0.  0.
         14    1    1    2    0    0 -0.78487786172E-02 -0.10243627169E-01  0.18996801371E-01  0.22965489015E-01  0.00000000000E+00 0.  1.
     999901    1    3    3    0    0  0.37104707143E-01 -0.85190001092E-01 -0.10040402985E+00  0.89057007854E+00  0.88000000000E+00 0. -1.
        -11    1    4    4    0    0 -0.31053317234E-01  0.72859270725E-01  0.62690280728E-01  0.10101046609E+00  0.51100000000E-03 0. -1.
         11    1    4    4    0    0  0.17973887076E-02  0.22574357536E-01  0.18716947755E-01  0.29383966353E-01  0.51100000000E-03 0.  1.
</event>
<event>
 8    1  0.1064839E+005  0.1043930E+01  0.7957747E-01            NaN
         13   -1    0    0    0    0  0.00000000000E+00  0.00000000000E+00  0.74505805969E-08  0.10566000000E+00  0.10566000000E+00 0.  1.
     999900   -1    0    0    0    0 -0.00000000000E+00 -0.00000000000E+00 -0.74505805969E-08  0.93827000000E+00  0.93827000000E+00 0. -1.
     999902    2    1    2    0    0 -0.23079650930E-01  0.19329841828E-02 -0.38841404589E-02  0.10204461063E+01  0.10201758489E+01 0.  0.
     999903    2    3    3    0    0  0.10174431928E+00 -0.20905679436E-01  0.72229249590E-01  0.12809198590E+00  0.20038423507E-01 0.  0.
         14    1    1    2    0    0  0.23079650930E-01 -0.19329841828E-02  0.38841404589E-02  0.23483893672E-01  0.00000000000E+00 0. -1.
     999901    1    3    3    0    0 -0.12482397021E+00  0.22838663619E-01 -0.76113390049E-01  0.89235412043E+00  0.88000000000E+00 0.  1.
        -11    1    4    4    0    0  0.39799142173E-01 -0.17463518661E-01  0.34350855114E-01  0.55400257850E-01  0.51100000000E-03 0.  1.
         11    1    4    4    0    0  0.61945177112E-01 -0.34421607747E-02  0.37878394476E-01  0.72691728053E-01  0.51100000000E-03 0. -1.
</event>
<event>
 8    1  0.1064839E+005  0.1043930E+01  0.7957747E-01            NaN
         13   -1    0    0    0    0  0.00000000000E+00  0.00000000000E+00  0.74505805969E-08  0.10566000000E+00  0.10566000000E+00 0.  1.
     999900   -1    0    0    0    0 -0.00000000000E+00 -0.00000000000E+00 -0.74505805969E-08  0.93827000000E+00  0.93827000000E+00 0. -1.
     999902    2    1    2    0    0  0.11413484108E-01  0.19732096883E-01 -0.20707165470E-01  0.10131337345E+01  0.10126655687E+01 0.  0.
     999903    2    3    3    0    0  0.80287777372E-01  0.56638244987E-01 -0.79034199397E-01  0.12774806999E+00  0.20473073061E-01 0.  0.
         14    1    1    2    0    0 -0.11413484108E-01 -0.19732096883E-01  0.20707165470E-01  0.30796265499E-01  0.00000000000E+00 0.  1.
     999901    1    3    3    0    0 -0.68874293264E-01 -0.36906148104E-01  0.58327033927E-01  0.88538566451E+00  0.88000000000E+00 0.  1.
        -11    1    4    4    0    0  0.54187298040E-01  0.47946222527E-01 -0.62753120488E-01  0.95777443981E-01  0.51100000000E-03 0.  1.
         11    1    4    4    0    0  0.26100479332E-01  0.86920224598E-02 -0.16281078909E-01  0.31970626006E-01  0.51100000000E-03 0. -1.
</event>
<event>
 8    1  0.1064839E+005  0.1043930E+01  0.7957747E-01            NaN
         13   -1    0    0    0    0  0.00000000000E+00  0.00000000000E+00  0.74505805969E-08  0.10566000000E+00  0.10566000000E+00 0.  1.
     999900   -1    0    0    0    0 -0.00000000000E+00 -0.00000000000E+00 -0.74505805969E-08  0.93827000000E+00  0.93827000000E+00 0.  1.
     999902    2    1    2    0    0 -0.13436638469E-01  0.15501439129E-01 -0.11111066847E-01  0.10205998977E+01  0.10203332090E+01 0.  0.
     999903    2    3    3    0    0 -0.72665258998E-02 -0.11927453092E+00 -0.46633853855E-01  0.12960915653E+00  0.18563431977E-01 0.  0.
         14    1    1    2    0    0  0.13436638469E-01 -0.15501439129E-01  0.11111066847E-01  0.23330102334E-01  0.00000000000E+00 0.  1.
     999901    1    3    3    0    0 -0.61701125693E-02  0.13477597005E+00  0.35522787008E-01  0.89099074114E+00  0.88000000000E+00 0.  1.
        -11    1    4    4    0    0 -0.53780983405E-02 -0.47971236697E-01 -0.28309339302E-01  0.55962874343E-01  0.51100000000E-03 0. -1.
         11    1    4    4    0    0 -0.18884275593E-02 -0.71303294222E-01 -0.18324514553E-01  0.73646282189E-01  0.51100000000E-03 0.  1.
</event>
<event>
 8    1  0.1064839E+005  0.1043930E+01  0.7957747E-01            NaN
         13   -1    0    0    0    0  0.00000000000E+00  0.00000000000E+00  0.74505805969E-08  0.10566000000E+00  0.10566000000E+00 0. -1.
     999900   -1    0    0    0    0 -0.00000000000E+00 -0.00000000000E+00 -0.74505805969E-08  0.93827000000E+00  0.93827000000E+00 0.  1.
     999902    2    1    2    0    0 -0.22812947048E-01 -0.17458937425E-02 -0.37983795259E-02  0.10207371911E+01  0.10204736679E+01 0.  0.
     999903    2    3    3    0    0 -0.38482918447E-02  0.26414799701E-02  0.12896174818E+00  0.13056633182E+00  0.19865742945E-01 0.  0.
         14    1    1    2    0    0  0.22812947048E-01  0.17458937425E-02  0.37983795259E-02  0.23192808907E-01  0.00000000000E+00 0. -1.
     999901    1    3    3    0    0 -0.18964655203E-01 -0.43873737126E-02 -0.13276012771E+00  0.89017085928E+00  0.88000000000E+00 0.  1.
        -11    1    4    4    0    0 -0.74514376691E-02 -0.69163973061E-02  0.64335631217E-01  0.65135973472E-01  0.51100000000E-03 0.  1.
         11    1    4    4    0    0  0.36031458244E-02  0.95578772761E-02  0.64626116968E-01  0.65430358345E-01  0.51100000000E-03 0. -1.
</event>
<event>
 8    1  0.1064839E+005  0.1043930E+01  0.7957747E-01            NaN
         13   -1    0    0    0    0  0.00000000000E+00  0.00000000000E+00  0.74505805969E-08  0.10566000000E+00  0.10566000000E+00 0. -1.
     999900   -1    0    0    0    0 -0.00000000000E+00 -0.00000000000E+00 -0.74505805969E-08  0.93827000000E+00  0.93827000000E+00 0.  1.
     999902    2    1    2    0    0  0.46642231052E-02  0.22041934131E-01  0.78052242110E-02  0.10200862721E+01  0.10198075696E+01 0.  0.
     999903    2    3    3    0    0  0.30251544049E-03  0.13089625645E+00  0.15267039745E-01  0.13333717187E+00  0.20292792589E-01 0.  0.
         14    1    1    2    0    0 -0.46642231052E-02 -0.22041934131E-01 -0.78052242110E-02  0.23843727946E-01  0.00000000000E+00 0.  1.
     999901    1    3    3    0    0  0.43617076647E-02 -0.10885432232E+00 -0.74618155341E-02  0.88674910018E+00  0.88000000000E+00 0. -1.
        -11    1    4    4    0    0  0.30050823101E-02  0.34818890049E-01  0.12694640489E-01  0.37186027512E-01  0.51100000000E-03 0. -1.
         11    1    4    4    0    0 -0.27025668696E-02  0.96077366404E-01  0.25723992564E-02  0.96151144360E-01  0.51100000000E-03 0.  1.
</event>
<event>
 8    1  0.1064839E+005  0.1043930E+01  0.7957747E-01            NaN
         13   -1    0    0    0    0  0.00000000000E+00  0.00000000000E+00  0.74505805969E-08  0.10566000000E+00  0.10566000000E+00 0.  1.
     999900   -1    0    0    0    0 -0.00000000000E+00 -0.00000000000E+00 -0.74505805969E-08  0.93827000000E+00  0.93827000000E+00 0.  1.
     999902    2    1    2    0    0 -0.80867730567E-02 -0.21864484769E-01  0.22975918583E-02  0.10205050022E+01  0.10202361144E+01 0.  0.
     999903    2    3    3    0    0 -0.13021567224E+00 -0.52983602694E-02 -0.35307671203E-02  0.13189717293E+00  0.20005099148E-01 0.  0.
         14    1    1    2    0    0  0.80867730567E-02  0.21864484769E-01 -0.22975918583E-02  0.23424997781E-01  0.00000000000E+00 0. -1.
     999901    1    3    3    0    0  0.12212889919E+00 -0.16566124500E-01  0.58283589786E-02  0.88860782928E+00  0.88000000000E+00 0. -1.
        -11    1    4    4    0    0 -0.61617560233E-01 -0.30815147625E-02  0.82891132731E-02  0.62251023945E-01  0.51100000000E-03 0.  1.
         11    1    4    4    0    0 -0.68598112011E-01 -0.22168455069E-02 -0.11819880393E-01  0.69646148989E-01  0.51100000000E-03 0. -1.
</event>
<event>
 8    1  0.1064839E+005  0.1043930E+01  0.7957747E-01            NaN
         13   -1    0    0    0    0  0.00000000000E+00  0.00000000000E+00  0.74505805969E-08  0.10566000000E+00  0.10566000000E+00 0.  1.
     999900   -1    0    0    0    0 -0.00000000000E+00 -0.00000000000E+00 -0.74505805969E-08  0.93827000000E+00  0.93827000000E+00 0.  1.
     999902    2    1    2    0    0  0.76708455739E-02  0.17348622398E-01 -0.14086322497E-01  0.10203028746E+01  0.10200292716E+01 0.  0.
     999903    2    3    3    0    0  0.58097563505E-01 -0.50613836036E-01  0.10188400499E+00  0.12866905603E+00  0.15436587161E-01 0.  0.
         14    1    1    2    0    0 -0.76708455739E-02 -0.17348622398E-01  0.14086322497E-01  0.23627125353E-01  0.00000000000E+00 0.  1.
     999901    1    3    3    0    0 -0.50426717931E-01  0.67962458434E-01 -0.11597032749E+00  0.89163381861E+00  0.88000000000E+00 0.  1.
        -11    1    4    4    0    0  0.76937516572E-02 -0.14843516206E-01  0.23577603592E-01  0.28908273903E-01  0.51100000000E-03 0. -1.
         11    1    4    4    0    0  0.50403811848E-01 -0.35770319830E-01  0.78306401403E-01  0.99760782130E-01  0.51100000000E-03 0.  1.
</event>
<event>
 8    1  0.1064839E+005  0.1043930E+01  0.7957747E-01            NaN
         13   -1    0    0    0    0  0.00000000000E+00  0.00000000000E+00  0.74505805969E-08  0.10566000000E+00  0.10566000000E+00 0.  1.
     999900   -1    0    0    0    0 -0.00000000000E+00 -0.00000000000E+00 -0.74505805969E-08  0.93827000000E+00  0.93827000000E+00 0. -1.
     999902    2    1    2    0    0 -0.18996971254E-01  0.15129257789E-01 -0.52980116832E-02  0.10190734458E+01  0.10187702585E+01 0.  0.
     999903    2    3    3    0    0 -0.11957577317E+00 -0.20035803354E-01  0.45749350097E-01  0.13117789449E+00  0.20367572861E-01 0.  0.
         14    1    1    2    0    0  0.18996971254E-01 -0.15129257789E-01  0.52980116832E-02  0.24856554183E-01  0.00000000000E+00 0. -1.
     999901    1    3    3    0    0  0.10057880191E+00  0.35165061143E-01 -0.51047361780E-01  0.88789555133E+00  0.88000000000E+00 0. -1.
        -11    1    4    4    0    0 -0.14342367345E-01 -0.16714059508E-02 -0.11851819144E-02  0.14496995416E-01  0.51100000000E-03 0.  1.
         11    1    4    4    0    0 -0.10523340582E+00 -0.18364397404E-01  0.46934532011E-01  0.11668089908E+00  0.51100000000E-03 0. -1.
</event>
<event>
 8    1  0.1064839E+005  0.1043930E+01  0.7957747E-01            NaN
         13   -1    0    0    0    0  0.00000000000E+00  0.00000000000E+00  0.74505805969E-08  0.10566000000E+00  0.10566000000E+00 0. -1.
     999900   -1    0    0    0    0 -0.00000000000E+00 -0.00000000000E+00 -0.74505805969E-08  0.93827000000E+00  0.93827000000E+00 0. -1.
     999902    2    1    2    0    0 -0.15890793838E-01 -0.10965589267E-01  0.12455722086E-01  0.10209537843E+01  0.10206952156E+01 0.  0.
     999903    2    3    3    0    0  0.12441319688E+00 -0.10504602657E-01 -0.25384084213E-01  0.12903603399E+00  0.20419502929E-01 0.  0.
         14    1    1    2    0    0  0.15890793838E-01  0.10965589267E-01 -0.12455722086E-01  0.22976215735E-01  0.00000000000E+00 0.  1.
     999901    1    3    3    0    0 -0.14030399072E+00 -0.46098660985E-03  0.37839806299E-01  0.89191775028E+00  0.88000000000E+00 0. -1.
        -11    1    4    4    0    0  0.34728710122E-01 -0.55738763871E-02  0.17064641216E-02  0.35218241659E-01  0.51100000000E-03 0.  1.
         11    1    4    4    0    0  0.89684486761E-01 -0.49307262704E-02 -0.27090548335E-01  0.93817792328E-01  0.51100000000E-03 0. -1.
</event>
<event>
 8    1  0.1064839E+005  0.1043930E+01  0.7957747E-01            NaN
         13   -1    0    0    0    0  0.00000000000E+00  0.00000000000E+00  0.74505805969E-08  0.10566000000E+00  0.10566000000E+00 0.  1.
     999900   -1    0    0    0    0 -0.00000000000E+00 -0.00000000000E+00 -0.74505805969E-08  0.93827000000E+00  0.93827000000E+00 0. -1.
     999902    2    1    2    0    0 -0.15942801633E-01 -0.13389786950E-01  0.11815799790E-01  0.10199910685E+01  0.10197101094E+01 0.  0.
     999903    2    3    3    0    0  0.23601562272E-01 -0.34103262390E-01 -0.12087504713E+00  0.12892447968E+00  0.17049287226E-01 0.  0.
         14    1    1    2    0    0  0.15942801633E-01  0.13389786950E-01 -0.11815799790E-01  0.23938931538E-01  0.00000000000E+00 0. -1.
     999901    1    3    3    0    0 -0.39544363905E-01  0.20713475440E-01  0.13269084692E+00  0.89106658878E+00  0.88000000000E+00 0.  1.
        -11    1    4    4    0    0  0.18375666384E-01 -0.34226908539E-01 -0.11269006653E+00  0.11919923908E+00  0.51100000000E-03 0.  1.
         11    1    4    4    0    0  0.52258958884E-02  0.12364614944E-03 -0.81849806054E-02  0.97252405994E-02  0.51100000000E-03 0. -1.
</event>
<event>
 8    1  0.1064839E+005  0.1043930E+01  0.7957747E-01            NaN
         13   -1    0    0    0    0  0.00000000000E+00  0.00000000000E+00  0.74505805969E-08  0.10566000000E+00  0.10566000000E+00 0.  1.
     999900   -1    0    0    0    0 -0.00000000000E+00 -0.00000000000E+00 -0.74505805969E-08  0.93827000000E+00  0.93827000000E+00 0.  1.
     999902    2    1    2    0    0 -0.14383501564E-02 -0.61578985135E-02 -0.23313449076E-01  0.10197741421E+01  0.10194880065E+01 0.  0.
     999903    2    3    3    0    0 -0.69465125804E-01 -0.10883362732E+00  0.49829750389E-02  0.13074622623E+00  0.19989584654E-01 0.  0.
         14    1    1    2    0    0  0.14383501564E-02  0.61578985135E-02  0.23313449076E-01  0.24155857946E-01  0.00000000000E+00 0.  1.
     999901    1    3    3    0    0  0.68026775648E-01  0.10267572881E+00 -0.28296424115E-01  0.88902791582E+00  0.88000000000E+00 0. -1.
        -11    1    4    4    0    0 -0.49122344278E-01 -0.63045725361E-01 -0.31357630607E-02  0.79986638413E-01  0.51100000000E-03 0. -1.
         11    1    4    4    0    0 -0.20342781526E-01 -0.45787901962E-01  0.81187380997E-02  0.50759587820E-01  0.51100000000E-03 0.  1.
</event>
<event>
 8    1  0.1064839E+005  0.1043930E+01  0.7957747E-01            NaN
         13   -1    0    0    0    0  0.00000000000E+00  0.00000000000E+00  0.74505805969E-08  0.10566000000E+00  0.10566000000E+00 0. -1.
     999900   -1    0    0    0    0 -0.00000000000E+00 -0.00000000000E+00 -0.74505805969E-08  0.93827000000E+00  0.93827000000E+00 0.  1.
     999902    2    1    2    0    0  0.38591771305E-02 -0.22210556053E-01  0.33774762040E-02  0.10211350577E+01  0.10208805986E+01 0.  0.
     999903    2    3    3    0    0  0.47686917514E-01  0.85058981370E-01  0.83932412847E-01  0.12989057818E+00  0.17828066620E-01 0.  0.
         14    1    1    2    0    0 -0.38591771305E-02  0.22210556053E-01 -0.33774762040E-02  0.22794942285E-01  0.00000000000E+00 0. -1.
     999901    1    3    3    0    0 -0.43827740384E-01 -0.10726953742E+00 -0.80554936643E-01  0.89124447954E+00  0.88000000000E+00 0.  1.
        -11    1    4    4    0    0  0.28067558310E-01  0.40056364655E-01  0.32150700100E-01  0.58533997102E-01  0.51100000000E-03 0. -1.
         11    1    4    4    0    0  0.19619359204E-01  0.45002616715E-01  0.51781712748E-01  0.71356581076E-01  0.51100000000E-03 0.  1.
</event>
<event>
 8    1  0.1064839E+005  0.1043930E+01  0.7957747E-01            NaN
         13   -1    0    0    0    0  0.00000000000E+00  0.00000000000E+00  0.74505805969E-08  0.10566000000E+00  0.10566000000E+00 0.  1.
     999900   -1    0    0    0    0 -0.00000000000E+00 -0.00000000000E+00 -0.74505805969E-08  0.93827000000E+00  0.93827000000E+00 0.  1.
     999902    2    1    2    0    0 -0.34025573446E-02  0.30868628602E-02  0.23265548948E-01  0.10202151969E+01  0.10199395355E+01 0.  0.
     999903    2    3    3    0    0 -0.23624229610E-01  0.11415277799E+00  0.59512288505E-01  0.13226340785E+00  0.19050869378E-01 0.  0.
         14    1    1    2    0    0  0.34025573446E-02 -0.30868628602E-02 -0.23265548948E-01  0.23714803112E-01  0.00000000000E+00 0. -1.
     999901    1    3    3    0    0  0.20221672265E-01 -0.11106591513E+00 -0.36246739557E-01  0.88795178904E+00  0.88000000000E+00 0.  1.
        -11    1    4    4    0    0 -0.23580040348E-01  0.80406900780E-01  0.36405395996E-01  0.91361381199E-01  0.51100000000E-03 0. -1.
         11    1    4    4    0    0 -0.44189262523E-04  0.33745877212E-01  0.23106892508E-01  0.40902026648E-01  0.51100000000E-03 0.  1.
</event>
<event>
 8    1  0.1064839E+005  0.1043930E+01  0.7957747E-01            NaN
         13   -1    0    0    0    0  0.00000000000E+00  0.00000000000E+00  0.74505805969E-08  0.10566000000E+00  0.10566000000E+00 0.  1.
     999900   -1    0    0    0    0 -0.00000000000E+00 -0.00000000000E+00 -0.74505805969E-08  0.93827000000E+00  0.93827000000E+00 0.  1.
     999902    2    1    2    0    0  0.10463222427E-01  0.20493461721E-01 -0.69294520693E-02  0.10198992218E+01  0.10196160769E+01 0.  0.
     999903    2    3    3    0    0  0.66466396828E-01 -0.10016139140E+00 -0.41606650228E-01  0.12922730843E+00  0.22770543804E-01 0.  0.
         14    1    1    2    0    0 -0.10463222427E-01 -0.20493461721E-01  0.69294520693E-02  0.24030778240E-01  0.00000000000E+00 0.  1.
     999901    1    3    3    0    0 -0.56003174401E-01  0.12065485312E+00  0.34677198159E-01  0.89067191333E+00  0.88000000000E+00 0. -1.
        -11    1    4    4    0    0  0.37172976766E-01 -0.71766952529E-01 -0.34192919034E-01  0.87759572185E-01  0.51100000000E-03 0.  1.
         11    1    4    4    0    0  0.29293420062E-01 -0.28394438875E-01 -0.74137311943E-02  0.41467736244E-01  0.51100000000E-03 0. -1.
</event>
<event>
 8    1  0.1064839E+005  0.1043930E+01  0.7957747E-01            NaN
         13   -1    0    0    0    0  0.00000000000E+00  0.00000000000E+00  0.74505805969E-08  0.10566000000E+00  0.10566000000E+00 0.  1.
     999900   -1    0    0    0    0 -0.00000000000E+00 -0.00000000000E+00 -0.74505805969E-08  0.93827000000E+00  0.93827000000E+00 0.  1.
     999902    2    1    2    0    0 -0.92889101237E-02  0.11339983417E-01 -0.18641539688E-01  0.10202153194E+01  0.10199396609E+01 0.  0.
     999903    2    3    3    0    0 -0.10607772267E+00 -0.66944171848E-01  0.28615365060E-01  0.13019863512E+00  0.19970980920E-01 0.  0.
         14    1    1    2    0    0  0.92889101237E-02 -0.11339983417E-01  0.18641539688E-01  0.23714680625E-01  0.00000000000E+00 0.  1.
     999901    1    3    3    0    0  0.96788812548E-01  0.78284155265E-01 -0.47256904749E-01  0.89001668425E+00  0.88000000000E+00 0. -1.
        -11    1    4    4    0    0 -0.45002382819E-01 -0.21024680716E-01  0.18993772691E-01  0.53181539848E-01  0.51100000000E-03 0. -1.
         11    1    4    4    0    0 -0.61075339852E-01 -0.45919491131E-01  0.96215923693E-02  0.77017095275E-01  0.51100000000E-03 0.  1.
</event>
<event>
 8    1  0.1064839E+005  0.1043930E+01  0.7957747E-01            NaN
         13   -1    0    0    0    0  0.00000000000E+00  0.00000000000E+00  0.74505805969E-08  0.10566000000E+00  0.10566000000E+00 0.  1.
     999900   -1    0    0    0    0 -0.00000000000E+00 -0.00000000000E+00 -0.74505805969E-08  0.93827000000E+00  0.93827000000E+00 0. -1.
     999902    2    1    2    0    0  0.18730562297E-02  0.15407223707E-01  0.14811813079E-01  0.10224758468E+01  0.10222507406E+01 0.  0.
     999903    2    3    3    0    0  0.58927768788E-02 -0.92677621170E-01 -0.88641588730E-01  0.12983868750E+00  0.19413583780E-01 0.  0.
         14    1    1    2    0    0 -0.18730562297E-02 -0.15407223707E-01 -0.14811813079E-01  0.21454153180E-01  0.00000000000E+00 0. -1.
     999901    1    3    3    0    0 -0.40197206491E-02  0.10808484488E+00  0.10345340181E+00  0.89263715932E+00  0.88000000000E+00 0.  1.
        -11    1    4    4    0    0  0.10895795689E-01 -0.74359548637E-01 -0.76795942721E-01  0.10745203012E+00  0.51100000000E-03 0. -1.
         11    1    4    4    0    0 -0.50030188102E-02 -0.18318072532E-01 -0.11845646009E-01  0.22386657386E-01  0.51100000000E-03 0.  1.
</event>
<event>
 7    1  0.1064839E+005  0.1043930E+01  0.7957747E-01            NaN
         13   -1    0    0    0    0  0.00000000000E+00  0.00000000000E+00  0.74505805969E-08  0.10566000000E+00  0.10566000000E+00 0. -1.
     999900   -1    0    0    0    0 -0.00000000000E+00 -0.00000000000E+00 -0.74505805969E-08  0.93827000000E+00  0.93827000000E+00 0. -1.
     999902    2    1    2    0    0  0.18351823074E-01  0.15303798277E-01  0.79895256796E-03  0.10200211318E+01  0.10197408864E+01 0.  0.
         14    1    1    2    0    0 -0.18351823074E-01 -0.15303798277E-01 -0.79895256796E-03  0.23908868168E-01  0.00000000000E+00 0.  1.
     999901    1    3    3    0    0  0.10397153726E+00  0.67097580250E-02  0.90448040270E-01  0.89075021718E+00  0.88000000000E+00 0.  1.
        -11    1    3    3    0    0 -0.56564393877E-01  0.19577771886E-01 -0.45044334435E-01  0.74913770379E-01  0.51100000000E-03 0.  1.
         11    1    3    3    0    0 -0.29055320307E-01 -0.10983731634E-01 -0.44604753268E-01  0.54357144276E-01  0.51100000000E-03 0. -1.
</event>
<event>
 8    1  0.1064839E+005  0.1043930E+01  0.7957747E-01            NaN
         13   -1    0    0    0    0  0.00000000000E+00  0.00000000000E+00  0.74505805969E-08  0.10566000000E+00  0.10566000000E+00 0. -1.
     999900   -1    0    0    0    0 -0.00000000000E+00 -0.00000000000E+00 -0.74505805969E-08  0.93827000000E+00  0.93827000000E+00 0.  1.
     999902    2    1    2    0    0 -0.36431943773E-02 -0.25549643217E-01 -0.23174855125E-01  0.10092438206E+01  0.10086475888E+01 0.  0.
     999903    2    3    3    0    0  0.39705788556E-01 -0.10738223311E+00  0.37868659183E-01  0.12228157913E+00  0.20279438230E-01 0.  0.
         14    1    1    2    0    0  0.36431943773E-02  0.25549643217E-01  0.23174855125E-01  0.34686179435E-01  0.00000000000E+00 0.  1.
     999901    1    3    3    0    0 -0.43348982933E-01  0.81832589889E-01 -0.61043514308E-01  0.88696224143E+00  0.88000000000E+00 0.  1.
        -11    1    4    4    0    0  0.39433802990E-02 -0.96962956942E-02 -0.23668745364E-02  0.10743910575E-01  0.51100000000E-03 0. -1.
         11    1    4    4    0    0  0.35762408257E-01 -0.97685937411E-01  0.40235533719E-01  0.11153766856E+00  0.51100000000E-03 0.  1.
</event>
<event>
 8    1  0.1064839E+005  0.1043930E+01  0.7957747E-01            NaN
         13   -1    0    0    0    0  0.00000000000E+00  0.00000000000E+00  0.74505805969E-08  0.10566000000E+00  0.10566000000E+00 0.  1.
     999900   -1    0    0    0    0 -0.00000000000E+00 -0.00000000000E+00 -0.74505805969E-08  0.93827000000E+00  0.93827000000E+00 0.  1.
     999902    2    1    2    0    0 -0.81905910134E-02  0.71336305588E-02 -0.21178664473E-01  0.10201285233E+01  0.10198508193E+01 0.  0.
     999903    2    3    3    0    0  0.93581590623E-01 -0.71957190769E-01 -0.51542225052E-01  0.13022129170E+00  0.19121517768E-01 0.  0.
         14    1    1    2    0    0  0.81905910134E-02 -0.71336305588E-02  0.21178664473E-01  0.23801476739E-01  0.00000000000E+00 0.  1.
     999901    1    3    3    0    0 -0.10177218164E+00  0.79090821328E-01  0.30363560579E-01  0.88990723156E+00  0.88000000000E+00 0.  1.
        -11    1    4    4    0    0  0.11270107961E-01 -0.13159281472E-01 -0.14148184004E-01  0.22374410695E-01  0.51100000000E-03 0. -1.
         11    1    4    4    0    0  0.82311482662E-01 -0.58797909297E-01 -0.37394041048E-01  0.10784688101E+00  0.51100000000E-03 0.  1.
</event>
<event>
 8    1  0.1064839E+005  0.1043930E+01  0.7957747E-01            NaN
         13   -1    0    0    0    0  0.00000000000E+00  0.00000000000E+00  0.74505805969E-08  0.10566000000E+00  0.10566000000E+00 0.  1.
     999900   -1    0    0    0    0 -0.00000000000E+00 -0.00000000000E+00 -0.74505805969E-08  0.93827000000E+00  0.93827000000E+00 0.  1.
     999902    2    1    2    0    0 -0.19673539207E-01 -0.12284784137E-01  0.40067439335E-02  0.10203924117E+01  0.10201209025E+01 0.  0.
     999903    2    3    3    0    0 -0.97125447396E-01  0.66304946816E-01 -0.55473600808E-01  0.13150937366E+00  0.19690009402E-01 0.  0.
         14    1    1    2    0    0  0.19673539207E-01  0.12284784137E-01 -0.40067439335E-02  0.23537588304E-01  0.00000000000E+00 0.  1.
     999901    1    3    3    0    0  0.77451908190E-01 -0.78589730953E-01  0.59480344742E-01  0.88888303803E+00  0.88000000000E+00 0. -1.
        -11    1    4    4    0    0 -0.39205171393E-01  0.36630866381E-01 -0.19114957738E-01  0.56960587831E-01  0.51100000000E-03 0. -1.
         11    1    4    4    0    0 -0.57920276004E-01  0.29674080435E-01 -0.36358643070E-01  0.74548785831E-01  0.51100000000E-03 0.  1.
</event>
<event>
 8    1  0.1064839E+005  0.1043930E+01  0.7957747E-01            NaN
         13   -1    0    0    0    0  0.00000000000E+00  0.00000000000E+00  0.74505805969E-08  0.10566000000E+00  0.10566000000E+00 0. -1.
     999900   -1    0    0    0    0 -0.00000000000E+00 -0.00000000000E+00 -0.74505805969E-08  0.93827000000E+00  0.93827000000E+00 0. -1.
     999902    2    1    2    0    0  0.14123011519E-01  0.19408968638E-01  0.15395669480E-01  0.10154134407E+01  0.10150129365E+01 0.  0.
     999903    2    3    3    0    0  0.10332997555E+00 -0.69553698075E-01  0.10116616490E-01  0.12642519164E+00  0.19135892667E-01 0.  0.
         14    1    1    2    0    0 -0.14123011519E-01 -0.19408968638E-01 -0.15395669480E-01  0.28516559342E-01  0.00000000000E+00 0.  1.
     999901    1    3    3    0    0 -0.89206964029E-01  0.88962666713E-01  0.52790529897E-02  0.88898824902E+00  0.88000000000E+00 0. -1.
        -11    1    4    4    0    0  0.24288211977E-01 -0.13548844843E-01 -0.53470019000E-02  0.28325606577E-01  0.51100000000E-03 0. -1.
         11    1    4    4    0    0  0.79041763571E-01 -0.56004853232E-01  0.15463618390E-01  0.98099585058E-01  0.51100000000E-03 0.  1.
</event>
<event>
 8    1  0.1064839E+005  0.1043930E+01  0.7957747E-01            NaN
         13   -1    0    0    0    0  0.00000000000E+00  0.00000000000E+00  0.74505805969E-08  0.10566000000E+00  0.10566000000E+00 0.  1.
     999900   -1    0    0    0    0 -0.00000000000E+00 -0.00000000000E+00 -0.74505805969E-08  0.93827000000E+00  0.93827000000E+00 0. -1.
     999902    2    1    2    0    0  0.13631205763E-01 -0.17433547518E-01  0.87588951000E-02  0.10201296514E+01  0.10198519741E+01 0.  0.
     999903    2    3    3    0    0 -0.82023224221E-01  0.19157464432E-01 -0.94521980231E-01  0.12819040945E+00  0.20088767363E-01 0.  0.
         14    1    1    2    0    0 -0.13631205763E-01  0.17433547518E-01 -0.87588951000E-02  0.23800348590E-01  0.00000000000E+00 0.  1.
     999901    1    3    3    0    0  0.95654429984E-01 -0.36591011951E-01  0.10328087533E+00  0.89193924196E+00  0.88000000000E+00 0.  1.
        -11    1    4    4    0    0 -0.30295859445E-01  0.12863757568E-01 -0.48800224739E-01  0.58864576902E-01  0.51100000000E-03 0. -1.
         11    1    4    4    0    0 -0.51727364777E-01  0.62937068642E-02 -0.45721755492E-01  0.69325832552E-01  0.51100000000E-03 0.  1.
</event>
<event>
 8    1  0.1064839E+005  0.1043930E+01  0.7957747E-01            NaN
         13   -1    0    0    0    0  0.00000000000E+00  0.00000000000E+00  0.74505805969E-08  0.10566000000E+00  0.10566000000E+00 0.  1.
     999900   -1    0    0    0    0 -0.00000000000E+00 -0.00000000000E+00 -0.74505805969E-08  0.93827000000E+00  0.93827000000E+00 0. -1.
     999902    2    1    2    0    0 -0.15093956388E-01 -0.86430079535E-02  0.16380560137E-01  0.10200374937E+01  0.10197576363E+01 0.  0.
     999903    2    3    3    0    0 -0.42990291264E-01  0.58483014433E-02 -0.11973487478E+00  0.12901806903E+00  0.20660448360E-01 0.  0.
         14    1    1    2    0    0  0.15093956388E-01  0.86430079535E-02 -0.16380560137E-01  0.23892506280E-01  0.00000000000E+00 0. -1.
     999901    1    3    3    0    0  0.27896334876E-01 -0.14491309397E-01  0.13611543491E+00  0.89101942469E+00  0.88000000000E+00 0.  1.
        -11    1    4    4    0    0 -0.91329889670E-02 -0.22386825971E-02 -0.52153355642E-01  0.52996762288E-01  0.51100000000E-03 0. -1.
         11    1    4    4    0    0 -0.33857302297E-01  0.80869840403E-02 -0.67581519135E-01  0.76021306745E-01  0.51100000000E-03 0.  1.
</event>
<event>
 8    1  0.1064839E+005  0.1043930E+01  0.7957747E-01            NaN
         13   -1    0    0    0    0  0.00000000000E+00  0.00000000000E+00  0.74505805969E-08  0.10566000000E+00  0.10566000000E+00 0. -1.
     999900   -1    0    0    0    0 -0.00000000000E+00 -0.00000000000E+00 -0.74505805969E-08  0.93827000000E+00  0.93827000000E+00 0.  1.
     999902    2    1    2    0    0 -0.22674936459E-01  0.10107564926E-01 -0.87917365560E-02  0.10175935188E+01  0.10172526526E+01 0.  0.
     999903    2    3    3    0    0  0.70839577904E-01 -0.88008191787E-01  0.50022838064E-01  0.12527585095E+00  0.20689777270E-01 0.  0.
         14    1    1    2    0    0  0.22674936459E-01 -0.10107564926E-01  0.87917365560E-02  0.26336481234E-01  0.00000000000E+00 0. -1.
     999901    1    3    3    0    0 -0.93514514363E-01  0.98115756713E-01 -0.58814574620E-01  0.89231766782E+00  0.88000000000E+00 0.  1.
        -11    1    4    4    0    0  0.20001531111E-01 -0.14380681947E-01  0.16845000938E-01  0.29847620301E-01  0.51100000000E-03 0. -1.
         11    1    4    4    0    0  0.50838046793E-01 -0.73627509841E-01  0.33177837126E-01  0.95428230648E-01  0.51100000000E-03 0.  1.
</event>
<event>
 8    1  0.1064839E+005  0.1043930E+01  0.7957747E-01            NaN
         13   -1    0    0    0    0  0.00000000000E+00  0.00000000000E+00  0.74505805969E-08  0.10566000000E+00  0.10566000000E+00 0. -1.
     999900   -1    0    0    0    0 -0.00000000000E+00 -0.00000000000E+00 -0.74505805969E-08  0.93827000000E+00  0.93827000000E+00 0.  1.
     999902    2    1    2    0    0 -0.21992690786E-01 -0.90309518892E-02 -0.23771608063E-02  0.10200367492E+01  0.10197568741E+01 0.  0.
     999903    2    3    3    0    0  0.13905535545E-02 -0.82921566372E-01  0.99134449839E-01  0.13081731278E+00  0.20189362765E-01 0.  0.
         14    1    1    2    0    0  0.21992690786E-01  0.90309518892E-02  0.23771608063E-02  0.23893250794E-01  0.00000000000E+00 0.  1.
     999901    1    3    3    0    0 -0.23383244340E-01  0.73890614483E-01 -0.10151161064E+00  0.88921943643E+00  0.88000000000E+00 0.  1.
        -11    1    4    4    0    0 -0.18318727701E-03 -0.27791797325E-01  0.48727599183E-01  0.56098641688E-01  0.51100000000E-03 0.  1.
         11    1    4    4    0    0  0.15737408315E-02 -0.55129769047E-01  0.50406850656E-01  0.74718671090E-01  0.51100000000E-03 0. -1.
</event>
<event>
 8    1  0.1064839E+005  0.1043930E+01  0.7957747E-01            NaN
         13   -1    0    0    0    0  0.00000000000E+00  0.00000000000E+00  0.74505805969E-08  0.10566000000E+00  0.10566000000E+00 0. -1.
     999900   -1    0    0    0    0 -0.00000000000E+00 -0.00000000000E+00 -0.74505805969E-08  0.93827000000E+00  0.93827000000E+00 0. -1.
     999902    2    1    2    0    0 -0.15315144143E-01 -0.11557229324E-01  0.15027193032E-01  0.10195591215E+01  0.10192678070E+01 0.  0.
     999903    2    3    3    0    0 -0.78643218906E-01  0.74173340202E-03  0.10489577757E+00  0.13263292836E+00  0.20076441058E-01 0.  0.
         14    1    1    2    0    0  0.15315144143E-01  0.11557229324E-01 -0.15027193032E-01  0.24370878527E-01  0.00000000000E+00 0.  1.
     999901    1    3    3    0    0  0.63328074764E-01 -0.12298962726E-01 -0.89868584538E-01  0.88692619311E+00  0.88000000000E+00 0. -1.
        -11    1    4    4    0    0 -0.59746812145E-02  0.49804832312E-02  0.15487714856E-01  0.17338756048E-01  0.51100000000E-03 0.  1.
         11    1    4    4    0    0 -0.72668537692E-01 -0.42387498292E-02  0.89408062715E-01  0.11529417232E+00  0.51100000000E-03 0. -1.
</event>
<event>
 8    1  0.1064839E+005  0.1043930E+01  0.7957747E-01            NaN
         13   -1    0    0    0    0  0.00000000000E+00  0.00000000000E+00  0.74505805969E-08  0.10566000000E+00  0.10566000000E+00 0. -1.
     999900   -1    0    0    0    0 -0.00000000000E+00 -0.00000000000E+00 -0.74505805969E-08  0.93827000000E+00  0.93827000000E+00 0. -1.
     999902    2    1    2    0    0 -0.88960407040E-02 -0.72358771237E-02  0.21081007622E-01  0.10199319513E+01  0.10196495864E+01 0.  0.
     999903    2    3    3    0    0 -0.42230688390E-01  0.61687181942E-01  0.10722429164E+00  0.13241730232E+00  0.21179088257E-01 0.  0.
         14    1    1    2    0    0  0.88960407040E-02  0.72358771237E-02 -0.21081007622E-01  0.23998048677E-01  0.00000000000E+00 0.  1.
     999901    1    3    3    0    0  0.33334647686E-01 -0.68923059066E-01 -0.86143284017E-01  0.88751464900E+00  0.88000000000E+00 0. -1.
        -11    1    4    4    0    0 -0.21984521433E-01  0.14949659165E-01  0.32665845098E-01  0.42120423179E-01  0.51100000000E-03 0. -1.
         11    1    4    4    0    0 -0.20246166957E-01  0.46737522777E-01  0.74558446540E-01  0.90296879145E-01  0.51100000000E-03 0.  1.
</event>
<event>
 8    1  0.1064839E+005  0.1043930E+01  0.7957747E-01            NaN
         13   -1    0    0    0    0  0.00000000000E+00  0.00000000000E+00  0.74505805969E-08  0.10566000000E+00  0.10566000000E+00 0. -1.
     999900   -1    0    0    0    0 -0.00000000000E+00 -0.00000000000E+00 -0.74505805969E-08  0.93827000000E+00  0.93827000000E+00 0.  1.
     999902    2    1    2    0    0 -0.12606659764E-01  0.39471957085E-02 -0.20265322014E-01  0.10197392683E+01  0.10194522960E+01 0.  0.
     999903    2    3    3    0    0 -0.22599491320E-01 -0.82631431906E-01  0.93150994976E-01  0.12819062890E+00  0.20421530924E-01 0.  0.
         14    1    1    2    0    0  0.12606659764E-01 -0.39471957085E-02  0.20265322014E-01  0.24190731710E-01  0.00000000000E+00 0. -1.
     999901    1    3    3    0    0  0.99928315565E-02  0.86578627615E-01 -0.11341631699E+00  0.89154863939E+00  0.88000000000E+00 0.  1.
        -11    1    4    4    0    0 -0.28869545346E-02 -0.46542612901E-02  0.15275937888E-01  0.16236134207E-01  0.51100000000E-03 0. -1.
         11    1    4    4    0    0 -0.19712536785E-01 -0.77977170616E-01  0.77875057088E-01  0.11195449469E+00  0.51100000000E-03 0.  1.
</event>
<event>
 8    1  0.1064839E+005  0.1043930E+01  0.7957747E-01            NaN
         13   -1    0    0    0    0  0.00000000000E+00  0.00000000000E+00  0.74505805969E-08  0.10566000000E+00  0.10566000000E+00 0.  1.
     999900   -1    0    0    0    0 -0.00000000000E+00 -0.00000000000E+00 -0.74505805969E-08  0.93827000000E+00  0.93827000000E+00 0. -1.
     999902    2    1    2    0    0  0.21513703014E-01 -0.60366424074E-02 -0.19797827974E-01  0.10140764498E+01  0.10136369229E+01 0.  0.
     999903    2    3    3    0    0 -0.84902203878E-01 -0.68557071220E-01  0.51964756813E-01  0.12257041062E+00  0.20364512564E-01 0.  0.
         14    1    1    2    0    0 -0.21513703014E-01  0.60366424074E-02  0.19797827974E-01  0.29853550231E-01  0.00000000000E+00 0.  1.
     999901    1    3    3    0    0  0.10641590689E+00  0.62520428812E-01 -0.71762584787E-01  0.89150603915E+00  0.88000000000E+00 0. -1.
        -11    1    4    4    0    0 -0.66628083444E-01 -0.63460886067E-01  0.42290882411E-01  0.10126877811E+00  0.51100000000E-03 0. -1.
         11    1    4    4    0    0 -0.18274120434E-01 -0.50961851527E-02  0.96738744020E-02  0.21301632512E-01  0.51100000000E-03 0.  1.
</event>
<event>
 8    1  0.1064839E+005  0.1043930E+01  0.7957747E-01            NaN
         13   -1    0    0    0    0  0.00000000000E+00  0.00000000000E+00  0.74505805969E-08  0.10566000000E+00  0.10566000000E+00 0.  1.
     999900   -1    0    0    0    0 -0.00000000000E+00 -0.00000000000E+00 -0.74505805969E-08  0.93827000000E+00  0.93827000000E+00 0.  1.
     999902    2    1    2    0    0 -0.15409893452E-01  0.17821020303E-01  0.21313759561E-02  0.10202742112E+01  0.10199999361E+01 0.  0.
     999903    2    3    3    0    0 -0.10297525131E+00  0.50684594645E-01 -0.64460181213E-01  0.13281596321E+00  0.17667331606E-01 0.  0.
         14    1    1    2    0    0  0.15409893452E-01 -0.17821020303E-01 -0.21313759561E-02  0.23655788812E-01  0.00000000000E+00 0. -1.
     999901    1    3    3    0    0  0.87565357853E-01 -0.32863574342E-01  0.66591557169E-01  0.88745824798E+00  0.88000000000E+00 0. -1.
        -11    1    4    4    0    0 -0.12721082263E-01  0.11164759994E-01 -0.14753971917E-01  0.22459265527E-01  0.51100000000E-03 0.  1.
         11    1    4    4    0    0 -0.90254169042E-01  0.39519834651E-01 -0.49706209295E-01  0.11035669768E+00  0.51100000000E-03 0. -1.
</event>
<event>
 8    1  0.1064839E+005  0.1043930E+01  0.7957747E-01            NaN
         13   -1    0    0    0    0  0.00000000000E+00  0.00000000000E+00  0.74505805969E-08  0.10566000000E+00  0.10566000000E+00 0. -1.
     999900   -1    0    0    0    0 -0.00000000000E+00 -0.00000000000E+00 -0.74505805969E-08  0.93827000000E+00  0.93827000000E+00 0. -1.
     999902    2    1    2    0    0  0.23489003399E-03  0.29526538350E-02 -0.23520292269E-01  0.10202239357E+01  0.10199484798E+01 0.  0.
     999903    2    3    3    0    0 -0.64209186911E-01  0.63341428639E-01 -0.95599027304E-01  0.13287102547E+00  0.19508437227E-01 0.  0.
         14    1    1    2    0    0 -0.23489003399E-03 -0.29526538350E-02  0.23520292269E-01  0.23706064338E-01  0.00000000000E+00 0. -1.
     999901    1    3    3    0    0  0.64444076945E-01 -0.60388774804E-01  0.72078735035E-01  0.88735291019E+00  0.88000000000E+00 0.  1.
        -11    1    4    4    0    0 -0.40792103421E-01  0.52438203409E-01 -0.69481278943E-01  0.96133605585E-01  0.51100000000E-03 0.  1.
         11    1    4    4    0    0 -0.23417083489E-01  0.10903225230E-01 -0.26117748361E-01  0.36737419888E-01  0.51100000000E-03 0. -1.
</event>
<event>
 8    1  0.1064839E+005  0.1043930E+01  0.7957747E-01            NaN
         13   -1    0    0    0    0  0.00000000000E+00  0.00000000000E+00  0.74505805969E-08  0.10566000000E+00  0.10566000000E+00 0.  1.
     999900   -1    0    0    0    0 -0.00000000000E+00 -0.00000000000E+00 -0.74505805969E-08  0.93827000000E+00  0.93827000000E+00 0.  1.
     999902    2    1    2    0    0  0.51068861324E-02 -0.18247272287E-01  0.13544465299E-01  0.10206384614E+01  0.10203726638E+01 0.  0.
     999903    2    3    3    0    0 -0.13102039293E-01  0.12394120976E+00  0.30663601752E-01  0.12887493092E+00  0.11636341196E-01 0.  0.
         14    1    1    2    0    0 -0.51068861324E-02  0.18247272287E-01 -0.13544465299E-01  0.23291538638E-01  0.00000000000E+00 0.  1.
     999901    1    3    3    0    0  0.18208925425E-01 -0.14218848205E+00 -0.17119136454E-01  0.89176353044E+00  0.88000000000E+00 0.  1.
        -11    1    4    4    0    0 -0.26832616904E-02  0.60398659197E-01  0.10246269187E-01  0.61322467981E-01  0.51100000000E-03 0. -1.
         11    1    4    4    0    0 -0.10418777603E-01  0.63542550565E-01  0.20417332565E-01  0.67552462939E-01  0.51100000000E-03 0.  1.
</event>
<event>
 8    1  0.1064839E+005  0.1043930E+01  0.7957747E-01            NaN
         13   -1    0    0    0    0  0.00000000000E+00  0.00000000000E+00  0.74505805969E-08  0.10566000000E+00  0.10566000000E+00 0. -1.
     999900   -1    0    0    0    0 -0.00000000000E+00 -0.00000000000E+00 -0.74505805969E-08  0.93827000000E+00  0.93827000000E+00 0.  1.
     999902    2    1    2    0    0  0.13158346692E-01  0.18199669773E-01 -0.75270779459E-02  0.10202439921E+01  0.10199690076E+01 0.  0.
     999903    2    3    3    0    0 -0.11176007880E+00 -0.58992923241E-01 -0.20179082183E-02  0.12805922403E+00  0.20606132567E-01 0.  0.
         14    1    1    2    0    0 -0.13158346692E-01 -0.18199669773E-01  0.75270779459E-02  0.23686007893E-01  0.00000000000E+00 0. -1.
     999901    1    3    3    0    0  0.12491842549E+00  0.77192593014E-01 -0.55091697275E-02  0.89218476808E+00  0.88000000000E+00 0. -1.
        -11    1    4    4    0    0 -0.65218892567E-01 -0.24782629741E-01 -0.67794054269E-02  0.70099244957E-01  0.51100000000E-03 0.  1.
         11    1    4    4    0    0 -0.46541186230E-01 -0.34210293501E-01  0.47614972086E-02  0.57959979070E-01  0.51100000000E-03 0. -1.
</event>
<event>
 8    1  0.1064839E+005  0.1043930E+01  0.7957747E-01            NaN
         13   -1    0    0    0    0  0.00000000000E+00  0.00000000000E+00  0.74505805969E-08  0.10566000000E+00  0.10566000000E+00 0. -1.
     999900   -1    0    0    0    0 -0.00000000000E+00 -0.00000000000E+00 -0.74505805969E-08  0.93827000000E+00  0.93827000000E+00 0. -1.
     999902    2    1    2    0    0 -0.15026796704E-01 -0.45815150064E-02  0.18498962059E-01  0.10196605440E+01  0.10193716783E+01 0.  0.
     999903    2    3    3    0    0  0.10388120686E+00 -0.42414337931E-01 -0.57212413748E-01  0.12763888042E+00  0.20691599965E-01 0.  0.
         14    1    1    2    0    0  0.15026796704E-01  0.45815150064E-02 -0.18498962059E-01  0.24269456034E-01  0.00000000000E+00 0.  1.
     999901    1    3    3    0    0 -0.11890800356E+00  0.37832822925E-01  0.75711375807E-01  0.89202166354E+00  0.88000000000E+00 0.  1.
        -11    1    4    4    0    0  0.42038329091E-01 -0.23356231952E-01 -0.33952950711E-01  0.58871034191E-01  0.51100000000E-03 0.  1.
         11    1    4    4    0    0  0.61842877765E-01 -0.19058105979E-01 -0.23259463037E-01  0.68767846233E-01  0.51100000000E-03 0. -1.
</event>
<event>
 8    1  0.1064839E+005  0.1043930E+01  0.7957747E-01            NaN
         13   -1    0    0    0    0  0.00000000000E+00  0.00000000000E+00  0.74505805969E-08  0.10566000000E+00  0.10566000000E+00 0.  1.
     999900   -1    0    0    0    0 -0.00000000000E+00 -0.00000000000E+00 -0.74505805969E-08  0.93827000000E+00  0.93827000000E+00 0.  1.
     999902    2    1    2    0    0  0.16516425237E-01 -0.16773571564E-01 -0.17312971770E-02  0.10203261360E+01  0.10200530777E+01 0.  0.
     999903    2    3    3    0    0  0.12984329905E+00  0.49053904293E-02  0.16361235914E-01  0.13260979760E+00  0.20840422596E-01 0.  0.
         14    1    1    2    0    0 -0.16516425237E-01  0.16773571564E-01  0.17312971770E-02  0.23603863996E-01  0.00000000000E+00 0.  1.
     999901    1    3    3    0    0 -0.11332687382E+00 -0.21678961993E-01 -0.18092533091E-01  0.88771633841E+00  0.88000000000E+00 0.  1.
        -11    1    4    4    0    0  0.41036431622E-01  0.11195069114E-01  0.40422150215E-02  0.42730772471E-01  0.51100000000E-03 0.  1.
         11    1    4    4    0    0  0.88806867431E-01 -0.62896786843E-02  0.12319020892E-01  0.89879025126E-01  0.51100000000E-03 0. -1.
</event>
<event>
 8    1  0.1064839E+005  0.1043930E+01  0.7957747E-01            NaN
         13   -1    0    0    0    0  0.00000000000E+00  0.00000000000E+00  0.74505805969E-08  0.10566000000E+00  0.10566000000E+00 0. -1.
     999900   -1    0    0    0    0 -0.00000000000E+00 -0.00000000000E+00 -0.74505805969E-08  0.93827000000E+00  0.93827000000E+00 0. -1.
     999902    2    1    2    0    0  0.68043166521E-02 -0.19401771937E-01 -0.14510802649E-01  0.10187647288E+01  0.10184538683E+01 0.  0.
     999903    2    3    3    0    0  0.10145467630E+00 -0.40317285037E-01  0.67161934373E-01  0.12968285114E+00  0.19707400492E-01 0.  0.
         14    1    1    2    0    0 -0.68043166521E-02  0.19401771937E-01  0.14510802649E-01  0.25165271167E-01  0.00000000000E+00 0. -1.
     999901    1    3    3    0    0 -0.94650359652E-01  0.20915513099E-01 -0.81672737022E-01  0.88908187769E+00  0.88000000000E+00 0. -1.
        -11    1    4    4    0    0  0.79488128840E-01 -0.39857751379E-01  0.52513712683E-01  0.10327126470E+00  0.51100000000E-03 0.  1.
         11    1    4    4    0    0  0.21966547464E-01 -0.45953365744E-03  0.14648221691E-01  0.26411586441E-01  0.51100000000E-03 0. -1.
</event>
<event>
 8    1  0.1064839E+005  0.1043930E+01  0.7957747E-01            NaN
         13   -1    0    0    0    0  0.00000000000E+00  0.00000000000E+00  0.74505805969E-08  0.10566000000E+00  0.10566000000E+00 0. -1.
     999900   -1    0    0    0    0 -0.00000000000E+00 -0.00000000000E+00 -0.74505805969E-08  0.93827000000E+00  0.93827000000E+00 0. -1.
     999902    2    1    2    0    0  0.12144094257E-01 -0.24934647033E-01 -0.91830958241E-02  0.10147145093E+01  0.10142938383E+01 0.  0.
     999903    2    3    3    0    0  0.84195226217E-01  0.88304180274E-01 -0.23327726346E-01  0.12442552914E+00  0.71459857704E-02 0.  0.
         14    1    1    2    0    0 -0.12144094257E-01  0.24934647033E-01  0.91830958241E-02  0.29215490701E-01  0.00000000000E+00 0. -1.
     999901    1    3    3    0    0 -0.72051131960E-01 -0.11323882731E+00  0.14144630522E-01  0.89028898016E+00  0.88000000000E+00 0. -1.
        -11    1    4    4    0    0  0.57546498216E-01  0.62167697337E-01 -0.13122010487E-01  0.85725552371E-01  0.51100000000E-03 0.  1.
         11    1    4    4    0    0  0.26648728002E-01  0.26136482938E-01 -0.10205715859E-01  0.38699976765E-01  0.51100000000E-03 0. -1.
</event>
<event>
 8    1  0.1064839E+005  0.1043930E+01  0.7957747E-01            NaN
         13   -1    0    0    0    0  0.00000000000E+00  0.00000000000E+00  0.74505805969E-08  0.10566000000E+00  0.10566000000E+00 0.  1.
     999900   -1    0    0    0    0 -0.00000000000E+00 -0.00000000000E+00 -0.74505805969E-08  0.93827000000E+00  0.93827000000E+00 0.  1.
     999902    2    1    2    0    0 -0.14592452295E-01  0.17626425734E-02  0.17173455463E-01  0.10213252628E+01  0.10210750796E+01 0.  0.
     999903    2    3    3    0    0  0.11577451904E+00  0.41964255938E-01  0.38621300759E-01  0.13055496297E+00  0.19704198722E-01 0.  0.
         14    1    1    2    0    0  0.14592452295E-01 -0.17626425734E-02 -0.17173455463E-01  0.22604737233E-01  0.00000000000E+00 0. -1.
     999901    1    3    3    0    0 -0.13036697134E+00 -0.40201613365E-01 -0.21447845296E-01  0.89077029980E+00  0.88000000000E+00 0. -1.
        -11    1    4    4    0    0  0.48932605683E-01  0.95070405310E-02  0.21567895550E-01  0.54315918091E-01  0.51100000000E-03 0.  1.
         11    1    4    4    0    0  0.66841913361E-01  0.32457215407E-01  0.17053405208E-01  0.76239044879E-01  0.51100000000E-03 0. -1.
</event>
<event>
 8    1  0.1064839E+005  0.1043930E+01  0.7957747E-01            NaN
         13   -1    0    0    0    0  0.00000000000E+00  0.00000000000E+00  0.74505805969E-08  0.10566000000E+00  0.10566000000E+00 0.  1.
     999900   -1    0    0    0    0 -0.00000000000E+00 -0.00000000000E+00 -0.74505805969E-08  0.93827000000E+00  0.93827000000E+00 0. -1.
     999902    2    1    2    0    0 -0.14259127649E-01  0.13432312148E-01  0.15016088193E-01  0.10192473617E+01  0.10189484539E+01 0.  0.
     999903    2    3    3    0    0  0.12356994106E+00 -0.25742721176E-01 -0.18219389211E-02  0.12749904819E+00  0.17901670345E-01 0.  0.
         14    1    1    2    0    0  0.14259127649E-01 -0.13432312148E-01 -0.15016088193E-01  0.24682638343E-01  0.00000000000E+00 0. -1.
     999901    1    3    3    0    0 -0.13782906871E+00  0.39175033324E-01  0.16838027114E-01  0.89174831347E+00  0.88000000000E+00 0. -1.
        -11    1    4    4    0    0  0.37467033623E-01  0.17468292891E-03  0.17024152750E-02  0.37509578262E-01  0.51100000000E-03 0. -1.
         11    1    4    4    0    0  0.86102907434E-01 -0.25917404105E-01 -0.35243541961E-02  0.89989469926E-01  0.51100000000E-03 0.  1.
</event>
<event>
 8    1  0.1064839E+005  0.1043930E+01  0.7957747E-01            NaN
         13   -1    0    0    0    0  0.00000000000E+00  0.00000000000E+00  0.74505805969E-08  0.10566000000E+00  0.10566000000E+00 0. -1.
     999900   -1    0    0    0    0 -0.00000000000E+00 -0.00000000000E+00 -0.74505805969E-08  0.93827000000E+00  0.93827000000E+00 0.  1.
     999902    2    1    2    0    0 -0.16029407403E-01  0.42678947956E-02  0.15267916462E-01  0.10213852423E+01  0.10211363998E+01 0.  0.
     999903    2    3    3    0    0  0.10587666451E+00  0.53605872372E-01 -0.47381553971E-01  0.12940974791E+00  0.20455159669E-01 0.  0.
         14    1    1    2    0    0  0.16029407403E-01 -0.42678947956E-02 -0.15267916462E-01  0.22544757722E-01  0.00000000000E+00 0.  1.
     999901    1    3    3    0    0 -0.12190607192E+00 -0.49337977577E-01  0.62649470433E-01  0.89197549436E+00  0.88000000000E+00 0. -1.
        -11    1    4    4    0    0  0.81783817181E-01  0.50157733527E-01 -0.40259886896E-01  0.10404571399E+00  0.51100000000E-03 0.  1.
         11    1    4    4    0    0  0.24092847332E-01  0.34481388447E-02 -0.71216670748E-02  0.25364033926E-01  0.51100000000E-03 0. -1.
</event>
<event>
 8    1  0.1064839E+005  0.1043930E+01  0.7957747E-01            NaN
         13   -1    0    0    0    0  0.00000000000E+00  0.00000000000E+00  0.74505805969E-08  0.10566000000E+00  0.10566000000E+00 0. -1.
     999900   -1    0    0    0    0 -0.00000000000E+00 -0.00000000000E+00 -0.74505805969E-08  0.93827000000E+00  0.93827000000E+00 0. -1.
     999902    2    1    2    0    0 -0.21947293756E-01  0.48008180580E-02 -0.76771396269E-02  0.10201882640E+01  0.10199119687E+01 0.  0.
     999903    2    3    3    0    0  0.11237416632E+00 -0.28103698075E-01 -0.51481908239E-01  0.12831169202E+00  0.19893022202E-01 0.  0.
         14    1    1    2    0    0  0.21947293756E-01 -0.48008180580E-02  0.76771396269E-02  0.23741736038E-01  0.00000000000E+00 0. -1.
     999901    1    3    3    0    0 -0.13432146008E+00  0.32904516133E-01  0.43804768612E-01  0.89187657194E+00  0.88000000000E+00 0. -1.
        -11    1    4    4    0    0  0.61208725456E-02  0.15061253224E-02  0.55843347451E-03  0.63487371304E-02  0.51100000000E-03 0. -1.
         11    1    4    4    0    0  0.10625329378E+00 -0.29609823397E-01 -0.52040341714E-01  0.12196295489E+00  0.51100000000E-03 0.  1.
</event>
<event>
 8    1  0.1064839E+005  0.1043930E+01  0.7957747E-01            NaN
         13   -1    0    0    0    0  0.00000000000E+00  0.00000000000E+00  0.74505805969E-08  0.10566000000E+00  0.10566000000E+00 0. -1.
     999900   -1    0    0    0    0 -0.00000000000E+00 -0.00000000000E+00 -0.74505805969E-08  0.93827000000E+00  0.93827000000E+00 0.  1.
     999902    2    1    2    0    0  0.13127692098E-01  0.69589394262E-02  0.18304421433E-01  0.10203542713E+01  0.10200818713E+01 0.  0.
     999903    2    3    3    0    0 -0.52767933535E-01  0.36482580921E-01  0.11394315894E+00  0.13223229380E+00  0.19669838193E-01 0.  0.
         14    1    1    2    0    0 -0.13127692098E-01 -0.69589394262E-02 -0.18304421433E-01  0.23575728658E-01  0.00000000000E+00 0.  1.
     999901    1    3    3    0    0  0.65895625633E-01 -0.29523641494E-01 -0.95638737504E-01  0.88812197754E+00  0.88000000000E+00 0.  1.
        -11    1    4    4    0    0 -0.38843592827E-01  0.26140088054E-01  0.98246092784E-01  0.10883328891E+00  0.51100000000E-03 0. -1.
         11    1    4    4    0    0 -0.13924340708E-01  0.10342492867E-01  0.15697066153E-01  0.23399004886E-01  0.51100000000E-03 0.  1.
</event>
<event>
 8    1  0.1064839E+005  0.1043930E+01  0.7957747E-01            NaN
         13   -1    0    0    0    0  0.00000000000E+00  0.00000000000E+00  0.74505805969E-08  0.10566000000E+00  0.10566000000E+00 0.  1.
     999900   -1    0    0    0    0 -0.00000000000E+00 -0.00000000000E+00 -0.74505805969E-08  0.93827000000E+00  0.93827000000E+00 0. -1.
     999902    2    1    2    0    0 -0.95113114758E-02 -0.47272861542E-03 -0.21693931052E-01  0.10202379093E+01  0.10199627819E+01 0.  0.
     999903    2    3    3    0    0  0.13912798877E-01  0.44957453243E-01  0.11724783566E+00  0.12787172608E+00  0.19732835354E-01 0.  0.
         14    1    1    2    0    0  0.95113114758E-02  0.47272861542E-03  0.21693931052E-01  0.23692090723E-01  0.00000000000E+00 0.  1.
     999901    1    3    3    0    0 -0.23424110352E-01 -0.45430181859E-01 -0.13894176671E+00  0.89236618319E+00  0.88000000000E+00 0. -1.
        -11    1    4    4    0    0 -0.40472827773E-03  0.18107876506E-01  0.26064646417E-01  0.31744068901E-01  0.51100000000E-03 0.  1.
         11    1    4    4    0    0  0.14317527154E-01  0.26849576737E-01  0.91183189240E-01  0.96127657184E-01  0.51100000000E-03 0. -1.
</event>
<event>
 8    1  0.1064839E+005  0.1043930E+01  0.7957747E-01            NaN
         13   -1    0    0    0    0  0.00000000000E+00  0.00000000000E+00  0.74505805969E-08  0.10566000000E+00  0.10566000000E+00 0. -1.
     999900   -1    0    0    0    0 -0.00000000000E+00 -0.00000000000E+00 -0.74505805969E-08  0.93827000000E+00  0.93827000000E+00 0.  1.
     999902    2    1    2    0    0 -0.21864403463E-01 -0.86316573617E-02 -0.21891945751E-02  0.10203217341E+01  0.10200485728E+01 0.  0.
     999903    2    3    3    0    0 -0.13171033781E+00 -0.68318228936E-02 -0.29270148421E-02  0.13349034475E+00  0.20416117032E-01 0.  0.
         14    1    1    2    0    0  0.21864403463E-01  0.86316573617E-02  0.21891945751E-02  0.23608265936E-01  0.00000000000E+00 0. -1.
     999901    1    3    3    0    0  0.10984593435E+00 -0.17998344681E-02  0.73782026698E-03  0.88683138932E+00  0.88000000000E+00 0. -1.
        -11    1    4    4    0    0 -0.85114577808E-01  0.45783739640E-02  0.20016183609E-02  0.85262655721E-01  0.51100000000E-03 0.  1.
         11    1    4    4    0    0 -0.46595760004E-01 -0.11410196858E-01 -0.49286332030E-02  0.48227689027E-01  0.51100000000E-03 0. -1.
</event>
<event>
 8    1  0.1064839E+005  0.1043930E+01  0.7957747E-01            NaN
         13   -1    0    0    0    0  0.00000000000E+00  0.00000000000E+00  0.74505805969E-08  0.10566000000E+00  0.10566000000E+00 0. -1.
     999900   -1    0    0    0    0 -0.00000000000E+00 -0.00000000000E+00 -0.74505805969E-08  0.93827000000E+00  0.93827000000E+00 0.  1.
     999902    2    1    2    0    0  0.11636898488E-01  0.11827171675E-01 -0.17447558948E-01  0.10198526931E+01  0.10195684375E+01 0.  0.
     999903    2    3    3    0    0 -0.89602240450E-01 -0.31958644641E-01 -0.86608156560E-01  0.13027428211E+00  0.20506080464E-01 0.  0.
         14    1    1    2    0    0 -0.11636898488E-01 -0.11827171675E-01  0.17447558948E-01  0.24077306940E-01  0.00000000000E+00 0. -1.
     999901    1    3    3    0    0  0.10123913894E+00  0.43785816316E-01  0.69160597612E-01  0.88957841095E+00  0.88000000000E+00 0. -1.
        -11    1    4    4    0    0 -0.56591454129E-01 -0.24991436034E-01 -0.43967674468E-01  0.75898498500E-01  0.51100000000E-03 0.  1.
         11    1    4    4    0    0 -0.33010786321E-01 -0.69672086076E-02 -0.42640482092E-01  0.54375783611E-01  0.51100000000E-03 0. -1.
</event>
<event>
 8    1  0.1064839E+005  0.1043930E+01  0.7957747E-01            NaN
         13   -1    0    0    0    0  0.00000000000E+00  0.00000000000E+00  0.74505805969E-08  0.10566000000E+00  0.10566000000E+00 0. -1.
     999900   -1    0    0    0    0 -0.00000000000E+00 -0.00000000000E+00 -0.74505805969E-08  0.93827000000E+00  0.93827000000E+00 0. -1.
     999902    2    1    2    0    0  0.20900138198E-01 -0.92012296726E-02 -0.64677527103E-02  0.10201958426E+01  0.10199197257E+01 0.  0.
     999903    2    3    3    0    0 -0.56783895824E-02 -0.12038768623E+00 -0.49450032274E-01  0.13176108265E+00  0.19754445195E-01 0.  0.
         14    1    1    2    0    0 -0.20900138198E-01  0.92012296726E-02  0.64677527103E-02  0.23734157438E-01  0.00000000000E+00 0. -1.
     999901    1    3    3    0    0  0.26578527781E-01  0.11118645656E+00  0.42982279564E-01  0.88843475991E+00  0.88000000000E+00 0.  1.
        -11    1    4    4    0    0  0.53897880159E-02 -0.66793722013E-01 -0.32436080036E-01  0.74450060606E-01  0.51100000000E-03 0. -1.
         11    1    4    4    0    0 -0.11068177598E-01 -0.53593964219E-01 -0.17013952239E-01  0.57311022045E-01  0.51100000000E-03 0.  1.
</event>
<event>
 8    1  0.1064839E+005  0.1043930E+01  0.7957747E-01            NaN
         13   -1    0    0    0    0  0.00000000000E+00  0.00000000000E+00  0.74505805969E-08  0.10566000000E+00  0.10566000000E+00 0.  1.
     999900   -1    0    0    0    0 -0.00000000000E+00 -0.00000000000E+00 -0.74505805969E-08  0.93827000000E+00  0.93827000000E+00 0.  1.
     999902    2    1    2    0    0  0.37291831611E-02  0.22075775919E-01 -0.15475410392E-02  0.10214880399E+01  0.10212414867E+01 0.  0.
     999903    2    3    3    0    0  0.99005059804E-01  0.61513247666E-01  0.60759882409E-01  0.13327915577E+00  0.22038342652E-01 0.  0.
         14    1    1    2    0    0 -0.37291831611E-02 -0.22075775919E-01  0.15475410392E-02  0.22441960091E-01  0.00000000000E+00 0.  1.
     999901    1    3    3    0    0 -0.95275876643E-01 -0.39437471747E-01 -0.62307423448E-01  0.88820888414E+00  0.88000000000E+00 0. -1.
        -11    1    4    4    0    0  0.27850722890E-01  0.89765810607E-02  0.82062709701E-02  0.30394831424E-01  0.51100000000E-03 0. -1.
         11    1    4    4    0    0  0.71154336914E-01  0.52536666605E-01  0.52553611439E-01  0.10288432434E+00  0.51100000000E-03 0.  1.
</event>
<event>
 8    1  0.1064839E+005  0.1043930E+01  0.7957747E-01            NaN
         13   -1    0    0    0    0  0.00000000000E+00  0.00000000000E+00  0.74505805969E-08  0.10566000000E+00  0.10566000000E+00 0. -1.
     999900   -1    0    0    0    0 -0.00000000000E+00 -0.00000000000E+00 -0.74505805969E-08  0.93827000000E+00  0.93827000000E+00 0. -1.
     999902    2    1    2    0    0  0.19509524943E-01 -0.56902321297E-02 -0.11594044769E-01  0.10205329451E+01  0.10202647057E+01 0.  0.
     999903    2    3    3    0    0  0.31790660583E-02  0.12624749276E+00  0.21289348095E-01  0.12994012865E+00  0.21969633642E-01 0.  0.
         14    1    1    2    0    0 -0.19509524943E-01  0.56902321297E-02  0.11594044769E-01  0.23397054928E-01  0.00000000000E+00 0. -1.
     999901    1    3    3    0    0  0.16330458885E-01 -0.13193772489E+00 -0.32883392864E-01  0.89059281642E+00  0.88000000000E+00 0.  1.
        -11    1    4    4    0    0 -0.93129944397E-02  0.44271977958E-01  0.85275794602E-02  0.46040423871E-01  0.51100000000E-03 0.  1.
         11    1    4    4    0    0  0.12492060498E-01  0.81975514801E-01  0.12761768635E-01  0.83899704779E-01  0.51100000000E-03 0. -1.
</event>
<event>
 8    1  0.1064839E+005  0.1043930E+01  0.7957747E-01            NaN
         13   -1    0    0    0    0  0.00000000000E+00  0.00000000000E+00  0.74505805969E-08  0.10566000000E+00  0.10566000000E+00 0. -1.
     999900   -1    0    0    0    0 -0.00000000000E+00 -0.00000000000E+00 -0.74505805969E-08  0.93827000000E+00  0.93827000000E+00 0. -1.
     999902    2    1    2    0    0  0.53046156132E-02  0.69106215335E-02 -0.22177798795E-01  0.10201024866E+01  0.10198241675E+01 0.  0.
     999903    2    3    3    0    0  0.61899573617E-01  0.10848838066E+00  0.32840589004E-01  0.13074988304E+00  0.20389744363E-01 0.  0.
         14    1    1    2    0    0 -0.53046156132E-02 -0.69106215335E-02  0.22177798795E-01  0.23827513428E-01  0.00000000000E+00 0. -1.
     999901    1    3    3    0    0 -0.56594958004E-01 -0.10157775913E+00 -0.55018387799E-01  0.88935260354E+00  0.88000000000E+00 0. -1.
        -11    1    4    4    0    0  0.29510287676E-01  0.71231662554E-01  0.22342639484E-01  0.80276157663E-01  0.51100000000E-03 0. -1.
         11    1    4    4    0    0  0.32389285942E-01  0.37256718106E-01  0.10497949520E-01  0.50473725373E-01  0.51100000000E-03 0.  1.
</event>
<event>
 8    1  0.1064839E+005  0.1043930E+01  0.7957747E-01            NaN
         13   -1    0    0    0    0  0.00000000000E+00  0.00000000000E+00  0.74505805969E-08  0.10566000000E+00  0.10566000000E+00 0. -1.
     999900   -1    0    0    0    0 -0.00000000000E+00 -0.00000000000E+00 -0.74505805969E-08  0.93827000000E+00  0.93827000000E+00 0. -1.
     999902    2    1    2    0    0 -0.30367760115E-02  0.13077004442E-01  0.35804115315E-02  0.10300357782E+01  0.10299420639E+01 0.  0.
     999903    2    3    3    0    0  0.95037187557E-01 -0.19322638723E-01 -0.96653200419E-01  0.13834355762E+00  0.19790588635E-01 0.  0.
         14    1    1    2    0    0  0.30367760115E-02 -0.13077004442E-01 -0.35804115315E-02  0.13894221837E-01  0.00000000000E+00 0. -1.
     999901    1    3    3    0    0 -0.98073963568E-01  0.32399643165E-01  0.10023361195E+00  0.89169222054E+00  0.88000000000E+00 0.  1.
        -11    1    4    4    0    0  0.46040626660E-02  0.16742616148E-02 -0.96601554481E-03  0.50194473819E-02  0.51100000000E-03 0.  1.
         11    1    4    4    0    0  0.90433124891E-01 -0.20996900337E-01 -0.95687184874E-01  0.13332411024E+00  0.51100000000E-03 0. -1.
</event>
<event>
 8    1  0.1064839E+005  0.1043930E+01  0.7957747E-01            NaN
         13   -1    0    0    0    0  0.00000000000E+00  0.00000000000E+00  0.74505805969E-08  0.10566000000E+00  0.10566000000E+00 0.  1.
     999900   -1    0    0    0    0 -0.00000000000E+00 -0.00000000000E+00 -0.74505805969E-08  0.93827000000E+00  0.93827000000E+00 0. -1.
     999902    2    1    2    0    0 -0.66178096282E-02  0.21282006710E-01 -0.81030144710E-02  0.10202154885E+01  0.10199398339E+01 0.  0.
     999903    2    3    3    0    0  0.34754423787E-01 -0.26835696073E-01  0.11922478098E+00  0.12879003308E+00  0.21078416979E-01 0.  0.
         14    1    1    2    0    0  0.66178096282E-02 -0.21282006710E-01  0.81030144710E-02  0.23714511537E-01  0.00000000000E+00 0.  1.
     999901    1    3    3    0    0 -0.41372233415E-01  0.48117702783E-01 -0.12732779545E+00  0.89142545539E+00  0.88000000000E+00 0. -1.
        -11    1    4    4    0    0  0.16022114277E-01 -0.23617057077E-01  0.57363488482E-01  0.64072649881E-01  0.51100000000E-03 0.  1.
         11    1    4    4    0    0  0.18732309510E-01 -0.32186389963E-02  0.61861292502E-01  0.64717383194E-01  0.51100000000E-03 0. -1.
</event>
<event>
 8    1  0.1064839E+005  0.1043930E+01  0.7957747E-01            NaN
         13   -1    0    0    0    0  0.00000000000E+00  0.00000000000E+00  0.74505805969E-08  0.10566000000E+00  0.10566000000E+00 0.  1.
     999900   -1    0    0    0    0 -0.00000000000E+00 -0.00000000000E+00 -0.74505805969E-08  0.93827000000E+00  0.93827000000E+00 0. -1.
     999902    2    1    2    0    0  0.67487288210E-02  0.12171337723E-01  0.18960851155E-01  0.10204097815E+01  0.10201386776E+01 0.  0.
     999903    2    3    3    0    0 -0.11292512228E+00 -0.11190350438E-01 -0.57546592366E-01  0.12871421234E+00  0.19453302576E-01 0.  0.
         14    1    1    2    0    0 -0.67487288210E-02 -0.12171337723E-01 -0.18960851155E-01  0.23520218519E-01  0.00000000000E+00 0. -1.
     999901    1    3    3    0    0  0.11967385110E+00  0.23361688161E-01  0.76507443521E-01  0.89169556914E+00  0.88000000000E+00 0.  1.
        -11    1    4    4    0    0 -0.72859641274E-01  0.78430976169E-04 -0.29968856314E-01  0.78784052624E-01  0.51100000000E-03 0.  1.
         11    1    4    4    0    0 -0.40065481004E-01 -0.11268781414E-01 -0.27577736052E-01  0.49930159717E-01  0.51100000000E-03 0. -1.
</event>
<event>
 8    1  0.1064839E+005  0.1043930E+01  0.7957747E-01            NaN
         13   -1    0    0    0    0  0.00000000000E+00  0.00000000000E+00  0.74505805969E-08  0.10566000000E+00  0.10566000000E+00 0. -1.
     999900   -1    0    0    0    0 -0.00000000000E+00 -0.00000000000E+00 -0.74505805969E-08  0.93827000000E+00  0.93827000000E+00 0. -1.
     999902    2    1    2    0    0  0.46951591946E-03  0.23495942636E-01 -0.45910039317E-03  0.10204248827E+01  0.10201541309E+01 0.  0.
     999903    2    3    3    0    0  0.38917558436E-01  0.62933269474E-01 -0.10847878025E+00  0.13211085830E+00  0.14507251829E-01 0.  0.
         14    1    1    2    0    0 -0.46951591946E-03 -0.23495942636E-01  0.45910039317E-03  0.23505117288E-01  0.00000000000E+00 0. -1.
     999901    1    3    3    0    0 -0.38448042517E-01 -0.39437326837E-01  0.10801967986E+00  0.88831402441E+00  0.88000000000E+00 0.  1.
        -11    1    4    4    0    0  0.19484363083E-01  0.34629461253E-01 -0.70368995206E-01  0.80813962894E-01  0.51100000000E-03 0.  1.
         11    1    4    4    0    0  0.19433195353E-01  0.28303808221E-01 -0.38109785047E-01  0.51296895410E-01  0.51100000000E-03 0. -1.
</event>
<event>
 8    1  0.1064839E+005  0.1043930E+01  0.7957747E-01            NaN
         13   -1    0    0    0    0  0.00000000000E+00  0.00000000000E+00  0.74505805969E-08  0.10566000000E+00  0.10566000000E+00 0.  1.
     999900   -1    0    0    0    0 -0.00000000000E+00 -0.00000000000E+00 -0.74505805969E-08  0.93827000000E+00  0.93827000000E+00 0. -1.
     999902    2    1    2    0    0  0.20721425090E-01  0.15544142421E-02  0.12758145675E-01  0.10195463181E+01  0.10192546938E+01 0.  0.
     999903    2    3    3    0    0 -0.40363525530E-01 -0.87114903957E-01 -0.82059177625E-01  0.12792759692E+00  0.20335701026E-01 0.  0.
         14    1    1    2    0    0 -0.20721425090E-01 -0.15544142421E-02 -0.12758145675E-01  0.24383681889E-01  0.00000000000E+00 0.  1.
     999901    1    3    3    0    0  0.61084950621E-01  0.88669318200E-01  0.94817323300E-01  0.89161872119E+00  0.88000000000E+00 0.  1.
        -11    1    4    4    0    0 -0.70850333382E-02 -0.33887604395E-01 -0.21832739736E-01  0.40932836140E-01  0.51100000000E-03 0.  1.
         11    1    4    4    0    0 -0.33278492192E-01 -0.53227299562E-01 -0.60226437889E-01  0.86994760779E-01  0.51100000000E-03 0. -1.
</event>
<event>
 8    1  0.1064839E+005  0.1043930E+01  0.7957747E-01            NaN
         13   -1    0    0    0    0  0.00000000000E+00  0.00000000000E+00  0.74505805969E-08  0.10566000000E+00  0.10566000000E+00 0.  1.
     999900   -1    0    0    0    0 -0.00000000000E+00 -0.00000000000E+00 -0.74505805969E-08  0.93827000000E+00  0.93827000000E+00 0. -1.
     999902    2    1    2    0    0  0.81719920436E-02  0.55509649478E-02  0.22866762588E-01  0.10190204938E+01  0.10187159974E+01 0.  0.
     999903    2    3    3    0    0 -0.12847321995E-01 -0.10978159351E+00 -0.61610750789E-01  0.12723584446E+00  0.13267386628E-01 0.  0.
         14    1    1    2    0    0 -0.81719920436E-02 -0.55509649478E-02 -0.22866762588E-01  0.24909506158E-01  0.00000000000E+00 0. -1.
     999901    1    3    3    0    0  0.21019314038E-01  0.11533255845E+00  0.84477513377E-01  0.89178464938E+00  0.88000000000E+00 0.  1.
        -11    1    4    4    0    0 -0.21166040573E-02 -0.35354321451E-02 -0.45473330644E-02  0.61578122890E-02  0.51100000000E-03 0.  1.
         11    1    4    4    0    0 -0.10730717937E-01 -0.10624616136E+00 -0.57063417724E-01  0.12107803217E+00  0.51100000000E-03 0. -1.
</event>
<event>
 8    1  0.1064839E+005  0.1043930E+01  0.7957747E-01            NaN
         13   -1    0    0    0    0  0.00000000000E+00  0.00000000000E+00  0.74505805969E-08  0.10566000000E+00  0.10566000000E+00 0.  1.
     999900   -1    0    0    0    0 -0.00000000000E+00 -0.00000000000E+00 -0.74505805969E-08  0.93827000000E+00  0.93827000000E+00 0.  1.
     999902    2    1    2    0    0  0.10991323485E-01  0.18850042088E-01 -0.87807151571E-02  0.10204090681E+01  0.10201379475E+01 0.  0.
     999903    2    3    3    0    0 -0.19599565667E-01 -0.21649119257E-02  0.12710316885E+00  0.12920658790E+00  0.12259567963E-01 0.  0.
         14    1    1    2    0    0 -0.10991323485E-01 -0.18850042088E-01  0.87807151571E-02  0.23520931898E-01  0.00000000000E+00 0.  1.
     999901    1    3    3    0    0  0.30590889152E-01  0.21014954014E-01 -0.13588388401E+00  0.89120248021E+00  0.88000000000E+00 0.  1.
        -11    1    4    4    0    0 -0.14459800011E-01  0.36704380077E-02  0.95336262488E-01  0.96497782346E-01  0.51100000000E-03 0. -1.
         11    1    4    4    0    0 -0.51397656564E-02 -0.58353499334E-02  0.31766906361E-01  0.32708805551E-01  0.51100000000E-03 0.  1.
</event>
<event>
 8    1  0.1064839E+005  0.1043930E+01  0.7957747E-01            NaN
         13   -1    0    0    0    0  0.00000000000E+00  0.00000000000E+00  0.74505805969E-08  0.10566000000E+00  0.10566000000E+00 0. -1.
     999900   -1    0    0    0    0 -0.00000000000E+00 -0.00000000000E+00 -0.74505805969E-08  0.93827000000E+00  0.93827000000E+00 0. -1.
     999902    2    1    2    0    0 -0.15757541263E-02  0.51361304739E-02  0.24103351822E-01  0.10192351745E+01  0.10189359678E+01 0.  0.
     999903    2    3    3    0    0 -0.42316576694E-01  0.41473279007E-01  0.11690831248E+00  0.13267273242E+00  0.20585792836E-01 0.  0.
         14    1    1    2    0    0  0.15757541263E-02 -0.51361304739E-02 -0.24103351822E-01  0.24694825498E-01  0.00000000000E+00 0.  1.
     999901    1    3    3    0    0  0.40740822568E-01 -0.36337148533E-01 -0.92804960657E-01  0.88656244208E+00  0.88000000000E+00 0. -1.
        -11    1    4    4    0    0 -0.11384759081E-01  0.41401144040E-02  0.39632956386E-01  0.41446177623E-01  0.51100000000E-03 0. -1.
         11    1    4    4    0    0 -0.30931817613E-01  0.37333164603E-01  0.77275356092E-01  0.91226554798E-01  0.51100000000E-03 0.  1.
</event>
<event>
 8    1  0.1064839E+005  0.1043930E+01  0.7957747E-01            NaN
         13   -1    0    0    0    0  0.00000000000E+00  0.00000000000E+00  0.74505805969E-08  0.10566000000E+00  0.10566000000E+00 0. -1.
     999900   -1    0    0    0    0 -0.00000000000E+00 -0.00000000000E+00 -0.74505805969E-08  0.93827000000E+00  0.93827000000E+00 0. -1.
     999902    2    1    2    0    0 -0.10506215739E-01 -0.20575846966E-01 -0.51691352197E-02  0.10202558367E+01  0.10199811304E+01 0.  0.
     999903    2    3    3    0    0 -0.71733078073E-01  0.32339456788E-01  0.10163251674E+00  0.13011239273E+00  0.20213642084E-01 0.  0.
         14    1    1    2    0    0  0.10506215739E-01  0.20575846966E-01  0.51691352197E-02  0.23674163268E-01  0.00000000000E+00 0. -1.
     999901    1    3    3    0    0  0.61226862334E-01 -0.52915303754E-01 -0.10680165196E+00  0.89014344400E+00  0.88000000000E+00 0. -1.
        -11    1    4    4    0    0 -0.27320265933E-02  0.20128085306E-02  0.14511620021E-01  0.14911861189E-01  0.51100000000E-03 0.  1.
         11    1    4    4    0    0 -0.69001051480E-01  0.30326648257E-01  0.87120896723E-01  0.11520053154E+00  0.51100000000E-03 0. -1.
</event>
<event>
 8    1  0.1064839E+005  0.1043930E+01  0.7957747E-01            NaN
         13   -1    0    0    0    0  0.00000000000E+00  0.00000000000E+00  0.74505805969E-08  0.10566000000E+00  0.10566000000E+00 0.  1.
     999900   -1    0    0    0    0 -0.00000000000E+00 -0.00000000000E+00 -0.74505805969E-08  0.93827000000E+00  0.93827000000E+00 0.  1.
     999902    2    1    2    0    0 -0.96696398749E-02  0.18522353578E-01  0.10778552858E-01  0.10204192212E+01  0.10201483374E+01 0.  0.
     999903    2    3    3    0    0  0.10163814878E+00 -0.68860638156E-01 -0.31017960530E-01  0.12813442386E+00  0.19601426707E-01 0.  0.
         14    1    1    2    0    0  0.96696398749E-02 -0.18522353578E-01 -0.10778552858E-01  0.23510778785E-01  0.00000000000E+00 0.  1.
     999901    1    3    3    0    0 -0.11130778865E+00  0.87382991733E-01  0.41796513388E-01  0.89228479735E+00  0.88000000000E+00 0. -1.
        -11    1    4    4    0    0  0.23541266270E-01 -0.26546026455E-01 -0.97194251056E-02  0.36791453947E-01  0.51100000000E-03 0. -1.
         11    1    4    4    0    0  0.78096882505E-01 -0.42314611701E-01 -0.21298535424E-01  0.91342969914E-01  0.51100000000E-03 0.  1.
</event>
<event>
 8    1  0.1064839E+005  0.1043930E+01  0.7957747E-01            NaN
         13   -1    0    0    0    0  0.00000000000E+00  0.00000000000E+00  0.74505805969E-08  0.10566000000E+00  0.10566000000E+00 0. -1.
     999900   -1    0    0    0    0 -0.00000000000E+00 -0.00000000000E+00 -0.74505805969E-08  0.93827000000E+00  0.93827000000E+00 0. -1.
     999902    2    1    2    0    0 -0.20561502136E-02 -0.23123651647E-01  0.99661299009E-02  0.10186662955E+01  0.10183529677E+01 0.  0.
     999903    2    3    3    0    0  0.10587409223E+00 -0.43098473711E-01 -0.57094286596E-01  0.12931539165E+00  0.19897515221E-01 0.  0.
         14    1    1    2    0    0  0.20561502136E-02  0.23123651647E-01 -0.99661299009E-02  0.25263704486E-01  0.00000000000E+00 0. -1.
     999901    1    3    3    0    0 -0.10793024245E+00  0.19974822065E-01  0.67060416497E-01  0.88935090387E+00  0.88000000000E+00 0.  1.
        -11    1    4    4    0    0  0.65084557918E-01 -0.17847969034E-01 -0.39602921155E-01  0.78250892410E-01  0.51100000000E-03 0.  1.
         11    1    4    4    0    0  0.40789534315E-01 -0.25250504677E-01 -0.17491365442E-01  0.51064499235E-01  0.51100000000E-03 0. -1.
</event>
<event>
 8    1  0.1064839E+005  0.1043930E+01  0.7957747E-01            NaN
         13   -1    0    0    0    0  0.00000000000E+00  0.00000000000E+00  0.74505805969E-08  0.10566000000E+00  0.10566000000E+00 0.  1.
     999900   -1    0    0    0    0 -0.00000000000E+00 -0.00000000000E+00 -0.74505805969E-08  0.93827000000E+00  0.93827000000E+00 0. -1.
     999902    2    1    2    0    0 -0.80161912627E-02  0.50766489944E-02 -0.20585788875E-01  0.10212627022E+01  0.10210111167E+01 0.  0.
     999903    2    3    3    0    0 -0.55599745771E-01  0.79690445233E-01 -0.90311316135E-01  0.13408004769E+00  0.19478875134E-01 0.  0.
         14    1    1    2    0    0  0.80161912627E-02 -0.50766489944E-02  0.20585788875E-01  0.22667297831E-01  0.00000000000E+00 0.  1.
     999901    1    3    3    0    0  0.47583554508E-01 -0.74613796239E-01  0.69725527260E-01  0.88718265447E+00  0.88000000000E+00 0. -1.
        -11    1    4    4    0    0 -0.27671539727E-01  0.33604046723E-01 -0.52733701776E-01  0.68381653175E-01  0.51100000000E-03 0.  1.
         11    1    4    4    0    0 -0.27928206044E-01  0.46086398510E-01 -0.37577614359E-01  0.65698394519E-01  0.51100000000E-03 0. -1.
</event>
<event>
 8    1  0.1064839E+005  0.1043930E+01  0.7957747E-01            NaN
         13   -1    0    0    0    0  0.00000000000E+00  0.00000000000E+00  0.74505805969E-08  0.10566000000E+00  0.10566000000E+00 0. -1.
     999900   -1    0    0    0    0 -0.00000000000E+00 -0.00000000000E+00 -0.74505805969E-08  0.93827000000E+00  0.93827000000E+00 0. -1.
     999902    2    1    2    0    0 -0.98664369660E-02  0.18103588101E-01  0.12714557861E-01  0.10197071500E+01  0.10194194060E+01 0.  0.
     999903    2    3    3    0    0  0.79470279940E-01 -0.90711354569E-01  0.28404829364E-01  0.12837784758E+00  0.33614910028E-01 0.  0.
         14    1    1    2    0    0  0.98664369660E-02 -0.18103588101E-01 -0.12714557861E-01  0.24222850000E-01  0.00000000000E+00 0.  1.
     999901    1    3    3    0    0 -0.89336716906E-01  0.10881494267E+00 -0.15690271503E-01  0.89132930242E+00  0.88000000000E+00 0.  1.
        -11    1    4    4    0    0  0.40063177431E-01 -0.23173198892E-01  0.39788816841E-02  0.46455871031E-01  0.51100000000E-03 0. -1.
         11    1    4    4    0    0  0.39407102509E-01 -0.67538155677E-01  0.24425947680E-01  0.81921976547E-01  0.51100000000E-03 0.  1.
</event>
<event>
 8    1  0.1064839E+005  0.1043930E+01  0.7957747E-01            NaN
         13   -1    0    0    0    0  0.00000000000E+00  0.00000000000E+00  0.74505805969E-08  0.10566000000E+00  0.10566000000E+00 0.  1.
     999900   -1    0    0    0    0 -0.00000000000E+00 -0.00000000000E+00 -0.74505805969E-08  0.93827000000E+00  0.93827000000E+00 0. -1.
     999902    2    1    2    0    0  0.13739457339E-01 -0.73901195317E-02 -0.14506453477E-01  0.10226268606E+01  0.10224049454E+01 0.  0.
     999903    2    3    3    0    0 -0.93715677464E-01  0.33621742585E-02  0.87941002530E-01  0.13012604883E+00  0.20130480360E-01 0.  0.
         14    1    1    2    0    0 -0.13739457339E-01  0.73901195317E-02  0.14506453477E-01  0.21303139373E-01  0.00000000000E+00 0.  1.
     999901    1    3    3    0    0  0.10745513480E+00 -0.10752293790E-01 -0.10244745601E+00  0.89250081180E+00  0.88000000000E+00 0. -1.
        -11    1    4    4    0    0 -0.34352646822E-01 -0.45061027303E-02  0.21969168382E-01  0.41028219385E-01  0.51100000000E-03 0. -1.
         11    1    4    4    0    0 -0.59363030642E-01  0.78682769888E-02  0.65971834148E-01  0.89097829444E-01  0.51100000000E-03 0.  1.
</event>
<event>
 8    1  0.1064839E+005  0.1043930E+01  0.7957747E-01            NaN
         13   -1    0    0    0    0  0.00000000000E+00  0.00000000000E+00  0.74505805969E-08  0.10566000000E+00  0.10566000000E+00 0. -1.
     999900   -1    0    0    0    0 -0.00000000000E+00 -0.00000000000E+00 -0.74505805969E-08  0.93827000000E+00  0.93827000000E+00 0.  1.
     999902    2    1    2    0    0 -0.15093395264E-01 -0.14637931345E-01 -0.12978550029E-01  0.10192212490E+01  0.10189217007E+01 0.  0.
     999903    2    3    3    0    0 -0.68808691773E-01  0.71527635805E-01  0.79248897532E-01  0.12859464929E+00  0.20133487496E-01 0.  0.
         14    1    1    2    0    0  0.15093395264E-01  0.14637931345E-01  0.12978550029E-01  0.24708750991E-01  0.00000000000E+00 0. -1.
     999901    1    3    3    0    0  0.53715296509E-01 -0.86165567150E-01 -0.92227447562E-01  0.89062659972E+00  0.88000000000E+00 0.  1.
        -11    1    4    4    0    0 -0.88888230736E-02  0.20773991104E-01  0.20628283812E-01  0.30599952550E-01  0.51100000000E-03 0. -1.
         11    1    4    4    0    0 -0.59919868700E-01  0.50753644701E-01  0.58620613720E-01  0.97994696741E-01  0.51100000000E-03 0.  1.
</event>
<event>
 8    1  0.1064839E+005  0.1043930E+01  0.7957747E-01            NaN
         13   -1    0    0    0    0  0.00000000000E+00  0.00000000000E+00  0.74505805969E-08  0.10566000000E+00  0.10566000000E+00 0. -1.
     999900   -1    0    0    0    0 -0.00000000000E+00 -0.00000000000E+00 -0.74505805969E-08  0.93827000000E+00  0.93827000000E+00 0. -1.
     999902    2    1    2    0    0  0.37534922478E-03 -0.12585343311E-01  0.19081913898E-01  0.10210684342E+01  0.10208124686E+01 0.  0.
     999903    2    3    3    0    0  0.73849224563E-01 -0.48901452024E-01 -0.93341494501E-01  0.13013841850E+00  0.19450280053E-01 0.  0.
         14    1    1    2    0    0 -0.37534922478E-03  0.12585343311E-01 -0.19081913898E-01  0.22861565810E-01  0.00000000000E+00 0.  1.
     999901    1    3    3    0    0 -0.73473875338E-01  0.36316108713E-01  0.11242340840E+00  0.89093001569E+00  0.88000000000E+00 0.  1.
        -11    1    4    4    0    0  0.63015611607E-01 -0.48974623145E-01 -0.81137302014E-01  0.11381126446E+00  0.51100000000E-03 0.  1.
         11    1    4    4    0    0  0.10833612956E-01  0.73171121317E-04 -0.12204192487E-01  0.16327154037E-01  0.51100000000E-03 0. -1.
</event>
<event>
 8    1  0.1064839E+005  0.1043930E+01  0.7957747E-01            NaN
         13   -1    0    0    0    0  0.00000000000E+00  0.00000000000E+00  0.74505805969E-08  0.10566000000E+00  0.10566000000E+00 0. -1.
     999900   -1    0    0    0    0 -0.00000000000E+00 -0.00000000000E+00 -0.74505805969E-08  0.93827000000E+00  0.93827000000E+00 0. -1.
     999902    2    1    2    0    0  0.19055483045E-01 -0.13083485725E-01 -0.86338412512E-02  0.10192554737E+01  0.10189567648E+01 0.  0.
     999903    2    3    3    0    0  0.18301638257E-01  0.96095148857E-01 -0.82159855849E-01  0.12946526397E+00  0.21018683706E-01 0.  0.
         14    1    1    2    0    0 -0.19055483045E-01  0.13083485725E-01  0.86338412512E-02  0.24674526288E-01  0.00000000000E+00 0. -1.
     999901    1    3    3    0    0  0.75384478794E-03 -0.10917863458E+00  0.73526014598E-01  0.88979020974E+00  0.88000000000E+00 0.  1.
        -11    1    4    4    0    0  0.24467328834E-02  0.63052120223E-01 -0.47076382282E-01  0.78727398383E-01  0.51100000000E-03 0. -1.
         11    1    4    4    0    0  0.15854905373E-01  0.33043028635E-01 -0.35083473567E-01  0.50737865587E-01  0.51100000000E-03 0.  1.
</event>
<event>
 8    1  0.1064839E+005  0.1043930E+01  0.7957747E-01            NaN
         13   -1    0    0    0    0  0.00000000000E+00  0.00000000000E+00  0.74505805969E-08  0.10566000000E+00  0.10566000000E+00 0. -1.
     999900   -1    0    0    0    0 -0.00000000000E+00 -0.00000000000E+00 -0.74505805969E-08  0.93827000000E+00  0.93827000000E+00 0.  1.
     999902    2    1    2    0    0  0.57939748766E-02  0.23585444590E-01 -0.76219345944E-02  0.10184753889E+01  0.10181572474E+01 0.  0.
     999903    2    3    3    0    0  0.98145118155E-01 -0.22551297882E-01  0.77130696230E-01  0.12839654904E+00  0.19887288638E-01 0.  0.
         14    1    1    2    0    0 -0.57939748766E-02 -0.23585444590E-01  0.76219345944E-02  0.25454611141E-01  0.00000000000E+00 0. -1.
     999901    1    3    3    0    0 -0.92351143279E-01  0.46136742472E-01 -0.84752630824E-01  0.89007883982E+00  0.88000000000E+00 0. -1.
        -11    1    4    4    0    0  0.28197047272E-01 -0.86942742783E-02  0.12127955039E-01  0.31906304934E-01  0.51100000000E-03 0.  1.
         11    1    4    4    0    0  0.69948070883E-01 -0.13857023603E-01  0.65002741191E-01  0.96490244101E-01  0.51100000000E-03 0. -1.
</event>
<event>
 8    1  0.1064839E+005  0.1043930E+01  0.7957747E-01            NaN
         13   -1    0    0    0    0  0.00000000000E+00  0.00000000000E+00  0.74505805969E-08  0.10566000000E+00  0.10566000000E+00 0.  1.
     999900   -1    0    0    0    0 -0.00000000000E+00 -0.00000000000E+00 -0.74505805969E-08  0.93827000000E+00  0.93827000000E+00 0.  1.
     999902    2    1    2    0    0  0.12064219807E-01  0.18352568539E-01 -0.75079869478E-02  0.10207193981E+01  0.10204554658E+01 0.  0.
     999903    2    3    3    0    0  0.11538191968E+00 -0.26983666119E-01  0.53938654310E-01  0.13139065632E+00  0.17692385722E-01 0.  0.
         14    1    1    2    0    0 -0.12064219807E-01 -0.18352568539E-01  0.75079869478E-02  0.23210601878E-01  0.00000000000E+00 0.  1.
     999901    1    3    3    0    0 -0.10331769987E+00  0.45336234657E-01 -0.61446641258E-01  0.88932874181E+00  0.88000000000E+00 0.  1.
        -11    1    4    4    0    0  0.20523562956E-01 -0.74626971832E-02  0.32641128397E-02  0.22086738991E-01  0.51100000000E-03 0.  1.
         11    1    4    4    0    0  0.94858356723E-01 -0.19520968935E-01  0.50674541471E-01  0.10930391733E+00  0.51100000000E-03 0. -1.
</event>
<event>
 8    1  0.1064839E+005  0.1043930E+01  0.7957747E-01            NaN
         13   -1    0    0    0    0  0.00000000000E+00  0.00000000000E+00  0.74505805969E-08  0.10566000000E+00  0.10566000000E+00 0.  1.
     999900   -1    0    0    0    0 -0.00000000000E+00 -0.00000000000E+00 -0.74505805969E-08  0.93827000000E+00  0.93827000000E+00 0.  1.
     999902    2    1    2    0    0  0.19577788499E-01 -0.12112703124E-01  0.10358545576E-02  0.10208848189E+01  0.10206246778E+01 0.  0.
     999903    2    3    3    0    0  0.11823461447E+00  0.56255394542E-01 -0.11209920165E-01  0.13265212125E+00  0.18078426061E-01 0.  0.
         14    1    1    2    0    0 -0.19577788499E-01  0.12112703124E-01 -0.10358545576E-02  0.23045181148E-01  0.00000000000E+00 0. -1.
     999901    1    3    3    0    0 -0.98656825969E-01 -0.68368097666E-01  0.12245774723E-01  0.88823269760E+00  0.88000000000E+00 0.  1.
        -11    1    4    4    0    0  0.10199270554E+00  0.54975152760E-01 -0.92679464115E-02  0.11623654914E+00  0.51100000000E-03 0. -1.
         11    1    4    4    0    0  0.16241908932E-01  0.12802417818E-02 -0.19419737536E-02  0.16415572115E-01  0.51100000000E-03 0.  1.
</event>
<event>
 8    1  0.1064839E+005  0.1043930E+01  0.7957747E-01            NaN
         13   -1    0    0    0    0  0.00000000000E+00  0.00000000000E+00  0.74505805969E-08  0.10566000000E+00  0.10566000000E+00 0. -1.
     999900   -1    0    0    0    0 -0.00000000000E+00 -0.00000000000E+00 -0.74505805969E-08  0.93827000000E+00  0.93827000000E+00 0.  1.
     999902    2    1    2    0    0 -0.14006782121E-01  0.14251528976E-01  0.13353756846E-01  0.10198962977E+01  0.10196130831E+01 0.  0.
     999903    2    3    3    0    0 -0.34030748851E-01 -0.11860037205E+00 -0.31360769256E-01  0.12857706439E+00  0.18011760642E-01 0.  0.
         14    1    1    2    0    0  0.14006782121E-01 -0.14251528976E-01 -0.13353756846E-01  0.24033702283E-01  0.00000000000E+00 0.  1.
     999901    1    3    3    0    0  0.20023966730E-01  0.13285190103E+00  0.44714526102E-01  0.89131923332E+00  0.88000000000E+00 0. -1.
        -11    1    4    4    0    0 -0.22296140988E-01 -0.64160592327E-01 -0.88216377610E-02  0.68496583305E-01  0.51100000000E-03 0. -1.
         11    1    4    4    0    0 -0.11734607862E-01 -0.54439779724E-01 -0.22539131495E-01  0.60080481087E-01  0.51100000000E-03 0.  1.
</event>
<event>
 8    1  0.1064839E+005  0.1043930E+01  0.7957747E-01            NaN
         13   -1    0    0    0    0  0.00000000000E+00  0.00000000000E+00  0.74505805969E-08  0.10566000000E+00  0.10566000000E+00 0. -1.
     999900   -1    0    0    0    0 -0.00000000000E+00 -0.00000000000E+00 -0.74505805969E-08  0.93827000000E+00  0.93827000000E+00 0. -1.
     999902    2    1    2    0    0  0.22619654871E-01 -0.33677869096E-02 -0.35128141548E-02  0.10207927867E+01  0.10205305399E+01 0.  0.
     999903    2    3    3    0    0 -0.21946791394E-01 -0.30365981439E-01 -0.12397485974E+00  0.13105902032E+00  0.20073526811E-01 0.  0.
         14    1    1    2    0    0 -0.22619654871E-01  0.33677869096E-02  0.35128141548E-02  0.23137213282E-01  0.00000000000E+00 0. -1.
     999901    1    3    3    0    0  0.44566446265E-01  0.26998194529E-01  0.12046204559E+00  0.88973376640E+00  0.88000000000E+00 0.  1.
        -11    1    4    4    0    0 -0.76404437140E-02 -0.12728692107E-01 -0.81972302315E-01  0.83307355322E-01  0.51100000000E-03 0.  1.
         11    1    4    4    0    0 -0.14306347680E-01 -0.17637289332E-01 -0.42002557426E-01  0.47751665000E-01  0.51100000000E-03 0. -1.
</event>
<event>
 8    1  0.1064839E+005  0.1043930E+01  0.7957747E-01            NaN
         13   -1    0    0    0    0  0.00000000000E+00  0.00000000000E+00  0.74505805969E-08  0.10566000000E+00  0.10566000000E+00 0. -1.
     999900   -1    0    0    0    0 -0.00000000000E+00 -0.00000000000E+00 -0.74505805969E-08  0.93827000000E+00  0.93827000000E+00 0.  1.
     999902    2    1    2    0    0  0.17264098590E-01  0.17329051077E-01  0.99244583353E-03  0.10194487815E+01  0.10191547910E+01 0.  0.
     999903    2    3    3    0    0 -0.72477284238E-01  0.66353960202E-01  0.82302339004E-01  0.12980376450E+00  0.20482614801E-01 0.  0.
         14    1    1    2    0    0 -0.17264098590E-01 -0.17329051077E-01 -0.99244583353E-03  0.24481218517E-01  0.00000000000E+00 0.  1.
     999901    1    3    3    0    0  0.89741382828E-01 -0.49024909124E-01 -0.81309893170E-01  0.88964501698E+00  0.88000000000E+00 0.  1.
        -11    1    4    4    0    0 -0.52123885373E-01  0.34395111117E-01  0.52790382289E-01  0.81774132085E-01  0.51100000000E-03 0. -1.
         11    1    4    4    0    0 -0.20353398865E-01  0.31958849085E-01  0.29511956715E-01  0.48029632419E-01  0.51100000000E-03 0.  1.
</event>
<event>
 8    1  0.1064839E+005  0.1043930E+01  0.7957747E-01            NaN
         13   -1    0    0    0    0  0.00000000000E+00  0.00000000000E+00  0.74505805969E-08  0.10566000000E+00  0.10566000000E+00 0. -1.
     999900   -1    0    0    0    0 -0.00000000000E+00 -0.00000000000E+00 -0.74505805969E-08  0.93827000000E+00  0.93827000000E+00 0.  1.
     999902    2    1    2    0    0 -0.19534200218E-01 -0.16517937042E-01 -0.17253155104E-02  0.10182901105E+01  0.10179672613E+01 0.  0.
     999903    2    3    3    0    0  0.54185649276E-01 -0.51987763672E-02  0.11392951875E+00  0.12759443836E+00  0.18365554510E-01 0.  0.
         14    1    1    2    0    0  0.19534200218E-01  0.16517937042E-01  0.17253155104E-02  0.25639889545E-01  0.00000000000E+00 0. -1.
     999901    1    3    3    0    0 -0.73719849493E-01 -0.11319160675E-01 -0.11565483427E+00  0.89069567210E+00  0.88000000000E+00 0.  1.
        -11    1    4    4    0    0  0.44650248534E-01 -0.47237019231E-02  0.10619114337E+00  0.11529431081E+00  0.51100000000E-03 0. -1.
         11    1    4    4    0    0  0.95354007414E-02 -0.47507444414E-03  0.77383753839E-02  0.12300127544E-01  0.51100000000E-03 0.  1.
</event>
<event>
 7    1  0.1064839E+005  0.1043930E+01  0.7957747E-01            NaN
         13   -1    0    0    0    0  0.00000000000E+00  0.00000000000E+00  0.74505805969E-08  0.10566000000E+00  0.10566000000E+00 0.  1.
     999900   -1    0    0    0    0 -0.00000000000E+00 -0.00000000000E+00 -0.74505805969E-08  0.93827000000E+00  0.93827000000E+00 0.  1.
     999902    2    1    2    0    0 -0.17030648294E-01  0.15435875207E-01 -0.12867925071E-02  0.10209090300E+01  0.10206494415E+01 0.  0.
         14    1    1    2    0    0  0.17030648294E-01 -0.15435875207E-01  0.12867925071E-02  0.23020969998E-01  0.00000000000E+00 0. -1.
     999901    1    3    3    0    0 -0.87497546829E-01  0.38390786748E-01 -0.96311748535E-01  0.89039633092E+00  0.88000000000E+00 0.  1.
        -11    1    3    3    0    0  0.16876875917E-01  0.10711545034E-01  0.52536737826E-02  0.20674340302E-01  0.51100000000E-03 0.  1.
         11    1    3    3    0    0  0.53590022618E-01 -0.33666456575E-01  0.89771282245E-01  0.10983835878E+00  0.51100000000E-03 0. -1.
</event>
<event>
 8    1  0.1064839E+005  0.1043930E+01  0.7957747E-01            NaN
         13   -1    0    0    0    0  0.00000000000E+00  0.00000000000E+00  0.74505805969E-08  0.10566000000E+00  0.10566000000E+00 0. -1.
     999900   -1    0    0    0    0 -0.00000000000E+00 -0.00000000000E+00 -0.74505805969E-08  0.93827000000E+00  0.93827000000E+00 0.  1.
     999902    2    1    2    0    0 -0.63989636974E-02  0.22639744978E-01 -0.51428833526E-02  0.10198477651E+01  0.10195633918E+01 0.  0.
     999903    2    3    3    0    0  0.12568830077E+00  0.52614652428E-02  0.22898647327E-01  0.12937857557E+00  0.19729059827E-01 0.  0.
         14    1    1    2    0    0  0.63989636974E-02 -0.22639744978E-01  0.51428833526E-02  0.24082234909E-01  0.00000000000E+00 0. -1.
     999901    1    3    3    0    0 -0.13208726446E+00  0.17378279735E-01 -0.28041530680E-01  0.89046918952E+00  0.88000000000E+00 0.  1.
        -11    1    4    4    0    0  0.39895086728E-01  0.90304503045E-02  0.17992937413E-02  0.40947106817E-01  0.51100000000E-03 0. -1.
         11    1    4    4    0    0  0.85793214038E-01 -0.37689850617E-02  0.21099353586E-01  0.88431468754E-01  0.51100000000E-03 0.  1.
</event>
<event>
 8    1  0.1064839E+005  0.1043930E+01  0.7957747E-01            NaN
         13   -1    0    0    0    0  0.00000000000E+00  0.00000000000E+00  0.74505805969E-08  0.10566000000E+00  0.10566000000E+00 0. -1.
     999900   -1    0    0    0    0 -0.00000000000E+00 -0.00000000000E+00 -0.74505805969E-08  0.93827000000E+00  0.93827000000E+00 0. -1.
     999902    2    1    2    0    0 -0.11929220278E-01  0.68093462505E-02 -0.19212119591E-01  0.10203126540E+01  0.10200392801E+01 0.  0.
     999903    2    3    3    0    0 -0.62789669492E-01  0.16784525413E-01 -0.11497459975E+00  0.13360145970E+00  0.20147668819E-01 0.  0.
         14    1    1    2    0    0  0.11929220278E-01 -0.68093462505E-02  0.19212119591E-01  0.23617345998E-01  0.00000000000E+00 0. -1.
     999901    1    3    3    0    0  0.50860449213E-01 -0.99751791630E-02  0.95762480156E-01  0.88671119430E+00  0.88000000000E+00 0.  1.
        -11    1    4    4    0    0 -0.37707970809E-01  0.50000420063E-02 -0.48941841045E-01  0.61987550431E-01  0.51100000000E-03 0.  1.
         11    1    4    4    0    0 -0.25081698682E-01  0.11784483407E-01 -0.66032758702E-01  0.71613909269E-01  0.51100000000E-03 0. -1.
</event>
<event>
 8    1  0.1064839E+005  0.1043930E+01  0.7957747E-01            NaN
         13   -1    0    0    0    0  0.00000000000E+00  0.00000000000E+00  0.74505805969E-08  0.10566000000E+00  0.10566000000E+00 0.  1.
     999900   -1    0    0    0    0 -0.00000000000E+00 -0.00000000000E+00 -0.74505805969E-08  0.93827000000E+00  0.93827000000E+00 0.  1.
     999902    2    1    2    0    0 -0.47370103966E-02 -0.13233150658E-01 -0.19554272478E-01  0.10198483656E+01  0.10195640067E+01 0.  0.
     999903    2    3    3    0    0  0.32320011456E-01 -0.11171948402E+00 -0.60554250353E-01  0.13263149305E+00  0.19961699896E-01 0.  0.
         14    1    1    2    0    0  0.47370103966E-02  0.13233150658E-01  0.19554272478E-01  0.24081634412E-01  0.00000000000E+00 0.  1.
     999901    1    3    3    0    0 -0.37057021853E-01  0.98486333363E-01  0.40999977875E-01  0.88721687254E+00  0.88000000000E+00 0. -1.
        -11    1    4    4    0    0  0.75686197915E-02 -0.60142558160E-01 -0.34722009287E-01  0.69859074984E-01  0.51100000000E-03 0. -1.
         11    1    4    4    0    0  0.24751391665E-01 -0.51576925861E-01 -0.25832241066E-01  0.62772418068E-01  0.51100000000E-03 0.  1.
</event>
<event>
 8    1  0.1064839E+005  0.1043930E+01  0.7957747E-01            NaN
         13   -1    0    0    0    0  0.00000000000E+00  0.00000000000E+00  0.74505805969E-08  0.10566000000E+00  0.10566000000E+00 0.  1.
     999900   -1    0    0    0    0 -0.00000000000E+00 -0.00000000000E+00 -0.74505805969E-08  0.93827000000E+00  0.93827000000E+00 0.  1.
     999902    2    1    2    0    0  0.22379350278E-01  0.80884160617E-02 -0.40157167736E-02  0.10197973712E+01  0.10195117922E+01 0.  0.
     999903    2    3    3    0    0 -0.11573732915E+00  0.54803583685E-02  0.49007489682E-01  0.12744403334E+00  0.20373608006E-01 0.  0.
         14    1    1    2    0    0 -0.22379350278E-01 -0.80884160617E-02  0.40157167736E-02  0.24132628834E-01  0.00000000000E+00 0. -1.
     999901    1    3    3    0    0  0.13811667943E+00  0.26080576932E-02 -0.53023206456E-01  0.89235333782E+00  0.88000000000E+00 0.  1.
        -11    1    4    4    0    0 -0.72036155648E-01 -0.40848361665E-02  0.23180943027E-01  0.75785954159E-01  0.51100000000E-03 0. -1.
         11    1    4    4    0    0 -0.43701173501E-01  0.95651945350E-02  0.25826546655E-01  0.51658079184E-01  0.51100000000E-03 0.  1.
</event>
<event>
 8    1  0.1064839E+005  0.1043930E+01  0.7957747E-01            NaN
         13   -1    0    0    0    0  0.00000000000E+00  0.00000000000E+00  0.74505805969E-08  0.10566000000E+00  0.10566000000E+00 0. -1.
     999900   -1    0    0    0    0 -0.00000000000E+00 -0.00000000000E+00 -0.74505805969E-08  0.93827000000E+00  0.93827000000E+00 0.  1.
     999902    2    1    2    0    0  0.40956557787E-02  0.13869288208E-01 -0.18005267543E-01  0.10208362517E+01  0.10205750005E+01 0.  0.
     999903    2    3    3    0    0  0.12243557335E+00 -0.41416576032E-01 -0.10293860803E-01  0.13116196934E+00  0.19791317298E-01 0.  0.
         14    1    1    2    0    0 -0.40956557787E-02 -0.13869288208E-01  0.18005267543E-01  0.23093748309E-01  0.00000000000E+00 0. -1.
     999901    1    3    3    0    0 -0.11833991757E+00  0.55285864239E-01 -0.77114067401E-02  0.88967428235E+00  0.88000000000E+00 0.  1.
        -11    1    4    4    0    0  0.80106405964E-01 -0.36720448899E-01 -0.53745806548E-02  0.88286889638E-01  0.51100000000E-03 0. -1.
         11    1    4    4    0    0  0.42329167386E-01 -0.46961271329E-02 -0.49192801482E-02  0.42875079706E-01  0.51100000000E-03 0.  1.
</event>
<event>
 8    1  0.1064839E+005  0.1043930E+01  0.7957747E-01            NaN
         13   -1    0    0    0    0  0.00000000000E+00  0.00000000000E+00  0.74505805969E-08  0.10566000000E+00  0.10566000000E+00 0.  1.
     999900   -1    0    0    0    0 -0.00000000000E+00 -0.00000000000E+00 -0.74505805969E-08  0.93827000000E+00  0.93827000000E+00 0. -1.
     999902    2    1    2    0    0  0.16316111414E-01  0.12742233292E-01 -0.12432854730E-01  0.10197813794E+01  0.10194954173E+01 0.  0.
     999903    2    3    3    0    0 -0.64737911827E-01  0.69298566061E-01 -0.88181759228E-01  0.13101466647E+00  0.19887978346E-01 0.  0.
         14    1    1    2    0    0 -0.16316111414E-01 -0.12742233292E-01  0.12432854730E-01  0.24148620616E-01  0.00000000000E+00 0. -1.
     999901    1    3    3    0    0  0.81054023240E-01 -0.56556332769E-01  0.75748904498E-01  0.88876671292E+00  0.88000000000E+00 0.  1.
        -11    1    4    4    0    0 -0.11159647826E-01  0.58660359956E-02 -0.19649940116E-01  0.23352288655E-01  0.51100000000E-03 0. -1.
         11    1    4    4    0    0 -0.53578264001E-01  0.63432530065E-01 -0.68531819113E-01  0.10766237781E+00  0.51100000000E-03 0.  1.
</event>
<event>
 8    1  0.1064839E+005  0.1043930E+01  0.7957747E-01            NaN
         13   -1    0    0    0    0  0.00000000000E+00  0.00000000000E+00  0.74505805969E-08  0.10566000000E+00  0.10566000000E+00 0.  1.
     999900   -1    0    0    0    0 -0.00000000000E+00 -0.00000000000E+00 -0.74505805969E-08  0.93827000000E+00  0.93827000000E+00 0. -1.
     999902    2    1    2    0    0  0.18615740839E-01 -0.13584312897E-01  0.75997673402E-02  0.10196640603E+01  0.10193752793E+01 0.  0.
     999903    2    3    3    0    0  0.12015657641E+00  0.18352896649E-01  0.50905482392E-01  0.13219242046E+00  0.10442040929E-01 0.  0.
         14    1    1    2    0    0 -0.18615740839E-01  0.13584312897E-01 -0.75997673402E-02  0.24265939659E-01  0.00000000000E+00 0.  1.
     999901    1    3    3    0    0 -0.10154083557E+00 -0.31937209546E-01 -0.43305715052E-01  0.88747163988E+00  0.88000000000E+00 0. -1.
        -11    1    4    4    0    0  0.10265929127E+00  0.16567610685E-01  0.39577346133E-01  0.11126564275E+00  0.51100000000E-03 0. -1.
         11    1    4    4    0    0  0.17497285140E-01  0.17852859635E-02  0.11328136259E-01  0.20926777711E-01  0.51100000000E-03 0.  1.
</event>
<event>
 8    1  0.1064839E+005  0.1043930E+01  0.7957747E-01            NaN
         13   -1    0    0    0    0  0.00000000000E+00  0.00000000000E+00  0.74505805969E-08  0.10566000000E+00  0.10566000000E+00 0.  1.
     999900   -1    0    0    0    0 -0.00000000000E+00 -0.00000000000E+00 -0.74505805969E-08  0.93827000000E+00  0.93827000000E+00 0.  1.
     999902    2    1    2    0    0  0.95867547413E-02  0.20363346926E-01 -0.95232043880E-02  0.10194910314E+01  0.10191980671E+01 0.  0.
     999903    2    3    3    0    0 -0.29174329088E-01 -0.11781867444E+00 -0.33745190620E-01  0.12753621345E+00  0.19858658695E-01 0.  0.
         14    1    1    2    0    0 -0.95867547413E-02 -0.20363346926E-01  0.95232043880E-02  0.24438968602E-01  0.00000000000E+00 0. -1.
     999901    1    3    3    0    0  0.38761083829E-01  0.13818202137E+00  0.24221986232E-01  0.89195481795E+00  0.88000000000E+00 0. -1.
        -11    1    4    4    0    0 -0.16796882038E-01 -0.53716368211E-01 -0.60191503111E-02  0.56604547091E-01  0.51100000000E-03 0. -1.
         11    1    4    4    0    0 -0.12377447050E-01 -0.64102306232E-01 -0.27726040309E-01  0.70931666356E-01  0.51100000000E-03 0.  1.
</event>
<event>
 8    1  0.1064839E+005  0.1043930E+01  0.7957747E-01            NaN
         13   -1    0    0    0    0  0.00000000000E+00  0.00000000000E+00  0.74505805969E-08  0.10566000000E+00  0.10566000000E+00 0. -1.
     999900   -1    0    0    0    0 -0.00000000000E+00 -0.00000000000E+00 -0.74505805969E-08  0.93827000000E+00  0.93827000000E+00 0.  1.
     999902    2    1    2    0    0  0.18138036250E-01  0.12722220989E-01 -0.22554694313E-01  0.10123142207E+01  0.10118204010E+01 0.  0.
     999903    2    3    3    0    0  0.12161068635E+00  0.22389614912E-02  0.21841475473E-01  0.12507834002E+00  0.19322761426E-01 0.  0.
         14    1    1    2    0    0 -0.18138036250E-01 -0.12722220989E-01  0.22554694313E-01  0.31615779312E-01  0.00000000000E+00 0.  1.
     999901    1    3    3    0    0 -0.10347265010E+00  0.10483259498E-01 -0.44396169786E-01  0.88723588067E+00  0.88000000000E+00 0. -1.
        -11    1    4    4    0    0  0.12149144153E+00  0.67796321097E-03  0.21319528099E-01  0.12335077381E+00  0.51100000000E-03 0. -1.
         11    1    4    4    0    0  0.11924481475E-03  0.15609982803E-02  0.52194737452E-03  0.17275662125E-02  0.51100000000E-03 0.  1.
</event>
<event>
 8    1  0.1064839E+005  0.1043930E+01  0.7957747E-01            NaN
         13   -1    0    0    0    0  0.00000000000E+00  0.00000000000E+00  0.74505805969E-08  0.10566000000E+00  0.10566000000E+00 0.  1.
     999900   -1    0    0    0    0 -0.00000000000E+00 -0.00000000000E+00 -0.74505805969E-08  0.93827000000E+00  0.93827000000E+00 0.  1.
     999902    2    1    2    0    0  0.90773309693E-02 -0.22534118154E-02  0.21494345733E-01  0.10204889527E+01  0.10202196919E+01 0.  0.
     999903    2    3    3    0    0  0.79205498098E-01 -0.43257175030E-01  0.96421891677E-01  0.13357666524E+00  0.20021243243E-01 0.  0.
         14    1    1    2    0    0 -0.90773309693E-02  0.22534118154E-02 -0.21494345733E-01  0.23441047350E-01  0.00000000000E+00 0. -1.
     999901    1    3    3    0    0 -0.70128167129E-01  0.41003763215E-01 -0.74927545943E-01  0.88691228741E+00  0.88000000000E+00 0.  1.
        -11    1    4    4    0    0  0.29597021943E-01 -0.68660301687E-02  0.25353325097E-01  0.39574970533E-01  0.51100000000E-03 0. -1.
         11    1    4    4    0    0  0.49608476155E-01 -0.36391144861E-01  0.71068566580E-01  0.94001694705E-01  0.51100000000E-03 0.  1.
</event>
<event>
 8    1  0.1064839E+005  0.1043930E+01  0.7957747E-01            NaN
         13   -1    0    0    0    0  0.00000000000E+00  0.00000000000E+00  0.74505805969E-08  0.10566000000E+00  0.10566000000E+00 0.  1.
     999900   -1    0    0    0    0 -0.00000000000E+00 -0.00000000000E+00 -0.74505805969E-08  0.93827000000E+00  0.93827000000E+00 0.  1.
     999902    2    1    2    0    0 -0.10802146676E-01 -0.45521290770E-02  0.20801280499E-01  0.10200532012E+01  0.10197737159E+01 0.  0.
     999903    2    3    3    0    0  0.37691321878E-01  0.73349016198E-01  0.10076674033E+00  0.13167564647E+00  0.19591477610E-01 0.  0.
         14    1    1    2    0    0  0.10802146676E-01  0.45521290770E-02 -0.20801280499E-01  0.23876798829E-01  0.00000000000E+00 0. -1.
     999901    1    3    3    0    0 -0.48493468555E-01 -0.77901145275E-01 -0.79965459831E-01  0.88837755470E+00  0.88000000000E+00 0.  1.
        -11    1    4    4    0    0  0.73658417132E-02  0.15823830115E-01  0.10340811207E-01  0.20293908472E-01  0.51100000000E-03 0.  1.
         11    1    4    4    0    0  0.30325480165E-01  0.57525186083E-01  0.90425929123E-01  0.11138173800E+00  0.51100000000E-03 0. -1.
</event>
<event>
 8    1  0.1064839E+005  0.1043930E+01  0.7957747E-01            NaN
         13   -1    0    0    0    0  0.00000000000E+00  0.00000000000E+00  0.74505805969E-08  0.10566000000E+00  0.10566000000E+00 0.  1.
     999900   -1    0    0    0    0 -0.00000000000E+00 -0.00000000000E+00 -0.74505805969E-08  0.93827000000E+00  0.93827000000E+00 0.  1.
     999902    2    1    2    0    0  0.66856086833E-02  0.22227072550E-01 -0.53490117618E-02  0.10201108471E+01  0.10198327257E+01 0.  0.
     999903    2    3    3    0    0  0.95507914278E-01  0.10959674384E-01 -0.87684351231E-01  0.13174410732E+00  0.20641904258E-01 0.  0.
         14    1    1    2    0    0 -0.66856086833E-02 -0.22227072550E-01  0.53490117618E-02  0.23819152891E-01  0.00000000000E+00 0.  1.
     999901    1    3    3    0    0 -0.88822305595E-01  0.11267398166E-01  0.82335339469E-01  0.88836673979E+00  0.88000000000E+00 0.  1.
        -11    1    4    4    0    0  0.27861830987E-01 -0.61685886456E-02 -0.25075124197E-01  0.37991526507E-01  0.51100000000E-03 0.  1.
         11    1    4    4    0    0  0.67646083290E-01  0.17128263029E-01 -0.62609227034E-01  0.93752580816E-01  0.51100000000E-03 0. -1.
</event>
<event>
 8    1  0.1064839E+005  0.1043930E+01  0.7957747E-01            NaN
         13   -1    0    0    0    0  0.00000000000E+00  0.00000000000E+00  0.74505805969E-08  0.10566000000E+00  0.10566000000E+00 0. -1.
     999900   -1    0    0    0    0 -0.00000000000E+00 -0.00000000000E+00 -0.74505805969E-08  0.93827000000E+00  0.93827000000E+00 0.  1.
     999902    2    1    2    0    0  0.87896754606E-02  0.14233316568E-01 -0.80043206119E-02  0.10253850588E+01  0.10252173448E+01 0.  0.
     999903    2    3    3    0    0 -0.99664929916E-01 -0.67571966273E-01 -0.54538157067E-01  0.13374617245E+00  0.20360726627E-01 0.  0.
         14    1    1    2    0    0 -0.87896754606E-02 -0.14233316568E-01  0.80043206119E-02  0.18544941189E-01  0.00000000000E+00 0.  1.
     999901    1    3    3    0    0  0.10845460538E+00  0.81805282842E-01  0.46533836455E-01  0.89163888636E+00  0.88000000000E+00 0. -1.
        -11    1    4    4    0    0 -0.41014941047E-01 -0.24738093321E-01 -0.11276942226E-01  0.49210051790E-01  0.51100000000E-03 0.  1.
         11    1    4    4    0    0 -0.58649988869E-01 -0.42833872952E-01 -0.43261214841E-01  0.84536120664E-01  0.51100000000E-03 0. -1.
</event>
<event>
 8    1  0.1064839E+005  0.1043930E+01  0.7957747E-01            NaN
         13   -1    0    0    0    0  0.00000000000E+00  0.00000000000E+00  0.74505805969E-08  0.10566000000E+00  0.10566000000E+00 0.  1.
     999900   -1    0    0    0    0 -0.00000000000E+00 -0.00000000000E+00 -0.74505805969E-08  0.93827000000E+00  0.93827000000E+00 0.  1.
     999902    2    1    2    0    0  0.21168246844E-01  0.10906759649E-01 -0.21099446970E-02  0.10200238513E+01  0.10197436703E+01 0.  0.
     999903    2    3    3    0    0  0.29232479506E-01 -0.11511662575E+00 -0.48405697466E-01  0.12980465229E+00  0.19994019760E-01 0.  0.
         14    1    1    2    0    0 -0.21168246844E-01 -0.10906759649E-01  0.21099446970E-02  0.23906148730E-01  0.00000000000E+00 0.  1.
     999901    1    3    3    0    0 -0.80642326624E-02  0.12602338540E+00  0.46295752769E-01  0.89021919898E+00  0.88000000000E+00 0. -1.
        -11    1    4    4    0    0  0.23545510821E-02 -0.28445330989E-01 -0.19484014324E-01  0.34562533198E-01  0.51100000000E-03 0. -1.
         11    1    4    4    0    0  0.26877928424E-01 -0.86671294760E-01 -0.28921683142E-01  0.95242119088E-01  0.51100000000E-03 0.  1.
</event>
<event>
 8    1  0.1064839E+005  0.1043930E+01  0.7957747E-01            NaN
         13   -1    0    0    0    0  0.00000000000E+00  0.00000000000E+00  0.74505805969E-08  0.10566000000E+00  0.10566000000E+00 0. -1.
     999900   -1    0    0    0    0 -0.00000000000E+00 -0.00000000000E+00 -0.74505805969E-08  0.93827000000E+00  0.93827000000E+00 0.  1.
     999902    2    1    2    0    0  0.60105480098E-02  0.24009859999E-01 -0.27974282587E-02  0.10190216546E+01  0.10187171869E+01 0.  0.
     999903    2    3    3    0    0 -0.51772573741E-01  0.23672855053E-01 -0.11502494165E+00  0.13001433323E+00  0.20789088109E-01 0.  0.
         14    1    1    2    0    0 -0.60105480098E-02 -0.24009859999E-01  0.27974282587E-02  0.24908345377E-01  0.00000000000E+00 0. -1.
     999901    1    3    3    0    0  0.57783121751E-01  0.33700494557E-03  0.11222751339E+00  0.88900732140E+00  0.88000000000E+00 0. -1.
        -11    1    4    4    0    0 -0.26686075032E-01  0.20375809168E-01 -0.80366009021E-01  0.87099234938E-01  0.51100000000E-03 0. -1.
         11    1    4    4    0    0 -0.25086498709E-01  0.32970458854E-02 -0.34658932632E-01  0.42915098290E-01  0.51100000000E-03 0.  1.
</event>
<event>
 8    1  0.1064839E+005  0.1043930E+01  0.7957747E-01            NaN
         13   -1    0    0    0    0  0.00000000000E+00  0.00000000000E+00  0.74505805969E-08  0.10566000000E+00  0.10566000000E+00 0.  1.
     999900   -1    0    0    0    0 -0.00000000000E+00 -0.00000000000E+00 -0.74505805969E-08  0.93827000000E+00  0.93827000000E+00 0.  1.
     999902    2    1    2    0    0 -0.21472761618E-01 -0.52647844550E-02  0.91440310097E-02  0.10200048929E+01  0.10197242621E+01 0.  0.
     999903    2    3    3    0    0  0.48566587775E-02 -0.11298557175E+00 -0.61125439063E-01  0.13026627689E+00  0.21063167745E-01 0.  0.
         14    1    1    2    0    0  0.21472761618E-01  0.52647844550E-02 -0.91440310097E-02  0.23925107104E-01  0.00000000000E+00 0.  1.
     999901    1    3    3    0    0 -0.26329420395E-01  0.10772078729E+00  0.70269470073E-01  0.88973861601E+00  0.88000000000E+00 0. -1.
        -11    1    4    4    0    0  0.71287458411E-02 -0.90530618200E-01 -0.57273945243E-01  0.10736469519E+00  0.51100000000E-03 0. -1.
         11    1    4    4    0    0 -0.22720870636E-02 -0.22454953548E-01 -0.38514938205E-02  0.22901581695E-01  0.51100000000E-03 0.  1.
</event>
<event>
 8    1  0.1064839E+005  0.1043930E+01  0.7957747E-01            NaN
         13   -1    0    0    0    0  0.00000000000E+00  0.00000000000E+00  0.74505805969E-08  0.10566000000E+00  0.10566000000E+00 0. -1.
     999900   -1    0    0    0    0 -0.00000000000E+00 -0.00000000000E+00 -0.74505805969E-08  0.93827000000E+00  0.93827000000E+00 0.  1.
     999902    2    1    2    0    0 -0.66289014855E-02  0.74335308169E-02  0.20684292312E-01  0.10209726556E+01  0.10207145163E+01 0.  0.
     999903    2    3    3    0    0  0.17529467414E-02  0.43394333918E-01 -0.11975899225E+00  0.12907145536E+00  0.20762546247E-01 0.  0.
         14    1    1    2    0    0  0.66289014855E-02 -0.74335308169E-02 -0.20684292312E-01  0.22957344440E-01  0.00000000000E+00 0.  1.
     999901    1    3    3    0    0 -0.83818482268E-02 -0.35960803101E-01  0.14044328456E+00  0.89190120020E+00  0.88000000000E+00 0. -1.
        -11    1    4    4    0    0 -0.88525695721E-02  0.12088660659E-01 -0.33831043437E-01  0.37004112279E-01  0.51100000000E-03 0. -1.
         11    1    4    4    0    0  0.10605516314E-01  0.31305673259E-01 -0.85927948809E-01  0.92067343081E-01  0.51100000000E-03 0.  1.
</event>
<event>
 8    1  0.1064839E+005  0.1043930E+01  0.7957747E-01            NaN
         13   -1    0    0    0    0  0.00000000000E+00  0.00000000000E+00  0.74505805969E-08  0.10566000000E+00  0.10566000000E+00 0.  1.
     999900   -1    0    0    0    0 -0.00000000000E+00 -0.00000000000E+00 -0.74505805969E-08  0.93827000000E+00  0.93827000000E+00 0. -1.
     999902    2    1    2    0    0 -0.85106837544E-02  0.61955906528E-02  0.17893222413E-01  0.10231698341E+01  0.10229592000E+01 0.  0.
     999903    2    3    3    0    0  0.95342214081E-01 -0.32649444130E-01 -0.81069367260E-01  0.13070809523E+00  0.18874317568E-01 0.  0.
         14    1    1    2    0    0  0.85106837544E-02 -0.61955906528E-02 -0.17893222413E-01  0.20760165940E-01  0.00000000000E+00 0. -1.
     999901    1    3    3    0    0 -0.10385289784E+00  0.38845034783E-01  0.98962589673E-01  0.89246173883E+00  0.88000000000E+00 0.  1.
        -11    1    4    4    0    0  0.61122488347E-01 -0.11571681350E-01 -0.46065555312E-01  0.77409036282E-01  0.51100000000E-03 0. -1.
         11    1    4    4    0    0  0.34219725734E-01 -0.21077762780E-01 -0.35003811948E-01  0.53299058951E-01  0.51100000000E-03 0.  1.
</event>
<event>
 7    1  0.1064839E+005  0.1043930E+01  0.7957747E-01            NaN
         13   -1    0    0    0    0  0.00000000000E+00  0.00000000000E+00  0.74505805969E-08  0.10566000000E+00  0.10566000000E+00 0. -1.
     999900   -1    0    0    0    0 -0.00000000000E+00 -0.00000000000E+00 -0.74505805969E-08  0.93827000000E+00  0.93827000000E+00 0.  1.
     999903    2    1    2    0    0 -0.93385445924E-01  0.31767544875E-01  0.49833186064E-01  0.11238084974E+00  0.20398297391E-01 0.  0.
         14    1    1    2    0    0 -0.39193939167E-01  0.47793293191E-02 -0.40624715982E-02  0.39692701239E-01  0.00000000000E+00 0. -1.
     999901    1    1    2    0    0  0.13257938509E+00 -0.36546874194E-01 -0.45770714466E-01  0.89185644902E+00  0.88000000000E+00 0.  1.
        -11    1    3    3    0    0 -0.59172237377E-01  0.19564542045E-01  0.42177307758E-01  0.75254975865E-01  0.51100000000E-03 0. -1.
         11    1    3    3    0    0 -0.34213208546E-01  0.12203002830E-01  0.76558783059E-02  0.37125873872E-01  0.51100000000E-03 0.  1.
</event>
<event>
 8    1  0.1064839E+005  0.1043930E+01  0.7957747E-01            NaN
         13   -1    0    0    0    0  0.00000000000E+00  0.00000000000E+00  0.74505805969E-08  0.10566000000E+00  0.10566000000E+00 0. -1.
     999900   -1    0    0    0    0 -0.00000000000E+00 -0.00000000000E+00 -0.74505805969E-08  0.93827000000E+00  0.93827000000E+00 0. -1.
     999902    2    1    2    0    0 -0.28416002811E-03 -0.58888086996E-02  0.20408627728E-01  0.10226868623E+01  0.10224662084E+01 0.  0.
     999903    2    3    3    0    0 -0.38329522001E-01  0.91156303960E-01  0.87997591576E-01  0.13396110508E+00  0.20576140137E-01 0.  0.
         14    1    1    2    0    0  0.28416002811E-03  0.58888086996E-02 -0.20408627728E-01  0.21243137729E-01  0.00000000000E+00 0.  1.
     999901    1    3    3    0    0  0.38045361973E-01 -0.97045112660E-01 -0.67588963848E-01  0.88872575719E+00  0.88000000000E+00 0.  1.
        -11    1    4    4    0    0 -0.29955383821E-01  0.47544733495E-01  0.55003909486E-01  0.78635347539E-01  0.51100000000E-03 0. -1.
         11    1    4    4    0    0 -0.83741381802E-02  0.43611570465E-01  0.32993682090E-01  0.55325757542E-01  0.51100000000E-03 0.  1.
</event>
<event>
 8    1  0.1064839E+005  0.1043930E+01  0.7957747E-01            NaN
         13   -1    0    0    0    0  0.00000000000E+00  0.00000000000E+00  0.74505805969E-08  0.10566000000E+00  0.10566000000E+00 0. -1.
     999900   -1    0    0    0    0 -0.00000000000E+00 -0.00000000000E+00 -0.74505805969E-08  0.93827000000E+00  0.93827000000E+00 0.  1.
     999902    2    1    2    0    0 -0.19414145008E-02  0.17260239902E-01  0.11322941576E-01  0.10231961152E+01  0.10229860196E+01 0.  0.
     999903    2    3    3    0    0 -0.12182518540E+00  0.28459590258E-01 -0.41930729916E-01  0.13340203933E+00  0.19661991549E-01 0.  0.
         14    1    1    2    0    0  0.19414145008E-02 -0.17260239902E-01 -0.11322941576E-01  0.20733884771E-01  0.00000000000E+00 0. -1.
     999901    1    3    3    0    0  0.11988377090E+00 -0.11199350356E-01  0.53253671493E-01  0.88979407590E+00  0.88000000000E+00 0.  1.
        -11    1    4    4    0    0 -0.71005734013E-01  0.14478058039E-01 -0.34181461969E-01  0.80125288709E-01  0.51100000000E-03 0. -1.
         11    1    4    4    0    0 -0.50819451386E-01  0.13981532219E-01 -0.77492679477E-02  0.53276750624E-01  0.51100000000E-03 0.  1.
</event>
<event>
 8    1  0.1064839E+005  0.1043930E+01  0.7957747E-01            NaN
         13   -1    0    0    0    0  0.00000000000E+00  0.00000000000E+00  0.74505805969E-08  0.10566000000E+00  0.10566000000E+00 0.  1.
     999900   -1    0    0    0    0 -0.00000000000E+00 -0.00000000000E+00 -0.74505805969E-08  0.93827000000E+00  0.93827000000E+00 0.  1.
     999902    2    1    2    0    0  0.18707955383E-01 -0.13907477918E-01 -0.44390749233E-03  0.10206147134E+01  0.10203483673E+01 0.  0.
     999903    2    3    3    0    0  0.63234104945E-01 -0.99126086654E-01  0.59673650140E-01  0.13333859513E+00  0.19841959236E-01 0.  0.
         14    1    1    2    0    0 -0.18707955383E-01  0.13907477918E-01  0.44390749233E-03  0.23315286627E-01  0.00000000000E+00 0. -1.
     999901    1    3    3    0    0 -0.44526149562E-01  0.85218608736E-01 -0.60117557633E-01  0.88727611824E+00  0.88000000000E+00 0.  1.
        -11    1    4    4    0    0  0.11915298418E-01 -0.35761826663E-01  0.18572978582E-01  0.42024983487E-01  0.51100000000E-03 0. -1.
         11    1    4    4    0    0  0.51318806527E-01 -0.63364259991E-01  0.41100671559E-01  0.91313611642E-01  0.51100000000E-03 0.  1.
</event>
<event>
 8    1  0.1064839E+005  0.1043930E+01  0.7957747E-01            NaN
         13   -1    0    0    0    0  0.00000000000E+00  0.00000000000E+00  0.74505805969E-08  0.10566000000E+00  0.10566000000E+00 0.  1.
     999900   -1    0    0    0    0 -0.00000000000E+00 -0.00000000000E+00 -0.74505805969E-08  0.93827000000E+00  0.93827000000E+00 0. -1.
     999902    2    1    2    0    0 -0.20220719110E-01  0.84537286650E-02  0.90582362041E-02  0.10202151386E+01  0.10199394758E+01 0.  0.
     999903    2    3    3    0    0 -0.10945098300E+00 -0.68622690041E-01 -0.17592564187E-01  0.13195105651E+00  0.20322198008E-01 0.  0.
         14    1    1    2    0    0  0.20220719110E-01 -0.84537286650E-02 -0.90582362041E-02  0.23714861433E-01  0.00000000000E+00 0. -1.
     999901    1    3    3    0    0  0.89230263886E-01  0.77076418706E-01  0.26650800391E-01  0.88826408206E+00  0.88000000000E+00 0.  1.
        -11    1    4    4    0    0 -0.10235271481E+00 -0.62487569557E-01 -0.21395380542E-01  0.12181460507E+00  0.51100000000E-03 0. -1.
         11    1    4    4    0    0 -0.70982681812E-02 -0.61351204840E-02  0.38028163545E-02  0.10136451438E-01  0.51100000000E-03 0.  1.
</event>
<event>
 8    1  0.1064839E+005  0.1043930E+01  0.7957747E-01            NaN
         13   -1    0    0    0    0  0.00000000000E+00  0.00000000000E+00  0.74505805969E-08  0.10566000000E+00  0.10566000000E+00 0. -1.
     999900   -1    0    0    0    0 -0.00000000000E+00 -0.00000000000E+00 -0.74505805969E-08  0.93827000000E+00  0.93827000000E+00 0. -1.
     999902    2    1    2    0    0  0.23313618714E-01  0.20472483966E-03  0.51775785389E-02  0.10200474949E+01  0.10197678745E+01 0.  0.
     999903    2    3    3    0    0 -0.27127802673E-01  0.59783561035E-01 -0.10963702491E+00  0.12916233515E+00  0.18778704487E-01 0.  0.
         14    1    1    2    0    0 -0.23313618714E-01 -0.20472483966E-03 -0.51775785389E-02  0.23882505089E-01  0.00000000000E+00 0. -1.
     999901    1    3    3    0    0  0.50441421387E-01 -0.59578836196E-01  0.11481460345E+00  0.89088515976E+00  0.88000000000E+00 0. -1.
        -11    1    4    4    0    0 -0.41361551354E-02  0.86865652535E-02 -0.31982576159E-01  0.33402252828E-01  0.51100000000E-03 0. -1.
         11    1    4    4    0    0 -0.22991647538E-01  0.51096995782E-01 -0.77654448754E-01  0.95760082324E-01  0.51100000000E-03 0.  1.
</event>
<event>
 8    1  0.1064839E+005  0.1043930E+01  0.7957747E-01            NaN
         13   -1    0    0    0    0  0.00000000000E+00  0.00000000000E+00  0.74505805969E-08  0.10566000000E+00  0.10566000000E+00 0. -1.
     999900   -1    0    0    0    0 -0.00000000000E+00 -0.00000000000E+00 -0.74505805969E-08  0.93827000000E+00  0.93827000000E+00 0.  1.
     999902    2    1    2    0    0  0.31889310309E-02  0.97552716514E-02  0.20788541215E-01  0.10207459958E+01  0.10204826749E+01 0.  0.
     999903    2    3    3    0    0 -0.63786328838E-01  0.11242252118E+00  0.18220262475E-01  0.13224566059E+00  0.21199475619E-01 0.  0.
         14    1    1    2    0    0 -0.31889310309E-02 -0.97552716514E-02 -0.20788541215E-01  0.23184004226E-01  0.00000000000E+00 0.  1.
     999901    1    3    3    0    0  0.66975259869E-01 -0.10266724953E+00  0.25682787393E-02  0.88850033518E+00  0.88000000000E+00 0.  1.
        -11    1    4    4    0    0 -0.16219809200E-01  0.42686171136E-01 -0.96675874875E-03  0.45676987206E-01  0.51100000000E-03 0. -1.
         11    1    4    4    0    0 -0.47566519638E-01  0.69736350043E-01  0.19187021224E-01  0.86568673388E-01  0.51100000000E-03 0.  1.
</event>
<event>
 8    1  0.1064839E+005  0.1043930E+01  0.7957747E-01            NaN
         13   -1    0    0    0    0  0.00000000000E+00  0.00000000000E+00  0.74505805969E-08  0.10566000000E+00  0.10566000000E+00 0. -1.
     999900   -1    0    0    0    0 -0.00000000000E+00 -0.00000000000E+00 -0.74505805969E-08  0.93827000000E+00  0.93827000000E+00 0. -1.
     999902    2    1    2    0    0  0.77856780130E-02 -0.30789179671E-02  0.23289422538E-01  0.10191813895E+01  0.10188808620E+01 0.  0.
     999903    2    3    3    0    0  0.92644404963E-01  0.78417831222E-01  0.45126096760E-01  0.13108254142E+00  0.20345172230E-01 0.  0.
         14    1    1    2    0    0 -0.77856780130E-02  0.30789179671E-02 -0.23289422538E-01  0.24748610468E-01  0.00000000000E+00 0.  1.
     999901    1    3    3    0    0 -0.84858726950E-01 -0.81496749190E-01 -0.21836674222E-01  0.88809884811E+00  0.88000000000E+00 0.  1.
        -11    1    4    4    0    0  0.72876212642E-01  0.58533797124E-01  0.25616855651E-01  0.96920752108E-01  0.51100000000E-03 0.  1.
         11    1    4    4    0    0  0.19768192321E-01  0.19884034099E-01  0.19509241109E-01  0.34161789317E-01  0.51100000000E-03 0. -1.
</event>
<event>
 8    1  0.1064839E+005  0.1043930E+01  0.7957747E-01            NaN
         13   -1    0    0    0    0  0.00000000000E+00  0.00000000000E+00  0.74505805969E-08  0.10566000000E+00  0.10566000000E+00 0. -1.
     999900   -1    0    0    0    0 -0.00000000000E+00 -0.00000000000E+00 -0.74505805969E-08  0.93827000000E+00  0.93827000000E+00 0. -1.
     999902    2    1    2    0    0 -0.23399798615E-01  0.17917021277E-02 -0.21440348360E-02  0.10203639724E+01  0.10200917991E+01 0.  0.
     999903    2    3    3    0    0  0.12193821957E+00 -0.23347747453E-01 -0.23155070088E-01  0.12784137041E+00  0.19829574204E-01 0.  0.
         14    1    1    2    0    0  0.23399798615E-01 -0.17917021277E-02  0.21440348360E-02  0.23566027605E-01  0.00000000000E+00 0.  1.
     999901    1    3    3    0    0 -0.14533801819E+00  0.25139449581E-01  0.21011035252E-01  0.89252260199E+00  0.88000000000E+00 0. -1.
        -11    1    4    4    0    0  0.31980114040E-01 -0.14449921503E-01 -0.30121482634E-02  0.35225872362E-01  0.51100000000E-03 0.  1.
         11    1    4    4    0    0  0.89958105532E-01 -0.88978259500E-02 -0.20142921825E-01  0.92615498046E-01  0.51100000000E-03 0. -1.
</event>
<event>
 8    1  0.1064839E+005  0.1043930E+01  0.7957747E-01            NaN
         13   -1    0    0    0    0  0.00000000000E+00  0.00000000000E+00  0.74505805969E-08  0.10566000000E+00  0.10566000000E+00 0.  1.
     999900   -1    0    0    0    0 -0.00000000000E+00 -0.00000000000E+00 -0.74505805969E-08  0.93827000000E+00  0.93827000000E+00 0.  1.
     999902    2    1    2    0    0  0.22332376965E-01 -0.54362685898E-02 -0.33491512786E-02  0.10207027554E+01  0.10204384401E+01 0.  0.
     999903    2    3    3    0    0  0.38484472962E-01 -0.45318996528E-01 -0.11661522064E+00  0.13240059698E+00  0.19898298721E-01 0.  0.
         14    1    1    2    0    0 -0.22332376965E-01  0.54362685898E-02  0.33491512786E-02  0.23227244593E-01  0.00000000000E+00 0.  1.
     999901    1    3    3    0    0 -0.16152095997E-01  0.39882727938E-01  0.11326606936E+00  0.88830215842E+00  0.88000000000E+00 0. -1.
        -11    1    4    4    0    0  0.28010762774E-02 -0.15399289435E-01 -0.36784187592E-01  0.39979016011E-01  0.51100000000E-03 0. -1.
         11    1    4    4    0    0  0.35683396684E-01 -0.29919707093E-01 -0.79831033045E-01  0.92421580973E-01  0.51100000000E-03 0.  1.
</event>
<event>
 8    1  0.1064839E+005  0.1043930E+01  0.7957747E-01            NaN
         13   -1    0    0    0    0  0.00000000000E+00  0.00000000000E+00  0.74505805969E-08  0.10566000000E+00  0.10566000000E+00 0. -1.
     999900   -1    0    0    0    0 -0.00000000000E+00 -0.00000000000E+00 -0.74505805969E-08  0.93827000000E+00  0.93827000000E+00 0. -1.
     999902    2    1    2    0    0  0.11644626065E-01  0.10035473359E-01  0.18022692566E-01  0.10202419125E+01  0.10199668791E+01 0.  0.
     999903    2    3    3    0    0  0.12490871565E+00 -0.96120656886E-02 -0.33615791610E-01  0.13126423403E+00  0.20141962099E-01 0.  0.
         14    1    1    2    0    0 -0.11644626065E-01 -0.10035473359E-01 -0.18022692566E-01  0.23688087492E-01  0.00000000000E+00 0.  1.
     999901    1    3    3    0    0 -0.11326408959E+00  0.19647539048E-01  0.51638484176E-01  0.88897767848E+00  0.88000000000E+00 0. -1.
        -11    1    4    4    0    0  0.35787782682E-01  0.41745704864E-02 -0.15766382339E-01  0.39332332261E-01  0.51100000000E-03 0.  1.
         11    1    4    4    0    0  0.89120932971E-01 -0.13786636175E-01 -0.17849409271E-01  0.91931901770E-01  0.51100000000E-03 0. -1.
</event>
<event>
 8    1  0.1064839E+005  0.1043930E+01  0.7957747E-01            NaN
         13   -1    0    0    0    0  0.00000000000E+00  0.00000000000E+00  0.74505805969E-08  0.10566000000E+00  0.10566000000E+00 0. -1.
     999900   -1    0    0    0    0 -0.00000000000E+00 -0.00000000000E+00 -0.74505805969E-08  0.93827000000E+00  0.93827000000E+00 0. -1.
     999902    2    1    2    0    0 -0.16652481126E-01 -0.13444513929E-01 -0.98788137775E-02  0.10203577484E+01  0.10200854296E+01 0.  0.
     999903    2    3    3    0    0 -0.10626827886E+00 -0.20291594908E-01  0.73895824160E-01  0.13182183825E+00  0.14550199167E-01 0.  0.
         14    1    1    2    0    0  0.16652481126E-01  0.13444513929E-01  0.98788137775E-02  0.23572251570E-01  0.00000000000E+00 0. -1.
     999901    1    3    3    0    0  0.89615797730E-01  0.68470809796E-02 -0.83774637938E-01  0.88853591018E+00  0.88000000000E+00 0. -1.
        -11    1    4    4    0    0 -0.18572904243E-01 -0.26142294785E-02  0.66533067681E-02  0.19907651286E-01  0.51100000000E-03 0.  1.
         11    1    4    4    0    0 -0.87695374613E-01 -0.17677365430E-01  0.67242517392E-01  0.11191418696E+00  0.51100000000E-03 0. -1.
</event>
<event>
 8    1  0.1064839E+005  0.1043930E+01  0.7957747E-01            NaN
         13   -1    0    0    0    0  0.00000000000E+00  0.00000000000E+00  0.74505805969E-08  0.10566000000E+00  0.10566000000E+00 0. -1.
     999900   -1    0    0    0    0 -0.00000000000E+00 -0.00000000000E+00 -0.74505805969E-08  0.93827000000E+00  0.93827000000E+00 0. -1.
     999902    2    1    2    0    0 -0.79771713349E-02 -0.12690848693E-01  0.18252229430E-01  0.10203114314E+01  0.10200380288E+01 0.  0.
     999903    2    3    3    0    0  0.41512240184E-01  0.79189895165E-03 -0.11958582859E+00  0.12810612064E+00  0.19659973443E-01 0.  0.
         14    1    1    2    0    0  0.79771713349E-02  0.12690848693E-01 -0.18252229430E-01  0.23618568590E-01  0.00000000000E+00 0. -1.
     999901    1    3    3    0    0 -0.49489411519E-01 -0.13482747644E-01  0.13783805802E+00  0.89220531078E+00  0.88000000000E+00 0.  1.
        -11    1    4    4    0    0  0.23397682622E-01  0.64393698124E-02 -0.87710666702E-01  0.91007357999E-01  0.51100000000E-03 0.  1.
         11    1    4    4    0    0  0.18114557562E-01 -0.56474708607E-02 -0.31875161887E-01  0.37098762636E-01  0.51100000000E-03 0. -1.
</event>
<event>
 8    1  0.1064839E+005  0.1043930E+01  0.7957747E-01            NaN
         13   -1    0    0    0    0  0.00000000000E+00  0.00000000000E+00  0.74505805969E-08  0.10566000000E+00  0.10566000000E+00 0.  1.
     999900   -1    0    0    0    0 -0.00000000000E+00 -0.00000000000E+00 -0.74505805969E-08  0.93827000000E+00  0.93827000000E+00 0.  1.
     999902    2    1    2    0    0 -0.13570183333E-02 -0.92344742656E-02  0.22986974826E-01  0.10191203643E+01  0.10188183346E+01 0.  0.
     999903    2    3    3    0    0 -0.43364227203E-02  0.10810869432E+00  0.69428504923E-01  0.13011242741E+00  0.20065695176E-01 0.  0.
         14    1    1    2    0    0  0.13570183333E-02  0.92344742656E-02 -0.22986974826E-01  0.24809635737E-01  0.00000000000E+00 0. -1.
     999901    1    3    3    0    0  0.29794043870E-02 -0.11734316858E+00 -0.46441530097E-01  0.88900793685E+00  0.88000000000E+00 0. -1.
        -11    1    4    4    0    0 -0.12104519247E-03  0.24455068673E-01  0.63941883552E-02  0.25282638341E-01  0.51100000000E-03 0. -1.
         11    1    4    4    0    0 -0.42153775278E-02  0.83653625643E-01  0.63034316568E-01  0.10482978907E+00  0.51100000000E-03 0.  1.
</event>
<event>
 8    1  0.1064839E+005  0.1043930E+01  0.7957747E-01            NaN
         13   -1    0    0    0    0  0.00000000000E+00  0.00000000000E+00  0.74505805969E-08  0.10566000000E+00  0.10566000000E+00 0. -1.
     999900   -1    0    0    0    0 -0.00000000000E+00 -0.00000000000E+00 -0.74505805969E-08  0.93827000000E+00  0.93827000000E+00 0.  1.
     999902    2    1    2    0    0 -0.22677241614E-01 -0.33617363160E-02 -0.53397958776E-02  0.10203912664E+01  0.10201197305E+01 0.  0.
     999903    2    3    3    0    0 -0.12822317931E+00 -0.25059724174E-01 -0.19328903805E-01  0.13370843543E+00  0.20860625434E-01 0.  0.
         14    1    1    2    0    0  0.22677241614E-01  0.33617363160E-02  0.53397958776E-02  0.23538733575E-01  0.00000000000E+00 0.  1.
     999901    1    3    3    0    0  0.10554593770E+00  0.21697987858E-01  0.13989107927E-01  0.88668283100E+00  0.88000000000E+00 0.  1.
        -11    1    4    4    0    0 -0.83571766548E-01 -0.25275025030E-01 -0.17289389817E-01  0.89007028798E-01  0.51100000000E-03 0. -1.
         11    1    4    4    0    0 -0.44651412766E-01  0.21530085662E-03 -0.20395139875E-02  0.44701406631E-01  0.51100000000E-03 0.  1.
</event>
<event>
 8    1  0.1064839E+005  0.1043930E+01  0.7957747E-01            NaN
         13   -1    0    0    0    0  0.00000000000E+00  0.00000000000E+00  0.74505805969E-08  0.10566000000E+00  0.10566000000E+00 0.  1.
     999900   -1    0    0    0    0 -0.00000000000E+00 -0.00000000000E+00 -0.74505805969E-08  0.93827000000E+00  0.93827000000E+00 0.  1.
     999902    2    1    2    0    0  0.77801765038E-02  0.36723031118E-02  0.21929455775E-01  0.10203733027E+01  0.10201013474E+01 0.  0.
     999903    2    3    3    0    0  0.80854904409E-01 -0.99617361577E-01  0.19360609231E-01  0.13132028423E+00  0.20224973845E-01 0.  0.
         14    1    1    2    0    0 -0.77801765038E-02 -0.36723031118E-02 -0.21929455775E-01  0.23556697289E-01  0.00000000000E+00 0. -1.
     999901    1    3    3    0    0 -0.73074727905E-01  0.10328966469E+00  0.25688465441E-02  0.88905301848E+00  0.88000000000E+00 0. -1.
        -11    1    4    4    0    0  0.20258421109E-01 -0.38851890534E-01  0.10397562058E-01  0.45036023821E-01  0.51100000000E-03 0.  1.
         11    1    4    4    0    0  0.60596483300E-01 -0.60765471043E-01  0.89630471730E-02  0.86284260413E-01  0.51100000000E-03 0. -1.
</event>
<event>
 8    1  0.1064839E+005  0.1043930E+01  0.7957747E-01            NaN
         13   -1    0    0    0    0  0.00000000000E+00  0.00000000000E+00  0.74505805969E-08  0.10566000000E+00  0.10566000000E+00 0. -1.
     999900   -1    0    0    0    0 -0.00000000000E+00 -0.00000000000E+00 -0.74505805969E-08  0.93827000000E+00  0.93827000000E+00 0.  1.
     999902    2    1    2    0    0  0.17128011496E-01  0.15394118875E-01 -0.32009685371E-02  0.10206793253E+01  0.10204144703E+01 0.  0.
     999903    2    3    3    0    0  0.39821517323E-01 -0.16476007703E-01 -0.12290771844E+00  0.13171340575E+00  0.19618917634E-01 0.  0.
         14    1    1    2    0    0 -0.17128011496E-01 -0.15394118875E-01  0.32009685371E-02  0.23250674685E-01  0.00000000000E+00 0.  1.
     999901    1    3    3    0    0 -0.22693505827E-01  0.31870126578E-01  0.11970674991E+00  0.88896591957E+00  0.88000000000E+00 0. -1.
        -11    1    4    4    0    0  0.21359891531E-01 -0.19132691942E-01 -0.73022782738E-01  0.78453124775E-01  0.51100000000E-03 0. -1.
         11    1    4    4    0    0  0.18461625792E-01  0.26566842392E-02 -0.49884935707E-01  0.53260280975E-01  0.51100000000E-03 0.  1.
</event>
<event>
 7    1  0.1064839E+005  0.1043930E+01  0.7957747E-01            NaN
         13   -1    0    0    0    0  0.00000000000E+00  0.00000000000E+00  0.74505805969E-08  0.10566000000E+00  0.10566000000E+00 0. -1.
     999900   -1    0    0    0    0 -0.00000000000E+00 -0.00000000000E+00 -0.74505805969E-08  0.93827000000E+00  0.93827000000E+00 0.  1.
     999903    2    1    2    0    0  0.26147607672E-01  0.47432716203E-01 -0.10049991966E+00  0.11607856752E+00  0.20986663190E-01 0.  0.
         14    1    1    2    0    0  0.91786766385E-02  0.23535734209E-01  0.33214211344E-01  0.41729638445E-01  0.00000000000E+00 0. -1.
     999901    1    1    2    0    0 -0.35326284311E-01 -0.70968450412E-01  0.67285708320E-01  0.88612179403E+00  0.88000000000E+00 0. -1.
        -11    1    3    3    0    0  0.16173147499E-01  0.33957665844E-01 -0.86152756539E-01  0.94006661200E-01  0.51100000000E-03 0. -1.
         11    1    3    3    0    0  0.99744601735E-02  0.13475050359E-01 -0.14347163125E-01  0.22071906321E-01  0.51100000000E-03 0.  1.
</event>
<event>
 8    1  0.1064839E+005  0.1043930E+01  0.7957747E-01            NaN
         13   -1    0    0    0    0  0.00000000000E+00  0.00000000000E+00  0.74505805969E-08  0.10566000000E+00  0.10566000000E+00 0.  1.
     999900   -1    0    0    0    0 -0.00000000000E+00 -0.00000000000E+00 -0.74505805969E-08  0.93827000000E+00  0.93827000000E+00 0.  1.
     999902    2    1    2    0    0 -0.56722245467E-02  0.13759834395E-01  0.18530732372E-01  0.10201624756E+01  0.10198855727E+01 0.  0.
     999903    2    3    3    0    0 -0.11793992681E+00  0.52942258483E-01 -0.56662806552E-02  0.13183551171E+00  0.25214804050E-01 0.  0.
         14    1    1    2    0    0  0.56722245467E-02 -0.13759834395E-01 -0.18530732372E-01  0.23767524400E-01  0.00000000000E+00 0. -1.
     999901    1    3    3    0    0  0.11226770226E+00 -0.39182424088E-01  0.24197013027E-01  0.88832696389E+00  0.88000000000E+00 0.  1.
        -11    1    4    4    0    0 -0.23191033273E-01  0.89495705414E-02 -0.11101412955E-01  0.27229053009E-01  0.51100000000E-03 0. -1.
         11    1    4    4    0    0 -0.94748893535E-01  0.43992687942E-01  0.54351323000E-02  0.10460645870E+00  0.51100000000E-03 0.  1.
</event>
<event>
 8    1  0.1064839E+005  0.1043930E+01  0.7957747E-01            NaN
         13   -1    0    0    0    0  0.00000000000E+00  0.00000000000E+00  0.74505805969E-08  0.10566000000E+00  0.10566000000E+00 0. -1.
     999900   -1    0    0    0    0 -0.00000000000E+00 -0.00000000000E+00 -0.74505805969E-08  0.93827000000E+00  0.93827000000E+00 0. -1.
     999902    2    1    2    0    0 -0.23437514146E-01 -0.53421441857E-02 -0.26604960119E-02  0.10197445950E+01  0.10194577506E+01 0.  0.
     999903    2    3    3    0    0 -0.12784462052E+00 -0.23276440838E-01 -0.22393718584E-01  0.13317148304E+00  0.18631306161E-01 0.  0.
         14    1    1    2    0    0  0.23437514146E-01  0.53421441857E-02  0.26604960119E-02  0.24185404956E-01  0.00000000000E+00 0. -1.
     999901    1    3    3    0    0  0.10440710637E+00  0.17934296652E-01  0.19733222572E-01  0.88657311201E+00  0.88000000000E+00 0. -1.
        -11    1    4    4    0    0 -0.63692135448E-01 -0.53086713497E-02 -0.18011329060E-01  0.66404361340E-01  0.51100000000E-03 0. -1.
         11    1    4    4    0    0 -0.64152485070E-01 -0.17967769488E-01 -0.43823895236E-02  0.66767121699E-01  0.51100000000E-03 0.  1.
</event>
<event>
 8    1  0.1064839E+005  0.1043930E+01  0.7957747E-01            NaN
         13   -1    0    0    0    0  0.00000000000E+00  0.00000000000E+00  0.74505805969E-08  0.10566000000E+00  0.10566000000E+00 0.  1.
     999900   -1    0    0    0    0 -0.00000000000E+00 -0.00000000000E+00 -0.74505805969E-08  0.93827000000E+00  0.93827000000E+00 0. -1.
     999902    2    1    2    0    0 -0.19394525963E-01  0.11335311575E-01  0.35405303070E-02  0.10211885779E+01  0.10209353257E+01 0.  0.
     999903    2    3    3    0    0  0.36642282229E-01 -0.95778962012E-01  0.76887072336E-01  0.12990113450E+00  0.21128569290E-01 0.  0.
         14    1    1    2    0    0  0.19394525963E-01 -0.11335311575E-01 -0.35405303070E-02  0.22741422135E-01  0.00000000000E+00 0. -1.
     999901    1    3    3    0    0 -0.56036808192E-01  0.10711427359E+00 -0.73346542029E-01  0.89128744337E+00  0.88000000000E+00 0. -1.
        -11    1    4    4    0    0  0.20099283398E-01 -0.39263919852E-01  0.44652241474E-01  0.62767191947E-01  0.51100000000E-03 0. -1.
         11    1    4    4    0    0  0.16542998831E-01 -0.56515042159E-01  0.32234830862E-01  0.67133942550E-01  0.51100000000E-03 0.  1.
</event>
<event>
 8    1  0.1064839E+005  0.1043930E+01  0.7957747E-01            NaN
         13   -1    0    0    0    0  0.00000000000E+00  0.00000000000E+00  0.74505805969E-08  0.10566000000E+00  0.10566000000E+00 0. -1.
     999900   -1    0    0    0    0 -0.00000000000E+00 -0.00000000000E+00 -0.74505805969E-08  0.93827000000E+00  0.93827000000E+00 0. -1.
     999902    2    1    2    0    0  0.44781100160E-02 -0.12191692413E-01 -0.19018529238E-01  0.10208996876E+01  0.10206398860E+01 0.  0.
     999903    2    3    3    0    0  0.60560008127E-01  0.48391960374E-01  0.10098074114E+00  0.12892693964E+00  0.20389930598E-01 0.  0.
         14    1    1    2    0    0 -0.44781100160E-02  0.12191692413E-01  0.19018529238E-01  0.23030312365E-01  0.00000000000E+00 0. -1.
     999901    1    3    3    0    0 -0.56081898111E-01 -0.60583652787E-01 -0.11999927038E+00  0.89197274800E+00  0.88000000000E+00 0. -1.
        -11    1    4    4    0    0  0.10273738170E-01  0.31014826050E-02  0.60134350579E-02  0.12312246445E-01  0.51100000000E-03 0. -1.
         11    1    4    4    0    0  0.50286269958E-01  0.45290477768E-01  0.94967306082E-01  0.11661469319E+00  0.51100000000E-03 0.  1.
</event>
<event>
 8    1  0.1064839E+005  0.1043930E+01  0.7957747E-01            NaN
         13   -1    0    0    0    0  0.00000000000E+00  0.00000000000E+00  0.74505805969E-08  0.10566000000E+00  0.10566000000E+00 0. -1.
     999900   -1    0    0    0    0 -0.00000000000E+00 -0.00000000000E+00 -0.74505805969E-08  0.93827000000E+00  0.93827000000E+00 0. -1.
     999902    2    1    2    0    0  0.20176959925E-01  0.11215953876E-01 -0.25581289898E-04  0.10208452001E+01  0.10205841536E+01 0.  0.
     999903    2    3    3    0    0 -0.87197001739E-01  0.34522192852E-01 -0.87690294035E-01  0.12969007874E+00  0.18298359071E-01 0.  0.
         14    1    1    2    0    0 -0.20176959925E-01 -0.11215953876E-01  0.25581289898E-04  0.23084799924E-01  0.00000000000E+00 0.  1.
     999901    1    3    3    0    0  0.10737396166E+00 -0.23306238976E-01  0.87664712745E-01  0.89115512133E+00  0.88000000000E+00 0.  1.
        -11    1    4    4    0    0 -0.10928389548E-01  0.11502894660E-01 -0.13968034659E-01  0.21145056087E-01  0.51100000000E-03 0. -1.
         11    1    4    4    0    0 -0.76268612191E-01  0.23019298192E-01 -0.73722259376E-01  0.10854502266E+00  0.51100000000E-03 0.  1.
</event>
<event>
 7    1  0.1064839E+005  0.1043930E+01  0.7957747E-01            NaN
         13   -1    0    0    0    0  0.00000000000E+00  0.00000000000E+00  0.74505805969E-08  0.10566000000E+00  0.10566000000E+00 0. -1.
     999900   -1    0    0    0    0 -0.00000000000E+00 -0.00000000000E+00 -0.74505805969E-08  0.93827000000E+00  0.93827000000E+00 0. -1.
     999902    2    1    2    0    0  0.18716134126E-01  0.90737337281E-02  0.10688037998E-01  0.10205449519E+01  0.10202769910E+01 0.  0.
         14    1    1    2    0    0 -0.18716134126E-01 -0.90737337281E-02 -0.10688037998E-01  0.23385048142E-01  0.00000000000E+00 0.  1.
     999901    1    3    3    0    0 -0.91793173120E-01 -0.85220356522E-02 -0.62160637363E-01  0.88699636784E+00  0.88000000000E+00 0.  1.
        -11    1    3    3    0    0  0.75639626487E-01  0.12739517127E-01  0.48970897496E-01  0.91005814728E-01  0.51100000000E-03 0. -1.
         11    1    3    3    0    0  0.34869680759E-01  0.48562522537E-02  0.23877777864E-01  0.42542769290E-01  0.51100000000E-03 0.  1.
</event>
<event>
 8    1  0.1064839E+005  0.1043930E+01  0.7957747E-01            NaN
         13   -1    0    0    0    0  0.00000000000E+00  0.00000000000E+00  0.74505805969E-08  0.10566000000E+00  0.10566000000E+00 0. -1.
     999900   -1    0    0    0    0 -0.00000000000E+00 -0.00000000000E+00 -0.74505805969E-08  0.93827000000E+00  0.93827000000E+00 0.  1.
     999902    2    1    2    0    0  0.16165912969E-01 -0.17080368659E-01  0.77355793102E-03  0.10203997189E+01  0.10201283803E+01 0.  0.
     999903    2    3    3    0    0 -0.12330928649E+00 -0.28321175191E-01  0.17177602347E-01  0.12919335692E+00  0.19712543020E-01 0.  0.
         14    1    1    2    0    0 -0.16165912969E-01  0.17080368659E-01 -0.77355793102E-03  0.23530281076E-01  0.00000000000E+00 0. -1.
     999901    1    3    3    0    0  0.13947519946E+00  0.11240806532E-01 -0.16404044416E-01  0.89120636200E+00  0.88000000000E+00 0.  1.
        -11    1    4    4    0    0 -0.31949545106E-01 -0.11844692753E-01  0.12300660175E-01  0.36230340058E-01  0.51100000000E-03 0.  1.
         11    1    4    4    0    0 -0.91359741383E-01 -0.16476482438E-01  0.48769421720E-02  0.92963016867E-01  0.51100000000E-03 0. -1.
</event>
<event>
 8    1  0.1064839E+005  0.1043930E+01  0.7957747E-01            NaN
         13   -1    0    0    0    0  0.00000000000E+00  0.00000000000E+00  0.74505805969E-08  0.10566000000E+00  0.10566000000E+00 0.  1.
     999900   -1    0    0    0    0 -0.00000000000E+00 -0.00000000000E+00 -0.74505805969E-08  0.93827000000E+00  0.93827000000E+00 0.  1.
     999902    2    1    2    0    0 -0.21295976033E-02 -0.23124596212E-01 -0.39303600379E-02  0.10203772960E+01  0.10201054339E+01 0.  0.
     999903    2    3    3    0    0  0.12361582627E-01  0.15037062342E-01 -0.12775554559E+00  0.13077121291E+00  0.20017710326E-01 0.  0.
         14    1    1    2    0    0  0.21295976033E-02  0.23124596212E-01  0.39303600379E-02  0.23552704005E-01  0.00000000000E+00 0.  1.
     999901    1    3    3    0    0 -0.14491180231E-01 -0.38161658554E-01  0.12382518555E+00  0.88960608309E+00  0.88000000000E+00 0. -1.
        -11    1    4    4    0    0  0.10390647937E-01  0.12334311014E-01 -0.42678911804E-01  0.45627310095E-01  0.51100000000E-03 0. -1.
         11    1    4    4    0    0  0.19709346900E-02  0.27027513274E-02 -0.85076633789E-01  0.85143902812E-01  0.51100000000E-03 0.  1.
</event>
<event>
 8    1  0.1064839E+005  0.1043930E+01  0.7957747E-01            NaN
         13   -1    0    0    0    0  0.00000000000E+00  0.00000000000E+00  0.74505805969E-08  0.10566000000E+00  0.10566000000E+00 0.  1.
     999900   -1    0    0    0    0 -0.00000000000E+00 -0.00000000000E+00 -0.74505805969E-08  0.93827000000E+00  0.93827000000E+00 0. -1.
     999902    2    1    2    0    0 -0.19177696365E-04 -0.12310470079E-01  0.20053260704E-01  0.10203995664E+01  0.10201282242E+01 0.  0.
     999903    2    3    3    0    0 -0.49428477297E-01 -0.30033569794E-01 -0.11333152388E+00  0.12880162566E+00  0.20015863311E-01 0.  0.
         14    1    1    2    0    0  0.19177696365E-04  0.12310470079E-01 -0.20053260704E-01  0.23530433617E-01  0.00000000000E+00 0. -1.
     999901    1    3    3    0    0  0.49409299601E-01  0.17723099715E-01  0.13338478458E+00  0.89159794073E+00  0.88000000000E+00 0.  1.
        -11    1    4    4    0    0 -0.25519788050E-01 -0.18002016873E-01 -0.40091264349E-01  0.50822266692E-01  0.51100000000E-03 0. -1.
         11    1    4    4    0    0 -0.23908689247E-01 -0.12031552921E-01 -0.73240259531E-01  0.77979358964E-01  0.51100000000E-03 0.  1.
</event>
<event>
 8    1  0.1064839E+005  0.1043930E+01  0.7957747E-01            NaN
         13   -1    0    0    0    0  0.00000000000E+00  0.00000000000E+00  0.74505805969E-08  0.10566000000E+00  0.10566000000E+00 0. -1.
     999900   -1    0    0    0    0 -0.00000000000E+00 -0.00000000000E+00 -0.74505805969E-08  0.93827000000E+00  0.93827000000E+00 0.  1.
     999902    2    1    2    0    0  0.56740542762E-02 -0.15989642096E-01  0.16925546475E-01  0.10199646569E+01  0.10196830702E+01 0.  0.
     999903    2    3    3    0    0  0.12203540389E+00  0.15989154856E-01  0.41369567712E-01  0.13139270297E+00  0.20107421190E-01 0.  0.
         14    1    1    2    0    0 -0.56740542762E-02  0.15989642096E-01 -0.16925546475E-01  0.23965343097E-01  0.00000000000E+00 0.  1.
     999901    1    3    3    0    0 -0.11636134961E+00 -0.31978796952E-01 -0.24444021238E-01  0.88857195393E+00  0.88000000000E+00 0. -1.
        -11    1    4    4    0    0  0.13344966933E-01 -0.26482812870E-02  0.12489710668E-04  0.13614801255E-01  0.51100000000E-03 0. -1.
         11    1    4    4    0    0  0.10869043695E+00  0.18637436143E-01  0.41357078002E-01  0.11777790172E+00  0.51100000000E-03 0.  1.
</event>
<event>
 8    1  0.1064839E+005  0.1043930E+01  0.7957747E-01            NaN
         13   -1    0    0    0    0  0.00000000000E+00  0.00000000000E+00  0.74505805969E-08  0.10566000000E+00  0.10566000000E+00 0. -1.
     999900   -1    0    0    0    0 -0.00000000000E+00 -0.00000000000E+00 -0.74505805969E-08  0.93827000000E+00  0.93827000000E+00 0.  1.
     999902    2    1    2    0    0  0.60321446568E-02 -0.22039428036E-01  0.55788284626E-02  0.10204088078E+01  0.10201376811E+01 0.  0.
     999903    2    3    3    0    0 -0.98808200588E-01  0.58648221360E-01 -0.53805599297E-01  0.12854082144E+00  0.20616156040E-01 0.  0.
         14    1    1    2    0    0 -0.60321446568E-02  0.22039428036E-01 -0.55788284626E-02  0.23521192239E-01  0.00000000000E+00 0.  1.
     999901    1    3    3    0    0  0.10484034524E+00 -0.80687649396E-01  0.59384427759E-01  0.89186798632E+00  0.88000000000E+00 0. -1.
        -11    1    4    4    0    0 -0.62138404024E-01  0.28896172620E-01 -0.39955193295E-01  0.79327477201E-01  0.51100000000E-03 0. -1.
         11    1    4    4    0    0 -0.36669796564E-01  0.29752048741E-01 -0.13850406001E-01  0.49213344244E-01  0.51100000000E-03 0.  1.
</event>
<event>
 8    1  0.1064839E+005  0.1043930E+01  0.7957747E-01            NaN
         13   -1    0    0    0    0  0.00000000000E+00  0.00000000000E+00  0.74505805969E-08  0.10566000000E+00  0.10566000000E+00 0.  1.
     999900   -1    0    0    0    0 -0.00000000000E+00 -0.00000000000E+00 -0.74505805969E-08  0.93827000000E+00  0.93827000000E+00 0. -1.
     999902    2    1    2    0    0  0.85289276649E-02 -0.22609394000E-01  0.14711233031E-02  0.10197206731E+01  0.10194332542E+01 0.  0.
     999903    2    3    3    0    0  0.26068003934E-01 -0.58844544659E-01  0.11302613241E+00  0.13176508561E+00  0.21092887730E-01 0.  0.
         14    1    1    2    0    0 -0.85289276649E-02  0.22609394000E-01 -0.14711233031E-02  0.24209326879E-01  0.00000000000E+00 0.  1.
     999901    1    3    3    0    0 -0.17539076269E-01  0.36235150659E-01 -0.11155500911E+00  0.88795558751E+00  0.88000000000E+00 0. -1.
        -11    1    4    4    0    0  0.13226579583E-02 -0.27344503863E-01  0.51925532674E-01  0.58702584100E-01  0.51100000000E-03 0. -1.
         11    1    4    4    0    0  0.24745345976E-01 -0.31500040796E-01  0.61100599735E-01  0.73062501508E-01  0.51100000000E-03 0.  1.
</event>
<event>
 8    1  0.1064839E+005  0.1043930E+01  0.7957747E-01            NaN
         13   -1    0    0    0    0  0.00000000000E+00  0.00000000000E+00  0.74505805969E-08  0.10566000000E+00  0.10566000000E+00 0.  1.
     999900   -1    0    0    0    0 -0.00000000000E+00 -0.00000000000E+00 -0.74505805969E-08  0.93827000000E+00  0.93827000000E+00 0. -1.
     999902    2    1    2    0    0 -0.15835269480E-01  0.14934795861E-01 -0.69861334243E-02  0.10210693362E+01  0.10208133911E+01 0.  0.
     999903    2    3    3    0    0  0.27285284508E-01 -0.12381524978E+00 -0.12340546075E-01  0.12913905474E+00  0.21210930032E-01 0.  0.
         14    1    1    2    0    0  0.15835269480E-01 -0.14934795861E-01  0.69861334243E-02  0.22860663751E-01  0.00000000000E+00 0.  1.
     999901    1    3    3    0    0 -0.43120553988E-01  0.13875004564E+00  0.53544126511E-02  0.89193028151E+00  0.88000000000E+00 0.  1.
        -11    1    4    4    0    0  0.14722497431E-01 -0.25859742191E-01 -0.39872853907E-02  0.30027283637E-01  0.51100000000E-03 0.  1.
         11    1    4    4    0    0  0.12562787077E-01 -0.97955507587E-01 -0.83532606847E-02  0.99111771101E-01  0.51100000000E-03 0. -1.
</event>
<event>
 8    1  0.1064839E+005  0.1043930E+01  0.7957747E-01            NaN
         13   -1    0    0    0    0  0.00000000000E+00  0.00000000000E+00  0.74505805969E-08  0.10566000000E+00  0.10566000000E+00 0. -1.
     999900   -1    0    0    0    0 -0.00000000000E+00 -0.00000000000E+00 -0.74505805969E-08  0.93827000000E+00  0.93827000000E+00 0.  1.
     999902    2    1    2    0    0 -0.36210973329E-02 -0.42675678003E-03  0.23121437295E-01  0.10205228359E+01  0.10202543621E+01 0.  0.
     999903    2    3    3    0    0  0.43007156144E-01 -0.12163075589E+00 -0.52570201534E-02  0.13053972358E+00  0.19217880020E-01 0.  0.
         14    1    1    2    0    0  0.36210973329E-02  0.42675678003E-03 -0.23121437295E-01  0.23407164071E-01  0.00000000000E+00 0.  1.
     999901    1    3    3    0    0 -0.46628253477E-01  0.12120399911E+00  0.28378457449E-01  0.88998311235E+00  0.88000000000E+00 0. -1.
        -11    1    4    4    0    0  0.34012010774E-01 -0.10442084424E+00  0.18987274303E-02  0.10983804385E+00  0.51100000000E-03 0. -1.
         11    1    4    4    0    0  0.89951453699E-02 -0.17209911648E-01 -0.71557475837E-02  0.20701679730E-01  0.51100000000E-03 0.  1.
</event>
<event>
 8    1  0.1064839E+005  0.1043930E+01  0.7957747E-01            NaN
         13   -1    0    0    0    0  0.00000000000E+00  0.00000000000E+00  0.74505805969E-08  0.10566000000E+00  0.10566000000E+00 0. -1.
     999900   -1    0    0    0    0 -0.00000000000E+00 -0.00000000000E+00 -0.74505805969E-08  0.93827000000E+00  0.93827000000E+00 0.  1.
     999902    2    1    2    0    0 -0.88820639876E-04  0.22257037412E-01 -0.85343846541E-02  0.10200926485E+01  0.10198140969E+01 0.  0.
     999903    2    3    3    0    0  0.28223273749E-01 -0.10797614521E+00  0.58253771621E-01  0.12755530233E+00  0.20529299292E-01 0.  0.
         14    1    1    2    0    0  0.88820639876E-04 -0.22257037412E-01  0.85343846541E-02  0.23837351466E-01  0.00000000000E+00 0. -1.
     999901    1    3    3    0    0 -0.28312094389E-01  0.13023318262E+00 -0.66788156275E-01  0.89253734620E+00  0.88000000000E+00 0.  1.
        -11    1    4    4    0    0  0.23811244755E-01 -0.51136544439E-01  0.27032362173E-01  0.62553427400E-01  0.51100000000E-03 0.  1.
         11    1    4    4    0    0  0.44120289942E-02 -0.56839600772E-01  0.31221409449E-01  0.65001874933E-01  0.51100000000E-03 0. -1.
</event>
<event>
 8    1  0.1064839E+005  0.1043930E+01  0.7957747E-01            NaN
         13   -1    0    0    0    0  0.00000000000E+00  0.00000000000E+00  0.74505805969E-08  0.10566000000E+00  0.10566000000E+00 0.  1.
     999900   -1    0    0    0    0 -0.00000000000E+00 -0.00000000000E+00 -0.74505805969E-08  0.93827000000E+00  0.93827000000E+00 0. -1.
     999902    2    1    2    0    0 -0.17152567921E-01  0.16540124413E-01  0.19936393740E-02  0.10200184777E+01  0.10197381693E+01 0.  0.
     999903    2    3    3    0    0 -0.66496893109E-01  0.50703175768E-01  0.10080992574E+00  0.13245629115E+00  0.19732691401E-01 0.  0.
         14    1    1    2    0    0  0.17152567921E-01 -0.16540124413E-01 -0.19936393740E-02  0.23911522324E-01  0.00000000000E+00 0. -1.
     999901    1    3    3    0    0  0.49344325188E-01 -0.34163051355E-01 -0.98816286368E-01  0.88756218653E+00  0.88000000000E+00 0. -1.
        -11    1    4    4    0    0 -0.42849791120E-01  0.22095535836E-01  0.49215195857E-01  0.68896399958E-01  0.51100000000E-03 0.  1.
         11    1    4    4    0    0 -0.23647101989E-01  0.28607639932E-01  0.51594729885E-01  0.63559891188E-01  0.51100000000E-03 0. -1.
</event>
<event>
 8    1  0.1064839E+005  0.1043930E+01  0.7957747E-01            NaN
         13   -1    0    0    0    0  0.00000000000E+00  0.00000000000E+00  0.74505805969E-08  0.10566000000E+00  0.10566000000E+00 0.  1.
     999900   -1    0    0    0    0 -0.00000000000E+00 -0.00000000000E+00 -0.74505805969E-08  0.93827000000E+00  0.93827000000E+00 0.  1.
     999902    2    1    2    0    0  0.14540454185E-01 -0.14330905262E-01  0.12042626901E-01  0.10202271623E+01  0.10199517823E+01 0.  0.
     999903    2    3    3    0    0 -0.10372210518E+00 -0.11430665632E-01  0.74944299963E-01  0.13008612580E+00  0.20416091910E-01 0.  0.
         14    1    1    2    0    0 -0.14540454185E-01  0.14330905262E-01 -0.12042626901E-01  0.23702837725E-01  0.00000000000E+00 0. -1.
     999901    1    3    3    0    0  0.11826255937E+00 -0.29002396298E-02 -0.62901673062E-01  0.89014103647E+00  0.88000000000E+00 0.  1.
        -11    1    4    4    0    0 -0.72803457615E-01 -0.17348622283E-01  0.52529713108E-01  0.91438230604E-01  0.51100000000E-03 0.  1.
         11    1    4    4    0    0 -0.30918647569E-01  0.59179566507E-02  0.22414586854E-01  0.38647895198E-01  0.51100000000E-03 0. -1.
</event>
<event>
 8    1  0.1064839E+005  0.1043930E+01  0.7957747E-01            NaN
         13   -1    0    0    0    0  0.00000000000E+00  0.00000000000E+00  0.74505805969E-08  0.10566000000E+00  0.10566000000E+00 0.  1.
     999900   -1    0    0    0    0 -0.00000000000E+00 -0.00000000000E+00 -0.74505805969E-08  0.93827000000E+00  0.93827000000E+00 0.  1.
     999902    2    1    2    0    0  0.20410356835E-01  0.83553794714E-03  0.11325393488E-01  0.10205730882E+01  0.10203057792E+01 0.  0.
     999903    2    3    3    0    0  0.61224743954E-01  0.54195226852E-01  0.10326504676E+00  0.13323664108E+00  0.20068401979E-01 0.  0.
         14    1    1    2    0    0 -0.20410356835E-01 -0.83553794714E-03 -0.11325393488E-01  0.23356911771E-01  0.00000000000E+00 0. -1.
     999901    1    3    3    0    0 -0.40814387119E-01 -0.53359688905E-01 -0.91939653273E-01  0.88733644715E+00  0.88000000000E+00 0.  1.
        -11    1    4    4    0    0  0.52679066914E-01  0.46822209013E-01  0.75627191909E-01  0.10337860816E+00  0.51100000000E-03 0. -1.
         11    1    4    4    0    0  0.85456770404E-02  0.73730178388E-02  0.27637854851E-01  0.29858032921E-01  0.51100000000E-03 0.  1.
</event>
<event>
 8    1  0.1064839E+005  0.1043930E+01  0.7957747E-01            NaN
         13   -1    0    0    0    0  0.00000000000E+00  0.00000000000E+00  0.74505805969E-08  0.10566000000E+00  0.10566000000E+00 0. -1.
     999900   -1    0    0    0    0 -0.00000000000E+00 -0.00000000000E+00 -0.74505805969E-08  0.93827000000E+00  0.93827000000E+00 0. -1.
     999902    2    1    2    0    0 -0.16951406697E-01 -0.12100367597E-01 -0.24822986012E-01  0.10115270724E+01  0.10110079468E+01 0.  0.
     999903    2    3    3    0    0 -0.27024291704E-01  0.18453791580E-01  0.11389513829E+00  0.12008008142E+00  0.19397645728E-01 0.  0.
         14    1    1    2    0    0  0.16951406697E-01  0.12100367597E-01  0.24822986012E-01  0.32402927639E-01  0.00000000000E+00 0. -1.
     999901    1    3    3    0    0  0.10072885007E-01 -0.30554159176E-01 -0.13871812431E+00  0.89144699095E+00  0.88000000000E+00 0. -1.
        -11    1    4    4    0    0 -0.60943444895E-02  0.12271896920E-01  0.66505907953E-01  0.67904619890E-01  0.51100000000E-03 0.  1.
         11    1    4    4    0    0 -0.20929947215E-01  0.61818946600E-02  0.47389230341E-01  0.52175461525E-01  0.51100000000E-03 0. -1.
</event>
<event>
 8    1  0.1064839E+005  0.1043930E+01  0.7957747E-01            NaN
         13   -1    0    0    0    0  0.00000000000E+00  0.00000000000E+00  0.74505805969E-08  0.10566000000E+00  0.10566000000E+00 0. -1.
     999900   -1    0    0    0    0 -0.00000000000E+00 -0.00000000000E+00 -0.74505805969E-08  0.93827000000E+00  0.93827000000E+00 0.  1.
     999902    2    1    2    0    0  0.13749909776E-01 -0.13248067684E-01 -0.14456711895E-01  0.10199807237E+01  0.10196995189E+01 0.  0.
     999903    2    3    3    0    0 -0.14495365873E-01  0.48376685318E-01  0.11579849968E+00  0.12781379654E+00  0.19407594999E-01 0.  0.
         14    1    1    2    0    0 -0.13749909776E-01  0.13248067684E-01  0.14456711895E-01  0.23949276295E-01  0.00000000000E+00 0. -1.
     999901    1    3    3    0    0  0.28245275649E-01 -0.61624753003E-01 -0.13025521158E+00  0.89216692716E+00  0.88000000000E+00 0.  1.
        -11    1    4    4    0    0 -0.92866663086E-02  0.45272162436E-01  0.88457674212E-01  0.99803968412E-01  0.51100000000E-03 0.  1.
         11    1    4    4    0    0 -0.52086995640E-02  0.31045228821E-02  0.27340825471E-01  0.28009828131E-01  0.51100000000E-03 0. -1.
</event>
<event>
 8    1  0.1064839E+005  0.1043930E+01  0.7957747E-01            NaN
         13   -1    0    0    0    0  0.00000000000E+00  0.00000000000E+00  0.74505805969E-08  0.10566000000E+00  0.10566000000E+00 0. -1.
     999900   -1    0    0    0    0 -0.00000000000E+00 -0.00000000000E+00 -0.74505805969E-08  0.93827000000E+00  0.93827000000E+00 0. -1.
     999902    2    1    2    0    0 -0.23917273177E-02  0.21408327382E-01  0.95019046095E-02  0.10203859342E+01  0.10201142739E+01 0.  0.
     999903    2    3    3    0    0 -0.33283895736E-01  0.90749182904E-01  0.90927552015E-01  0.13337262185E+00  0.13311822984E-01 0.  0.
         14    1    1    2    0    0  0.23917273177E-02 -0.21408327382E-01 -0.95019046095E-02  0.23544065751E-01  0.00000000000E+00 0. -1.
     999901    1    3    3    0    0  0.30892168418E-01 -0.69340855522E-01 -0.81425647406E-01  0.88701331240E+00  0.88000000000E+00 0.  1.
        -11    1    4    4    0    0 -0.90269939620E-02  0.28384182784E-01  0.20123379561E-01  0.35949408594E-01  0.51100000000E-03 0. -1.
         11    1    4    4    0    0 -0.24256901774E-01  0.62365000121E-01  0.70804172454E-01  0.97423213258E-01  0.51100000000E-03 0.  1.
</event>
<event>
 8    1  0.1064839E+005  0.1043930E+01  0.7957747E-01            NaN
         13   -1    0    0    0    0  0.00000000000E+00  0.00000000000E+00  0.74505805969E-08  0.10566000000E+00  0.10566000000E+00 0.  1.
     999900   -1    0    0    0    0 -0.00000000000E+00 -0.00000000000E+00 -0.74505805969E-08  0.93827000000E+00  0.93827000000E+00 0. -1.
     999902    2    1    2    0    0 -0.95398534743E-02 -0.18000940612E-01  0.80385286031E-02  0.10220288446E+01  0.10217941566E+01 0.  0.
     999903    2    3    3    0    0 -0.32090328012E-01 -0.12861303293E+00  0.14218362642E-01  0.13479620922E+00  0.19918704621E-01 0.  0.
         14    1    1    2    0    0  0.95398534743E-02  0.18000940612E-01 -0.80385286031E-02  0.21901155434E-01  0.00000000000E+00 0.  1.
     999901    1    3    3    0    0  0.22550474538E-01  0.11061209232E+00 -0.61798340389E-02  0.88723263534E+00  0.88000000000E+00 0. -1.
        -11    1    4    4    0    0 -0.21681513874E-01 -0.80325302401E-01 -0.66197012397E-03  0.83204216090E-01  0.51100000000E-03 0. -1.
         11    1    4    4    0    0 -0.10408814138E-01 -0.48287730527E-01  0.14880332766E-01  0.51591993133E-01  0.51100000000E-03 0.  1.
</event>
<event>
 8    1  0.1064839E+005  0.1043930E+01  0.7957747E-01            NaN
         13   -1    0    0    0    0  0.00000000000E+00  0.00000000000E+00  0.74505805969E-08  0.10566000000E+00  0.10566000000E+00 0.  1.
     999900   -1    0    0    0    0 -0.00000000000E+00 -0.00000000000E+00 -0.74505805969E-08  0.93827000000E+00  0.93827000000E+00 0.  1.
     999902    2    1    2    0    0  0.25662446249E-02 -0.25129911852E-01 -0.81370905083E-02  0.10173911545E+01  0.10170449601E+01 0.  0.
     999903    2    3    3    0    0  0.48052587558E-01 -0.10780837989E+00 -0.53745216115E-01  0.13117174731E+00  0.19641310822E-01 0.  0.
         14    1    1    2    0    0 -0.25662446249E-02  0.25129911852E-01  0.81370905083E-02  0.26538845550E-01  0.00000000000E+00 0. -1.
     999901    1    3    3    0    0 -0.45486342934E-01  0.82678468041E-01  0.45608125607E-01  0.88621940714E+00  0.88000000000E+00 0.  1.
        -11    1    4    4    0    0  0.19056652627E-01 -0.57199403688E-01 -0.35911958637E-01  0.70177330284E-01  0.51100000000E-03 0. -1.
         11    1    4    4    0    0  0.28995934931E-01 -0.50608976205E-01 -0.17833257478E-01  0.60994417026E-01  0.51100000000E-03 0.  1.
</event>
<event>
 8    1  0.1064839E+005  0.1043930E+01  0.7957747E-01            NaN
         13   -1    0    0    0    0  0.00000000000E+00  0.00000000000E+00  0.74505805969E-08  0.10566000000E+00  0.10566000000E+00 0. -1.
     999900   -1    0    0    0    0 -0.00000000000E+00 -0.00000000000E+00 -0.74505805969E-08  0.93827000000E+00  0.93827000000E+00 0. -1.
     999902    2    1    2    0    0 -0.30396633006E-02  0.15519715869E-01 -0.15228007414E-02  0.10280422671E+01  0.10279194924E+01 0.  0.
     999903    2    3    3    0    0 -0.10075787963E+00  0.72110663287E-01 -0.59490858556E-01  0.13893502902E+00  0.20289947537E-01 0.  0.
         14    1    1    2    0    0  0.30396633006E-02 -0.15519715869E-01  0.15228007414E-02  0.15887732869E-01  0.00000000000E+00 0. -1.
     999901    1    3    3    0    0  0.97718216325E-01 -0.56590947418E-01  0.57968057815E-01  0.88910723811E+00  0.88000000000E+00 0. -1.
        -11    1    4    4    0    0 -0.33944714295E-01  0.36273562421E-01 -0.25527864374E-01  0.55856494159E-01  0.51100000000E-03 0. -1.
         11    1    4    4    0    0 -0.66813165331E-01  0.35837100866E-01 -0.33962994181E-01  0.83078534862E-01  0.51100000000E-03 0.  1.
</event>
<event>
 8    1  0.1064839E+005  0.1043930E+01  0.7957747E-01            NaN
         13   -1    0    0    0    0  0.00000000000E+00  0.00000000000E+00  0.74505805969E-08  0.10566000000E+00  0.10566000000E+00 0. -1.
     999900   -1    0    0    0    0 -0.00000000000E+00 -0.00000000000E+00 -0.74505805969E-08  0.93827000000E+00  0.93827000000E+00 0.  1.
     999902    2    1    2    0    0  0.16297198430E-02  0.45301722091E-02 -0.22301254368E-01  0.10211149963E+01  0.10208600841E+01 0.  0.
     999903    2    3    3    0    0  0.45551437105E-01 -0.66664458671E-01  0.98484585592E-01  0.12893395423E+00  0.20141188686E-01 0.  0.
         14    1    1    2    0    0 -0.16297198430E-02 -0.45301722091E-02  0.22301254368E-01  0.22815003690E-01  0.00000000000E+00 0. -1.
     999901    1    3    3    0    0 -0.43921717262E-01  0.71194630880E-01 -0.12078583996E+00  0.89218104208E+00  0.88000000000E+00 0.  1.
        -11    1    4    4    0    0  0.69049409877E-02 -0.24573953656E-01  0.37442356327E-01  0.45318302888E-01  0.51100000000E-03 0.  1.
         11    1    4    4    0    0  0.38646496117E-01 -0.42090505015E-01  0.61042229265E-01  0.83615651341E-01  0.51100000000E-03 0. -1.
</event>
<event>
 8    1  0.1064839E+005  0.1043930E+01  0.7957747E-01            NaN
         13   -1    0    0    0    0  0.00000000000E+00  0.00000000000E+00  0.74505805969E-08  0.10566000000E+00  0.10566000000E+00 0. -1.
     999900   -1    0    0    0    0 -0.00000000000E+00 -0.00000000000E+00 -0.74505805969E-08  0.93827000000E+00  0.93827000000E+00 0.  1.
     999902    2    1    2    0    0 -0.36182706039E-02 -0.23235659542E-01 -0.21475942757E-02  0.10203164463E+01  0.10200431612E+01 0.  0.
     999903    2    3    3    0    0 -0.78816732307E-01  0.33603347983E-01  0.95263133419E-01  0.12993768910E+00  0.21621197328E-01 0.  0.
         14    1    1    2    0    0  0.36182706039E-02  0.23235659542E-01  0.21475942757E-02  0.23613553686E-01  0.00000000000E+00 0.  1.
     999901    1    3    3    0    0  0.75198461703E-01 -0.56839007525E-01 -0.97410727695E-01  0.89037875721E+00  0.88000000000E+00 0.  1.
        -11    1    4    4    0    0 -0.71822917947E-01  0.29633661740E-01  0.74409088997E-01  0.10758094207E+00  0.51100000000E-03 0. -1.
         11    1    4    4    0    0 -0.69938143595E-02  0.39696862430E-02  0.20854044422E-01  0.22356747034E-01  0.51100000000E-03 0.  1.
</event>
<event>
 8    1  0.1064839E+005  0.1043930E+01  0.7957747E-01            NaN
         13   -1    0    0    0    0  0.00000000000E+00  0.00000000000E+00  0.74505805969E-08  0.10566000000E+00  0.10566000000E+00 0.  1.
     999900   -1    0    0    0    0 -0.00000000000E+00 -0.00000000000E+00 -0.74505805969E-08  0.93827000000E+00  0.93827000000E+00 0. -1.
     999902    2    1    2    0    0  0.12768810232E-02  0.11491900326E-01  0.21313208877E-01  0.10196823801E+01  0.10193940402E+01 0.  0.
     999903    2    3    3    0    0  0.10500429132E+00 -0.70519076856E-01  0.20270646066E-01  0.12980246519E+00  0.20950882566E-01 0.  0.
         14    1    1    2    0    0 -0.12768810232E-02 -0.11491900326E-01 -0.21313208877E-01  0.24247619901E-01  0.00000000000E+00 0. -1.
     999901    1    3    3    0    0 -0.10372741030E+00  0.82010977182E-01  0.10425628103E-02  0.88987991491E+00  0.88000000000E+00 0.  1.
        -11    1    4    4    0    0  0.23135115211E-01 -0.24443854487E-01  0.10947416835E-01  0.35395517150E-01  0.51100000000E-03 0.  1.
         11    1    4    4    0    0  0.81869176110E-01 -0.46075222370E-01  0.93232292313E-02  0.94406948037E-01  0.51100000000E-03 0. -1.
</event>
<event>
 8    1  0.1064839E+005  0.1043930E+01  0.7957747E-01            NaN
         13   -1    0    0    0    0  0.00000000000E+00  0.00000000000E+00  0.74505805969E-08  0.10566000000E+00  0.10566000000E+00 0.  1.
     999900   -1    0    0    0    0 -0.00000000000E+00 -0.00000000000E+00 -0.74505805969E-08  0.93827000000E+00  0.93827000000E+00 0.  1.
     999902    2    1    2    0    0 -0.49697047102E-02 -0.13690202196E-01 -0.18833396574E-01  0.10201220932E+01  0.10198442374E+01 0.  0.
     999903    2    3    3    0    0 -0.11157062132E+00 -0.48511966485E-01 -0.48175915821E-01  0.13252010234E+00  0.20958154114E-01 0.  0.
         14    1    1    2    0    0  0.49697047102E-02  0.13690202196E-01  0.18833396574E-01  0.23807906829E-01  0.00000000000E+00 0.  1.
     999901    1    3    3    0    0  0.10660091661E+00  0.34821764289E-01  0.29342519247E-01  0.88760199083E+00  0.88000000000E+00 0.  1.
        -11    1    4    4    0    0 -0.31625621649E-01 -0.86042671892E-02 -0.21756921655E-01  0.39342573879E-01  0.51100000000E-03 0. -1.
         11    1    4    4    0    0 -0.79944999676E-01 -0.39907699296E-01 -0.26418994166E-01  0.93177528460E-01  0.51100000000E-03 0.  1.
</event>
<event>
 8    1  0.1064839E+005  0.1043930E+01  0.7957747E-01            NaN
         13   -1    0    0    0    0  0.00000000000E+00  0.00000000000E+00  0.74505805969E-08  0.10566000000E+00  0.10566000000E+00 0. -1.
     999900   -1    0    0    0    0 -0.00000000000E+00 -0.00000000000E+00 -0.74505805969E-08  0.93827000000E+00  0.93827000000E+00 0. -1.
     999902    2    1    2    0    0  0.15372656762E-01 -0.26341640203E-03 -0.18301253990E-01  0.10200276181E+01  0.10197475265E+01 0.  0.
     999903    2    3    3    0    0  0.36787572137E-01 -0.27394270730E-02 -0.12629498367E+00  0.13316383210E+00  0.20526893396E-01 0.  0.
         14    1    1    2    0    0 -0.15372656762E-01  0.26341640203E-03  0.18301253990E-01  0.23902381926E-01  0.00000000000E+00 0. -1.
     999901    1    3    3    0    0 -0.21414915375E-01  0.24760106709E-02  0.10799372968E+00  0.88686378598E+00  0.88000000000E+00 0.  1.
        -11    1    4    4    0    0  0.10278359062E-01  0.83031765923E-02 -0.33105101919E-01  0.35648229978E-01  0.51100000000E-03 0. -1.
         11    1    4    4    0    0  0.26509213075E-01 -0.11042603665E-01 -0.93189881756E-01  0.97515602117E-01  0.51100000000E-03 0.  1.
</event>
<event>
 8    1  0.1064839E+005  0.1043930E+01  0.7957747E-01            NaN
         13   -1    0    0    0    0  0.00000000000E+00  0.00000000000E+00  0.74505805969E-08  0.10566000000E+00  0.10566000000E+00 0. -1.
     999900   -1    0    0    0    0 -0.00000000000E+00 -0.00000000000E+00 -0.74505805969E-08  0.93827000000E+00  0.93827000000E+00 0.  1.
     999902    2    1    2    0    0  0.97831709432E-02  0.20257414629E-01  0.14927000537E-02  0.10213844587E+01  0.10211355987E+01 0.  0.
     999903    2    3    3    0    0  0.77084657871E-01  0.55668114693E-01  0.91446102397E-01  0.13353592291E+00  0.20699507058E-01 0.  0.
         14    1    1    2    0    0 -0.97831709432E-02 -0.20257414629E-01 -0.14927000537E-02  0.22545541347E-01  0.00000000000E+00 0. -1.
     999901    1    3    3    0    0 -0.67301486927E-01 -0.35410700063E-01 -0.89953402343E-01  0.88784853574E+00  0.88000000000E+00 0.  1.
        -11    1    4    4    0    0  0.47516616668E-01  0.21798834795E-01  0.51638270884E-01  0.73483264754E-01  0.51100000000E-03 0.  1.
         11    1    4    4    0    0  0.29568041203E-01  0.33869279898E-01  0.39807831513E-01  0.60052658160E-01  0.51100000000E-03 0. -1.
</event>
<event>
 8    1  0.1064839E+005  0.1043930E+01  0.7957747E-01            NaN
         13   -1    0    0    0    0  0.00000000000E+00  0.00000000000E+00  0.74505805969E-08  0.10566000000E+00  0.10566000000E+00 0.  1.
     999900   -1    0    0    0    0 -0.00000000000E+00 -0.00000000000E+00 -0.74505805969E-08  0.93827000000E+00  0.93827000000E+00 0.  1.
     999902    2    1    2    0    0 -0.20492081307E-01 -0.94510622883E-02 -0.54679777265E-02  0.10207104661E+01  0.10204463282E+01 0.  0.
     999903    2    3    3    0    0 -0.47710573892E-01  0.51645084156E-01 -0.10995317930E+00  0.13200874853E+00  0.19826610188E-01 0.  0.
         14    1    1    2    0    0  0.20492081307E-01  0.94510622883E-02  0.54679777265E-02  0.23219533912E-01  0.00000000000E+00 0.  1.
     999901    1    3    3    0    0  0.27218492585E-01 -0.61096146445E-01  0.10448520157E+00  0.88870171756E+00  0.88000000000E+00 0. -1.
        -11    1    4    4    0    0 -0.42874449986E-01  0.36504888809E-01 -0.93342388116E-01  0.10901324648E+00  0.51100000000E-03 0.  1.
         11    1    4    4    0    0 -0.48361239059E-02  0.15140195348E-01 -0.16610791181E-01  0.22995502044E-01  0.51100000000E-03 0. -1.
</event>
<event>
 8    1  0.1064839E+005  0.1043930E+01  0.7957747E-01            NaN
         13   -1    0    0    0    0  0.00000000000E+00  0.00000000000E+00  0.74505805969E-08  0.10566000000E+00  0.10566000000E+00 0. -1.
     999900   -1    0    0    0    0 -0.00000000000E+00 -0.00000000000E+00 -0.74505805969E-08  0.93827000000E+00  0.93827000000E+00 0. -1.
     999902    2    1    2    0    0 -0.18181764179E-01  0.12926470694E-01  0.84659084523E-02  0.10200691157E+01  0.10197900073E+01 0.  0.
     999903    2    3    3    0    0 -0.93425883743E-01 -0.88153995075E-01 -0.14658739333E-01  0.13079205684E+00  0.19803052630E-01 0.  0.
         14    1    1    2    0    0  0.18181764179E-01 -0.12926470694E-01 -0.84659084523E-02  0.23860884292E-01  0.00000000000E+00 0. -1.
     999901    1    3    3    0    0  0.75244119564E-01  0.10108046577E+00  0.23124647785E-01  0.88927705887E+00  0.88000000000E+00 0. -1.
        -11    1    4    4    0    0 -0.51972040897E-01 -0.48745807407E-01 -0.18003072930E-01  0.73495704165E-01  0.51100000000E-03 0. -1.
         11    1    4    4    0    0 -0.41453842846E-01 -0.39408187668E-01  0.33443335973E-02  0.57296352678E-01  0.51100000000E-03 0.  1.
</event>
<event>
 8    1  0.1064839E+005  0.1043930E+01  0.7957747E-01            NaN
         13   -1    0    0    0    0  0.00000000000E+00  0.00000000000E+00  0.74505805969E-08  0.10566000000E+00  0.10566000000E+00 0.  1.
     999900   -1    0    0    0    0 -0.00000000000E+00 -0.00000000000E+00 -0.74505805969E-08  0.93827000000E+00  0.93827000000E+00 0. -1.
     999902    2    1    2    0    0  0.11989175668E-01  0.10607829899E-01 -0.17949910779E-01  0.10198786864E+01  0.10195950516E+01 0.  0.
     999903    2    3    3    0    0  0.12801580385E+00 -0.21932693654E-01  0.24819566220E-03  0.13147999483E+00  0.20441094735E-01 0.  0.
         14    1    1    2    0    0 -0.11989175668E-01 -0.10607829899E-01  0.17949910779E-01  0.24051313589E-01  0.00000000000E+00 0.  1.
     999901    1    3    3    0    0 -0.11602662818E+00  0.32540523553E-01 -0.18198106441E-01  0.88839869158E+00  0.88000000000E+00 0. -1.
        -11    1    4    4    0    0  0.43102258130E-01  0.63216537574E-05 -0.61578994793E-02  0.43542916104E-01  0.51100000000E-03 0.  1.
         11    1    4    4    0    0  0.84913545720E-01 -0.21939015308E-01  0.64060951415E-02  0.87937078729E-01  0.51100000000E-03 0. -1.
</event>
<event>
 8    1  0.1064839E+005  0.1043930E+01  0.7957747E-01            NaN
         13   -1    0    0    0    0  0.00000000000E+00  0.00000000000E+00  0.74505805969E-08  0.10566000000E+00  0.10566000000E+00 0. -1.
     999900   -1    0    0    0    0 -0.00000000000E+00 -0.00000000000E+00 -0.74505805969E-08  0.93827000000E+00  0.93827000000E+00 0. -1.
     999902    2    1    2    0    0 -0.11336990766E-01 -0.25066573898E-01  0.18345188703E-03  0.10164182908E+01  0.10160458886E+01 0.  0.
     999903    2    3    3    0    0  0.10231971070E+00 -0.43562361230E-01 -0.58163855318E-01  0.12700030800E+00  0.19468992073E-01 0.  0.
         14    1    1    2    0    0  0.11336990766E-01  0.25066573898E-01 -0.18345188703E-03  0.27511709165E-01  0.00000000000E+00 0. -1.
     999901    1    3    3    0    0 -0.11365670147E+00  0.18495787332E-01  0.58347307205E-01  0.88941798284E+00  0.88000000000E+00 0.  1.
        -11    1    4    4    0    0  0.49671215691E-01 -0.29505994443E-01 -0.36603341343E-01  0.68395168651E-01  0.51100000000E-03 0.  1.
         11    1    4    4    0    0  0.52648495009E-01 -0.14056366786E-01 -0.21560513975E-01  0.58605139346E-01  0.51100000000E-03 0. -1.
</event>
<event>
 8    1  0.1064839E+005  0.1043930E+01  0.7957747E-01            NaN
         13   -1    0    0    0    0  0.00000000000E+00  0.00000000000E+00  0.74505805969E-08  0.10566000000E+00  0.10566000000E+00 0. -1.
     999900   -1    0    0    0    0 -0.00000000000E+00 -0.00000000000E+00 -0.74505805969E-08  0.93827000000E+00  0.93827000000E+00 0.  1.
     999902    2    1    2    0    0  0.58843121694E-02 -0.29676519731E-02  0.22871286170E-01  0.10201281551E+01  0.10198504425E+01 0.  0.
     999903    2    3    3    0    0 -0.63425687769E-01 -0.11002901607E+00  0.24775100755E-01  0.13093209336E+00  0.20005129516E-01 0.  0.
         14    1    1    2    0    0 -0.58843121694E-02  0.29676519731E-02 -0.22871286170E-01  0.23801844865E-01  0.00000000000E+00 0.  1.
     999901    1    3    3    0    0  0.69309999938E-01  0.10706136410E+00 -0.19038145849E-02  0.88919606178E+00  0.88000000000E+00 0.  1.
        -11    1    4    4    0    0 -0.42490715273E-01 -0.63871434011E-01  0.23484907935E-01  0.80229813590E-01  0.51100000000E-03 0. -1.
         11    1    4    4    0    0 -0.20934972496E-01 -0.46157582059E-01  0.12901928191E-02  0.50702279766E-01  0.51100000000E-03 0.  1.
</event>
<event>
 8    1  0.1064839E+005  0.1043930E+01  0.7957747E-01            NaN
         13   -1    0    0    0    0  0.00000000000E+00  0.00000000000E+00  0.74505805969E-08  0.10566000000E+00  0.10566000000E+00 0.  1.
     999900   -1    0    0    0    0 -0.00000000000E+00 -0.00000000000E+00 -0.74505805969E-08  0.93827000000E+00  0.93827000000E+00 0. -1.
     999902    2    1    2    0    0  0.70632397076E-02  0.44329914760E-03  0.22815505434E-01  0.10200420709E+01  0.10197623219E+01 0.  0.
     999903    2    3    3    0    0  0.90178639158E-01  0.81895140051E-01  0.47139607472E-01  0.13204756980E+00  0.19375685105E-01 0.  0.
         14    1    1    2    0    0 -0.70632397076E-02 -0.44329914760E-03 -0.22815505434E-01  0.23887929117E-01  0.00000000000E+00 0. -1.
     999901    1    3    3    0    0 -0.83115399450E-01 -0.81451840904E-01 -0.24324102038E-01  0.88799450108E+00  0.88000000000E+00 0. -1.
        -11    1    4    4    0    0  0.12102865898E-01  0.21266469958E-01  0.84310594478E-02  0.25886019235E-01  0.51100000000E-03 0.  1.
         11    1    4    4    0    0  0.78075773260E-01  0.60628670093E-01  0.38708548024E-01  0.10616155057E+00  0.51100000000E-03 0. -1.
</event>
<event>
 8    1  0.1064839E+005  0.1043930E+01  0.7957747E-01            NaN
         13   -1    0    0    0    0  0.00000000000E+00  0.00000000000E+00  0.74505805969E-08  0.10566000000E+00  0.10566000000E+00 0.  1.
     999900   -1    0    0    0    0 -0.00000000000E+00 -0.00000000000E+00 -0.74505805969E-08  0.93827000000E+00  0.93827000000E+00 0. -1.
     999902    2    1    2    0    0  0.97975852784E-02 -0.88945408588E-02  0.19920899237E-01  0.10200145707E+01  0.10197341696E+01 0.  0.
     999903    2    3    3    0    0  0.26941830792E-01 -0.54579702362E-02 -0.12352352211E+00  0.12822870107E+00  0.20709601121E-01 0.  0.
         14    1    1    2    0    0 -0.97975852784E-02  0.88945408588E-02 -0.19920899237E-01  0.23915429346E-01  0.00000000000E+00 0. -1.
     999901    1    3    3    0    0 -0.17144245514E-01 -0.34365706226E-02  0.14344442135E+00  0.89178586958E+00  0.88000000000E+00 0.  1.
        -11    1    4    4    0    0  0.18570800368E-02 -0.52375570042E-02 -0.54522537763E-01  0.54807380842E-01  0.51100000000E-03 0.  1.
         11    1    4    4    0    0  0.25084750755E-01 -0.22041323203E-03 -0.69000984347E-01  0.73421320230E-01  0.51100000000E-03 0. -1.
</event>
<event>
 8    1  0.1064839E+005  0.1043930E+01  0.7957747E-01            NaN
         13   -1    0    0    0    0  0.00000000000E+00  0.00000000000E+00  0.74505805969E-08  0.10566000000E+00  0.10566000000E+00 0.  1.
     999900   -1    0    0    0    0 -0.00000000000E+00 -0.00000000000E+00 -0.74505805969E-08  0.93827000000E+00  0.93827000000E+00 0.  1.
     999902    2    1    2    0    0 -0.17259756484E-01 -0.35890771224E-02  0.11366688244E-01  0.10229542457E+01  0.10227391683E+01 0.  0.
     999903    2    3    3    0    0  0.28400431193E-01  0.88296094107E-01 -0.90384492606E-01  0.13116893504E+00  0.20812214924E-01 0.  0.
         14    1    1    2    0    0  0.17259756484E-01  0.35890771224E-02 -0.11366688244E-01  0.20975754339E-01  0.00000000000E+00 0. -1.
     999901    1    3    3    0    0 -0.45660187677E-01 -0.91885171229E-01  0.10175118085E+00  0.89178531062E+00  0.88000000000E+00 0. -1.
        -11    1    4    4    0    0 -0.33466925229E-02  0.91430498808E-02 -0.83978982181E-02  0.12867848594E-01  0.51100000000E-03 0. -1.
         11    1    4    4    0    0  0.31747123716E-01  0.79153044226E-01 -0.81986594388E-01  0.11830108645E+00  0.51100000000E-03 0.  1.
</event>
<event>
 8    1  0.1064839E+005  0.1043930E+01  0.7957747E-01            NaN
         13   -1    0    0    0    0  0.00000000000E+00  0.00000000000E+00  0.74505805969E-08  0.10566000000E+00  0.10566000000E+00 0. -1.
     999900   -1    0    0    0    0 -0.00000000000E+00 -0.00000000000E+00 -0.74505805969E-08  0.93827000000E+00  0.93827000000E+00 0. -1.
     999902    2    1    2    0    0 -0.15743436834E-01  0.96405312335E-02 -0.24160381255E-01  0.10135240850E+01  0.10130678907E+01 0.  0.
     999903    2    3    3    0    0  0.81174568483E-01 -0.86777970710E-01 -0.25042900006E-01  0.12296785087E+00  0.19344734118E-01 0.  0.
         14    1    1    2    0    0  0.15743436834E-01 -0.96405312335E-02  0.24160381255E-01  0.30405915020E-01  0.00000000000E+00 0. -1.
     999901    1    3    3    0    0 -0.96918005317E-01  0.96418501944E-01  0.88251875143E-03  0.89055623411E+00  0.88000000000E+00 0.  1.
        -11    1    4    4    0    0  0.57815947831E-01 -0.70672160900E-01 -0.13371004512E-01  0.92283709465E-01  0.51100000000E-03 0. -1.
         11    1    4    4    0    0  0.23358620652E-01 -0.16105809810E-01 -0.11671895495E-01  0.30684141406E-01  0.51100000000E-03 0.  1.
</event>
<event>
 8    1  0.1064839E+005  0.1043930E+01  0.7957747E-01            NaN
         13   -1    0    0    0    0  0.00000000000E+00  0.00000000000E+00  0.74505805969E-08  0.10566000000E+00  0.10566000000E+00 0. -1.
     999900   -1    0    0    0    0 -0.00000000000E+00 -0.00000000000E+00 -0.74505805969E-08  0.93827000000E+00  0.93827000000E+00 0. -1.
     999902    2    1    2    0    0 -0.19030833019E-01  0.39345261628E-02  0.14527797328E-01  0.10196666532E+01  0.10193779347E+01 0.  0.
     999903    2    3    3    0    0 -0.67687563104E-01 -0.10507144495E+00 -0.31989825449E-01  0.13038960508E+00  0.18880821960E-01 0.  0.
         14    1    1    2    0    0  0.19030833019E-01 -0.39345261628E-02 -0.14527797328E-01  0.24263346775E-01  0.00000000000E+00 0.  1.
     999901    1    3    3    0    0  0.48656730085E-01  0.10900597112E+00  0.46517622777E-01  0.88927704814E+00  0.88000000000E+00 0.  1.
        -11    1    4    4    0    0 -0.27881790642E-02 -0.11363033520E-01  0.91375028843E-03  0.11746852083E-01  0.51100000000E-03 0. -1.
         11    1    4    4    0    0 -0.64899384040E-01 -0.93708411434E-01 -0.32903575737E-01  0.11864275300E+00  0.51100000000E-03 0.  1.
</event>
<event>
 8    1  0.1064839E+005  0.1043930E+01  0.7957747E-01            NaN
         13   -1    0    0    0    0  0.00000000000E+00  0.00000000000E+00  0.74505805969E-08  0.10566000000E+00  0.10566000000E+00 0.  1.
     999900   -1    0    0    0    0 -0.00000000000E+00 -0.00000000000E+00 -0.74505805969E-08  0.93827000000E+00  0.93827000000E+00 0. -1.
     999902    2    1    2    0    0  0.17360718051E-01 -0.12972123281E-01  0.88877448275E-02  0.10205064537E+01  0.10202375995E+01 0.  0.
     999903    2    3    3    0    0  0.10645979863E+00  0.28301109181E-01  0.71477632546E-01  0.13283555751E+00  0.20039757471E-01 0.  0.
         14    1    1    2    0    0 -0.17360718051E-01  0.12972123281E-01 -0.88877448275E-02  0.23423546311E-01  0.00000000000E+00 0. -1.
     999901    1    3    3    0    0 -0.89099080578E-01 -0.41273232462E-01 -0.62589887719E-01  0.88767089618E+00  0.88000000000E+00 0. -1.
        -11    1    4    4    0    0  0.51883320492E-01  0.14406180436E-01  0.23114354743E-01  0.58599927442E-01  0.51100000000E-03 0. -1.
         11    1    4    4    0    0  0.54576478138E-01  0.13894928745E-01  0.48363277803E-01  0.74235630068E-01  0.51100000000E-03 0.  1.
</event>
<event>
 8    1  0.1064839E+005  0.1043930E+01  0.7957747E-01            NaN
         13   -1    0    0    0    0  0.00000000000E+00  0.00000000000E+00  0.74505805969E-08  0.10566000000E+00  0.10566000000E+00 0.  1.
     999900   -1    0    0    0    0 -0.00000000000E+00 -0.00000000000E+00 -0.74505805969E-08  0.93827000000E+00  0.93827000000E+00 0.  1.
     999902    2    1    2    0    0 -0.36909689688E-02 -0.40898195193E-02 -0.19314494912E-01  0.10238451901E+01  0.10236481689E+01 0.  0.
     999903    2    3    3    0    0  0.51277604557E-01  0.64383416692E-02 -0.12414313564E+00  0.13585789841E+00  0.19365057756E-01 0.  0.
         14    1    1    2    0    0  0.36909689688E-02  0.40898195193E-02  0.19314494912E-01  0.20084809915E-01  0.00000000000E+00 0.  1.
     999901    1    3    3    0    0 -0.54968573525E-01 -0.10528161189E-01  0.10482864073E+00  0.88798729167E+00  0.88000000000E+00 0. -1.
        -11    1    4    4    0    0  0.28963615527E-01  0.13030672640E-01 -0.76576551028E-01  0.82903068352E-01  0.51100000000E-03 0.  1.
         11    1    4    4    0    0  0.22313989029E-01 -0.65923309707E-02 -0.47566584613E-01  0.52954830061E-01  0.51100000000E-03 0. -1.
</event>
<event>
 8    1  0.1117896E+005  0.1043930E+01  0.7957747E-01            NaN
         13   -1    0    0    0    0  0.00000000000E+00  0.00000000000E+00  0.74505805969E-08  0.10566000000E+00  0.10566000000E+00 0. -1.
     999900   -1    0    0    0    0 -0.00000000000E+00 -0.00000000000E+00 -0.74505805969E-08  0.93827000000E+00  0.93827000000E+00 0. -1.
     999902    2    1    2    0    0  0.15491471016E-01  0.64995013763E-02  0.14154344358E-01  0.10219624181E+01  0.10217262888E+01 0.  0.
     999903    2    3    3    0    0 -0.52599825731E-01  0.63547624389E-01 -0.99095594259E-01  0.13026938700E+00  0.18577786616E-01 0.  0.
         14    1    1    2    0    0 -0.15491471016E-01 -0.64995013763E-02 -0.14154344358E-01  0.21967581947E-01  0.00000000000E+00 0.  1.
     999901    1    3    3    0    0  0.68091296747E-01 -0.57048123013E-01  0.11324993862E+00  0.89169303105E+00  0.88000000000E+00 0.  1.
        -11    1    4    4    0    0 -0.12183680276E-01  0.10713307826E-01 -0.31469076217E-01  0.35408768809E-01  0.51100000000E-03 0. -1.
         11    1    4    4    0    0 -0.40416145455E-01  0.52834316563E-01 -0.67626518042E-01  0.94860618191E-01  0.51100000000E-03 0.  1.
</event>
<event>
 8    1  0.1064839E+005  0.1043930E+01  0.7957747E-01            NaN
         13   -1    0    0    0    0  0.00000000000E+00  0.00000000000E+00  0.74505805969E-08  0.10566000000E+00  0.10566000000E+00 0.  1.
     999900   -1    0    0    0    0 -0.00000000000E+00 -0.00000000000E+00 -0.74505805969E-08  0.93827000000E+00  0.93827000000E+00 0.  1.
     999902    2    1    2    0    0  0.88174027031E-02 -0.18674814997E-01  0.12579330331E-01  0.10197487085E+01  0.10194619628E+01 0.  0.
     999903    2    3    3    0    0 -0.11347105309E+00  0.55713605900E-01 -0.34411525308E-02  0.12803981015E+00  0.20066531349E-01 0.  0.
         14    1    1    2    0    0 -0.88174027031E-02  0.18674814997E-01 -0.12579330331E-01  0.24181291470E-01  0.00000000000E+00 0. -1.
     999901    1    3    3    0    0  0.12228845579E+00 -0.74388420897E-01  0.16020482861E-01  0.89170889838E+00  0.88000000000E+00 0.  1.
        -11    1    4    4    0    0 -0.90106186502E-01  0.47863358709E-01 -0.10025017671E-01  0.10252213445E+00  0.51100000000E-03 0.  1.
         11    1    4    4    0    0 -0.23364866587E-01  0.78502471910E-02  0.65838651399E-02  0.25517675693E-01  0.51100000000E-03 0. -1.
</event>
<event>
 8    1  0.1064839E+005  0.1043930E+01  0.7957747E-01            NaN
         13   -1    0    0    0    0  0.00000000000E+00  0.00000000000E+00  0.74505805969E-08  0.10566000000E+00  0.10566000000E+00 0.  1.
     999900   -1    0    0    0    0 -0.00000000000E+00 -0.00000000000E+00 -0.74505805969E-08  0.93827000000E+00  0.93827000000E+00 0. -1.
     999902    2    1    2    0    0 -0.19522500055E-02 -0.23312770309E-01  0.60707337348E-02  0.10197607975E+01  0.10194743419E+01 0.  0.
     999903    2    3    3    0    0 -0.12138523717E+00 -0.39008157016E-01  0.25182809536E-01  0.13134881257E+00  0.19034824745E-01 0.  0.
         14    1    1    2    0    0  0.19522500055E-02  0.23312770309E-01 -0.60707337348E-02  0.24169202462E-01  0.00000000000E+00 0.  1.
     999901    1    3    3    0    0  0.11943298716E+00  0.15695386706E-01 -0.19112075802E-01  0.88841198496E+00  0.88000000000E+00 0.  1.
        -11    1    4    4    0    0 -0.59282646886E-01 -0.91287487072E-02  0.10903547466E-01  0.60966505092E-01  0.51100000000E-03 0. -1.
         11    1    4    4    0    0 -0.62102590279E-01 -0.29879408309E-01  0.14279262070E-01  0.70382307482E-01  0.51100000000E-03 0.  1.
</event>
<event>
 8    1  0.1064839E+005  0.1043930E+01  0.7957747E-01            NaN
         13   -1    0    0    0    0  0.00000000000E+00  0.00000000000E+00  0.74505805969E-08  0.10566000000E+00  0.10566000000E+00 0. -1.
     999900   -1    0    0    0    0 -0.00000000000E+00 -0.00000000000E+00 -0.74505805969E-08  0.93827000000E+00  0.93827000000E+00 0.  1.
     999902    2    1    2    0    0 -0.79645862368E-02 -0.22207528970E-01 -0.11998188565E-02  0.10203069489E+01  0.10200334414E+01 0.  0.
     999903    2    3    3    0    0 -0.72384272896E-01  0.69906911920E-01  0.78894625396E-01  0.12954879642E+00  0.20786280110E-01 0.  0.
         14    1    1    2    0    0  0.79645862368E-02  0.22207528970E-01  0.11998188565E-02  0.23623051077E-01  0.00000000000E+00 0.  1.
     999901    1    3    3    0    0  0.64419686659E-01 -0.92114440890E-01 -0.80094444253E-01  0.89075815250E+00  0.88000000000E+00 0.  1.
        -11    1    4    4    0    0 -0.54779163994E-01  0.54536651306E-01  0.70764277423E-01  0.10479908026E+00  0.51100000000E-03 0.  1.
         11    1    4    4    0    0 -0.17605108902E-01  0.15370260614E-01  0.81303479739E-02  0.24749716159E-01  0.51100000000E-03 0. -1.
</event>
<event>
 8    1  0.1064839E+005  0.1043930E+01  0.7957747E-01            NaN
         13   -1    0    0    0    0  0.00000000000E+00  0.00000000000E+00  0.74505805969E-08  0.10566000000E+00  0.10566000000E+00 0.  1.
     999900   -1    0    0    0    0 -0.00000000000E+00 -0.00000000000E+00 -0.74505805969E-08  0.93827000000E+00  0.93827000000E+00 0. -1.
     999902    2    1    2    0    0  0.19870692011E-01 -0.11305475563E-01  0.19955184293E-03  0.10210674105E+01  0.10208114217E+01 0.  0.
     999903    2    3    3    0    0  0.41444576581E-02  0.73492089156E-01 -0.10590418451E+00  0.13050806698E+00  0.19959848465E-01 0.  0.
         14    1    1    2    0    0 -0.19870692011E-01  0.11305475563E-01 -0.19955184293E-03  0.22862589522E-01  0.00000000000E+00 0. -1.
     999901    1    3    3    0    0  0.15726234353E-01 -0.84797564719E-01  0.10610373636E+00  0.89055934350E+00  0.88000000000E+00 0.  1.
        -11    1    4    4    0    0 -0.75285705327E-02  0.24386612611E-01 -0.40808570160E-01  0.48135088745E-01  0.51100000000E-03 0.  1.
         11    1    4    4    0    0  0.11673028191E-01  0.49105476544E-01 -0.65095614353E-01  0.82372978232E-01  0.51100000000E-03 0. -1.
</event>
<event>
 8    1  0.1064839E+005  0.1043930E+01  0.7957747E-01            NaN
         13   -1    0    0    0    0  0.00000000000E+00  0.00000000000E+00  0.74505805969E-08  0.10566000000E+00  0.10566000000E+00 0.  1.
     999900   -1    0    0    0    0 -0.00000000000E+00 -0.00000000000E+00 -0.74505805969E-08  0.93827000000E+00  0.93827000000E+00 0. -1.
     999902    2    1    2    0    0  0.21031712059E-01 -0.97761554777E-02  0.64699356196E-02  0.10198516654E+01  0.10195673854E+01 0.  0.
     999903    2    3    3    0    0  0.62006899194E-01 -0.10611527211E+00  0.47054145750E-01  0.13271736362E+00  0.17160986344E-01 0.  0.
         14    1    1    2    0    0 -0.21031712059E-01  0.97761554777E-02 -0.64699356196E-02  0.24078334556E-01  0.00000000000E+00 0. -1.
     999901    1    3    3    0    0 -0.40975187135E-01  0.96339116632E-01 -0.40584210130E-01  0.88713430182E+00  0.88000000000E+00 0.  1.
        -11    1    4    4    0    0  0.51869976087E-01 -0.77316846340E-01  0.30439786561E-01  0.97955249344E-01  0.51100000000E-03 0.  1.
         11    1    4    4    0    0  0.10136923107E-01 -0.28798425770E-01  0.16614359189E-01  0.34762114279E-01  0.51100000000E-03 0. -1.
</event>
<event>
 8    1  0.1064839E+005  0.1043930E+01  0.7957747E-01            NaN
         13   -1    0    0    0    0  0.00000000000E+00  0.00000000000E+00  0.74505805969E-08  0.10566000000E+00  0.10566000000E+00 0. -1.
     999900   -1    0    0    0    0 -0.00000000000E+00 -0.00000000000E+00 -0.74505805969E-08  0.93827000000E+00  0.93827000000E+00 0. -1.
     999902    2    1    2    0    0 -0.45875857106E-02 -0.23285660462E-01 -0.34177983848E-02  0.10199519002E+01  0.10196700100E+01 0.  0.
     999903    2    3    3    0    0 -0.31468564230E-01 -0.33140613956E-02  0.12456837186E+00  0.13006319277E+00  0.19947463743E-01 0.  0.
         14    1    1    2    0    0  0.45875857106E-02  0.23285660462E-01  0.34177983848E-02  0.23978099833E-01  0.00000000000E+00 0.  1.
     999901    1    3    3    0    0  0.26880978520E-01 -0.19971599066E-01 -0.12798617024E+00  0.88988870739E+00  0.88000000000E+00 0. -1.
        -11    1    4    4    0    0 -0.15072926262E-02 -0.31901002247E-02  0.43294666877E-01  0.43441201312E-01  0.51100000000E-03 0.  1.
         11    1    4    4    0    0 -0.29961271604E-01 -0.12396117093E-03  0.81273704979E-01  0.86621991460E-01  0.51100000000E-03 0. -1.
</event>
<event>
 8    1  0.1064839E+005  0.1043930E+01  0.7957747E-01            NaN
         13   -1    0    0    0    0  0.00000000000E+00  0.00000000000E+00  0.74505805969E-08  0.10566000000E+00  0.10566000000E+00 0.  1.
     999900   -1    0    0    0    0 -0.00000000000E+00 -0.00000000000E+00 -0.74505805969E-08  0.93827000000E+00  0.93827000000E+00 0. -1.
     999902    2    1    2    0    0  0.20906197082E-01  0.97549881970E-02 -0.41879101390E-02  0.10204828794E+01  0.10202134775E+01 0.  0.
     999903    2    3    3    0    0 -0.15853889320E-01 -0.11873037794E+00 -0.45202262985E-01  0.12944866551E+00  0.19117111997E-01 0.  0.
         14    1    1    2    0    0 -0.20906197082E-01 -0.97549881970E-02  0.41879101390E-02  0.23447120559E-01  0.00000000000E+00 0. -1.
     999901    1    3    3    0    0  0.36760086402E-01  0.12848536613E+00  0.41014352846E-01  0.89103421393E+00  0.88000000000E+00 0.  1.
        -11    1    4    4    0    0 -0.76128430685E-02 -0.57935897497E-01 -0.32246789673E-01  0.66743090755E-01  0.51100000000E-03 0.  1.
         11    1    4    4    0    0 -0.82410462511E-02 -0.60794480439E-01 -0.12955473312E-01  0.62705574752E-01  0.51100000000E-03 0. -1.
</event>
<event>
 8    1  0.1064839E+005  0.1043930E+01  0.7957747E-01            NaN
         13   -1    0    0    0    0  0.00000000000E+00  0.00000000000E+00  0.74505805969E-08  0.10566000000E+00  0.10566000000E+00 0.  1.
     999900   -1    0    0    0    0 -0.00000000000E+00 -0.00000000000E+00 -0.74505805969E-08  0.93827000000E+00  0.93827000000E+00 0. -1.
     999902    2    1    2    0    0  0.21919476894E-01  0.57744281925E-02 -0.76185517517E-02  0.10200166184E+01  0.10197362659E+01 0.  0.
     999903    2    3    3    0    0  0.79108760937E-01 -0.10010377506E+00  0.23727798135E-01  0.13127402250E+00  0.19771159301E-01 0.  0.
         14    1    1    2    0    0 -0.21919476894E-01 -0.57744281925E-02  0.76185517517E-02  0.23913381590E-01  0.00000000000E+00 0.  1.
     999901    1    3    3    0    0 -0.57189284043E-01  0.10587820326E+00 -0.31346349887E-01  0.88874259591E+00  0.88000000000E+00 0. -1.
        -11    1    4    4    0    0  0.66371394911E-01 -0.82114971154E-01  0.11899524121E-01  0.10625389567E+00  0.51100000000E-03 0.  1.
         11    1    4    4    0    0  0.12737366026E-01 -0.17988803909E-01  0.11828274014E-01  0.25020126828E-01  0.51100000000E-03 0. -1.
</event>
<event>
 8    1  0.1064839E+005  0.1043930E+01  0.7957747E-01            NaN
         13   -1    0    0    0    0  0.00000000000E+00  0.00000000000E+00  0.74505805969E-08  0.10566000000E+00  0.10566000000E+00 0. -1.
     999900   -1    0    0    0    0 -0.00000000000E+00 -0.00000000000E+00 -0.74505805969E-08  0.93827000000E+00  0.93827000000E+00 0.  1.
     999902    2    1    2    0    0  0.13273187355E-01 -0.17918807593E-01  0.79338055803E-02  0.10202613194E+01  0.10199867418E+01 0.  0.
     999903    2    3    3    0    0  0.13064930154E+00 -0.49498793895E-02  0.22365594578E-02  0.13235490327E+00  0.20471368328E-01 0.  0.
         14    1    1    2    0    0 -0.13273187355E-01  0.17918807593E-01 -0.79338055803E-02  0.23668680552E-01  0.00000000000E+00 0.  1.
     999901    1    3    3    0    0 -0.11737611419E+00 -0.12968928203E-01  0.56972461225E-02  0.88790641618E+00  0.88000000000E+00 0.  1.
        -11    1    4    4    0    0  0.10113091680E+00 -0.12297780113E-01  0.43443973537E-03  0.10187810161E+00  0.51100000000E-03 0.  1.
         11    1    4    4    0    0  0.29518384742E-01  0.73479007235E-02  0.18021197224E-02  0.30476801658E-01  0.51100000000E-03 0. -1.
</event>
<event>
 8    1  0.1064839E+005  0.1043930E+01  0.7957747E-01            NaN
         13   -1    0    0    0    0  0.00000000000E+00  0.00000000000E+00  0.74505805969E-08  0.10566000000E+00  0.10566000000E+00 0. -1.
     999900   -1    0    0    0    0 -0.00000000000E+00 -0.00000000000E+00 -0.74505805969E-08  0.93827000000E+00  0.93827000000E+00 0. -1.
     999902    2    1    2    0    0  0.13855997600E-01  0.94489534647E-02  0.16606623446E-01  0.10203280651E+01  0.10200550519E+01 0.  0.
     999903    2    3    3    0    0 -0.11345851439E+00 -0.47941701827E-01  0.33345881146E-01  0.12915867878E+00  0.19969357863E-01 0.  0.
         14    1    1    2    0    0 -0.13855997600E-01 -0.94489534647E-02 -0.16606623446E-01  0.23601934949E-01  0.00000000000E+00 0.  1.
     999901    1    3    3    0    0  0.12731451199E+00  0.57390655292E-01 -0.16739257700E-01  0.89116938627E+00  0.88000000000E+00 0.  1.
        -11    1    4    4    0    0 -0.79653558907E-01 -0.42899397536E-01  0.26759955409E-01  0.94347252690E-01  0.51100000000E-03 0. -1.
         11    1    4    4    0    0 -0.33804955481E-01 -0.50423042913E-02  0.65859257370E-02  0.34811426090E-01  0.51100000000E-03 0.  1.
</event>
<event>
 8    1  0.1064839E+005  0.1043930E+01  0.7957747E-01            NaN
         13   -1    0    0    0    0  0.00000000000E+00  0.00000000000E+00  0.74505805969E-08  0.10566000000E+00  0.10566000000E+00 0.  1.
     999900   -1    0    0    0    0 -0.00000000000E+00 -0.00000000000E+00 -0.74505805969E-08  0.93827000000E+00  0.93827000000E+00 0.  1.
     999902    2    1    2    0    0 -0.50350340977E-02 -0.13544790828E-01  0.18060969341E-01  0.10207996835E+01  0.10205375948E+01 0.  0.
     999903    2    3    3    0    0 -0.10624426285E-01 -0.79807040083E-01 -0.10054204787E+00  0.13035675853E+00  0.20053404259E-01 0.  0.
         14    1    1    2    0    0  0.50350340977E-02  0.13544790828E-01 -0.18060969341E-01  0.23130316480E-01  0.00000000000E+00 0. -1.
     999901    1    3    3    0    0  0.55893921871E-02  0.66262249254E-01  0.11860301721E+00  0.89044292499E+00  0.88000000000E+00 0. -1.
        -11    1    4    4    0    0 -0.39151460989E-02 -0.92694673922E-02 -0.45757661106E-02  0.11065719643E-01  0.51100000000E-03 0. -1.
         11    1    4    4    0    0 -0.67092801858E-02 -0.70537572690E-01 -0.95966281761E-01  0.11929103888E+00  0.51100000000E-03 0.  1.
</event>
<event>
 8    1  0.1064839E+005  0.1043930E+01  0.7957747E-01            NaN
         13   -1    0    0    0    0  0.00000000000E+00  0.00000000000E+00  0.74505805969E-08  0.10566000000E+00  0.10566000000E+00 0. -1.
     999900   -1    0    0    0    0 -0.00000000000E+00 -0.00000000000E+00 -0.74505805969E-08  0.93827000000E+00  0.93827000000E+00 0. -1.
     999902    2    1    2    0    0 -0.72175881520E-02  0.19700472530E-01  0.12115138545E-01  0.10197023551E+01  0.10194144958E+01 0.  0.
     999903    2    3    3    0    0  0.11274386557E+00 -0.38896566387E-01 -0.42076951226E-01  0.12798426849E+00  0.19631124691E-01 0.  0.
         14    1    1    2    0    0  0.72175881520E-02 -0.19700472530E-01 -0.12115138545E-01  0.24227644925E-01  0.00000000000E+00 0.  1.
     999901    1    3    3    0    0 -0.11996145372E+00  0.58597038918E-01  0.54192089771E-01  0.89171808658E+00  0.88000000000E+00 0.  1.
        -11    1    4    4    0    0  0.45462706443E-01 -0.21844460741E-01 -0.25951364759E-01  0.56725414022E-01  0.51100000000E-03 0.  1.
         11    1    4    4    0    0  0.67281159125E-01 -0.17052105647E-01 -0.16125586467E-01  0.71258854468E-01  0.51100000000E-03 0. -1.
</event>
<event>
 8    1  0.1064839E+005  0.1043930E+01  0.7957747E-01            NaN
         13   -1    0    0    0    0  0.00000000000E+00  0.00000000000E+00  0.74505805969E-08  0.10566000000E+00  0.10566000000E+00 0.  1.
     999900   -1    0    0    0    0 -0.00000000000E+00 -0.00000000000E+00 -0.74505805969E-08  0.93827000000E+00  0.93827000000E+00 0.  1.
     999902    2    1    2    0    0  0.89154725993E-02 -0.73643705430E-02 -0.20441300821E-01  0.10204445495E+01  0.10201742558E+01 0.  0.
     999903    2    3    3    0    0 -0.97857979877E-01 -0.83101842604E-01  0.89807419082E-02  0.13027468290E+00  0.20217289889E-01 0.  0.
         14    1    1    2    0    0 -0.89154725993E-02  0.73643705430E-02  0.20441300821E-01  0.23485450484E-01  0.00000000000E+00 0.  1.
     999901    1    3    3    0    0  0.10677345248E+00  0.75737472061E-01 -0.29422042729E-01  0.89016986661E+00  0.88000000000E+00 0. -1.
        -11    1    4    4    0    0 -0.91089304987E-01 -0.73105013884E-01  0.13048019032E-01  0.11752496101E+00  0.51100000000E-03 0. -1.
         11    1    4    4    0    0 -0.67686748903E-02 -0.99968287203E-02 -0.40672771242E-02  0.12749721896E-01  0.51100000000E-03 0.  1.
</event>
<event>
 8    1  0.1064839E+005  0.1043930E+01  0.7957747E-01            NaN
         13   -1    0    0    0    0  0.00000000000E+00  0.00000000000E+00  0.74505805969E-08  0.10566000000E+00  0.10566000000E+00 0.  1.
     999900   -1    0    0    0    0 -0.00000000000E+00 -0.00000000000E+00 -0.74505805969E-08  0.93827000000E+00  0.93827000000E+00 0. -1.
     999902    2    1    2    0    0 -0.15227829251E-01  0.55643115368E-02  0.17281848033E-01  0.10202337847E+01  0.10199585604E+01 0.  0.
     999903    2    3    3    0    0  0.20140515307E-02 -0.11920453224E+00  0.49881990969E-01  0.13066798270E+00  0.19290717173E-01 0.  0.
         14    1    1    2    0    0  0.15227829251E-01 -0.55643115368E-02 -0.17281848033E-01  0.23696215268E-01  0.00000000000E+00 0. -1.
     999901    1    3    3    0    0 -0.17241880782E-01  0.12476884378E+00 -0.32600142936E-01  0.88956580203E+00  0.88000000000E+00 0.  1.
        -11    1    4    4    0    0  0.60962022200E-02 -0.27788235926E-01  0.55651796941E-02  0.28992793646E-01  0.51100000000E-03 0.  1.
         11    1    4    4    0    0 -0.40821506893E-02 -0.91416296314E-01  0.44316811275E-01  0.10167518905E+00  0.51100000000E-03 0. -1.
</event>
<event>
 8    1  0.1064839E+005  0.1043930E+01  0.7957747E-01            NaN
         13   -1    0    0    0    0  0.00000000000E+00  0.00000000000E+00  0.74505805969E-08  0.10566000000E+00  0.10566000000E+00 0. -1.
     999900   -1    0    0    0    0 -0.00000000000E+00 -0.00000000000E+00 -0.74505805969E-08  0.93827000000E+00  0.93827000000E+00 0. -1.
     999902    2    1    2    0    0 -0.16677774295E-01  0.76698976570E-02 -0.15230954562E-01  0.10200771708E+01  0.10197982530E+01 0.  0.
     999903    2    3    3    0    0  0.99397131344E-01  0.73965386589E-01  0.27576395019E-01  0.12895375353E+00  0.22758401846E-01 0.  0.
         14    1    1    2    0    0  0.16677774295E-01 -0.76698976570E-02  0.15230954562E-01  0.23852829232E-01  0.00000000000E+00 0. -1.
     999901    1    3    3    0    0 -0.11607490564E+00 -0.66295488932E-01 -0.42807349582E-01  0.89112341724E+00  0.88000000000E+00 0.  1.
        -11    1    4    4    0    0  0.85660913106E-01  0.53335054284E-01  0.25471093869E-01  0.10407428978E+00  0.51100000000E-03 0. -1.
         11    1    4    4    0    0  0.13736218238E-01  0.20630332305E-01  0.21053011500E-02  0.24879463749E-01  0.51100000000E-03 0.  1.
</event>
<event>
 8    1  0.1064839E+005  0.1043930E+01  0.7957747E-01            NaN
         13   -1    0    0    0    0  0.00000000000E+00  0.00000000000E+00  0.74505805969E-08  0.10566000000E+00  0.10566000000E+00 0. -1.
     999900   -1    0    0    0    0 -0.00000000000E+00 -0.00000000000E+00 -0.74505805969E-08  0.93827000000E+00  0.93827000000E+00 0. -1.
     999902    2    1    2    0    0  0.16414206281E-01  0.13333593526E-01  0.65650645760E-02  0.10217870337E+01  0.10215470774E+01 0.  0.
     999903    2    3    3    0    0 -0.40914302601E-01 -0.89656803473E-01 -0.81469486670E-01  0.12957424404E+00  0.20973433040E-01 0.  0.
         14    1    1    2    0    0 -0.16414206281E-01 -0.13333593526E-01 -0.65650645760E-02  0.22142966311E-01  0.00000000000E+00 0.  1.
     999901    1    3    3    0    0  0.57328508882E-01  0.10299039700E+00  0.88034551245E-01  0.89221278965E+00  0.88000000000E+00 0.  1.
        -11    1    4    4    0    0 -0.34780145071E-01 -0.58023046102E-01 -0.46929616812E-01  0.82334576122E-01  0.51100000000E-03 0.  1.
         11    1    4    4    0    0 -0.61341575303E-02 -0.31633757371E-01 -0.34539869857E-01  0.47239667915E-01  0.51100000000E-03 0. -1.
</event>
<event>
 8    1  0.1064839E+005  0.1043930E+01  0.7957747E-01            NaN
         13   -1    0    0    0    0  0.00000000000E+00  0.00000000000E+00  0.74505805969E-08  0.10566000000E+00  0.10566000000E+00 0. -1.
     999900   -1    0    0    0    0 -0.00000000000E+00 -0.00000000000E+00 -0.74505805969E-08  0.93827000000E+00  0.93827000000E+00 0. -1.
     999902    2    1    2    0    0 -0.71825005096E-02 -0.96055576196E-02  0.20137288318E-01  0.10204914542E+01  0.10202222516E+01 0.  0.
     999903    2    3    3    0    0 -0.11307771783E+00  0.24218238833E-01  0.61729443797E-01  0.13252312495E+00  0.19461784456E-01 0.  0.
         14    1    1    2    0    0  0.71825005096E-02  0.96055576196E-02 -0.20137288318E-01  0.23438545850E-01  0.00000000000E+00 0.  1.
     999901    1    3    3    0    0  0.10589521732E+00 -0.33823796452E-01 -0.41592155480E-01  0.88796832920E+00  0.88000000000E+00 0. -1.
        -11    1    4    4    0    0 -0.24078772569E-01  0.88085415522E-02  0.58249961151E-02  0.26297707000E-01  0.51100000000E-03 0. -1.
         11    1    4    4    0    0 -0.88998945261E-01  0.15409697281E-01  0.55904447682E-01  0.10622541795E+00  0.51100000000E-03 0.  1.
</event>
<event>
 8    1  0.1064839E+005  0.1043930E+01  0.7957747E-01            NaN
         13   -1    0    0    0    0  0.00000000000E+00  0.00000000000E+00  0.74505805969E-08  0.10566000000E+00  0.10566000000E+00 0.  1.
     999900   -1    0    0    0    0 -0.00000000000E+00 -0.00000000000E+00 -0.74505805969E-08  0.93827000000E+00  0.93827000000E+00 0. -1.
     999902    2    1    2    0    0 -0.76581216658E-02  0.40084954328E-02 -0.22403536182E-01  0.10199168099E+01  0.10196340843E+01 0.  0.
     999903    2    3    3    0    0 -0.20610513683E-01  0.71819486053E-01  0.10244181897E+00  0.12842791063E+00  0.20410049081E-01 0.  0.
         14    1    1    2    0    0  0.76581216658E-02 -0.40084954328E-02  0.22403536182E-01  0.24013190054E-01  0.00000000000E+00 0.  1.
     999901    1    3    3    0    0  0.12952392017E-01 -0.67810990621E-01 -0.12484535515E+00  0.89148889932E+00  0.88000000000E+00 0. -1.
        -11    1    4    4    0    0  0.28005404978E-02  0.22694734819E-01  0.26601796475E-01  0.35082911970E-01  0.51100000000E-03 0. -1.
         11    1    4    4    0    0 -0.23411054181E-01  0.49124751234E-01  0.75840022492E-01  0.93344998657E-01  0.51100000000E-03 0.  1.
</event>
<event>
 8    1  0.1064839E+005  0.1043930E+01  0.7957747E-01            NaN
         13   -1    0    0    0    0  0.00000000000E+00  0.00000000000E+00  0.74505805969E-08  0.10566000000E+00  0.10566000000E+00 0. -1.
     999900   -1    0    0    0    0 -0.00000000000E+00 -0.00000000000E+00 -0.74505805969E-08  0.93827000000E+00  0.93827000000E+00 0. -1.
     999902    2    1    2    0    0 -0.23876277982E-02 -0.56810155714E-03  0.23586579134E-01  0.10202160754E+01  0.10199404346E+01 0.  0.
     999903    2    3    3    0    0 -0.90107629380E-01 -0.91448996856E-01  0.16796462746E-01  0.13117150873E+00  0.21012844696E-01 0.  0.
         14    1    1    2    0    0  0.23876277982E-02  0.56810155714E-03 -0.23586579134E-01  0.23713924625E-01  0.00000000000E+00 0.  1.
     999901    1    3    3    0    0  0.87720001582E-01  0.90880895299E-01  0.67901163875E-02  0.88904456665E+00  0.88000000000E+00 0. -1.
        -11    1    4    4    0    0 -0.44513334784E-01 -0.40632406873E-01  0.17947296131E-01  0.62887168972E-01  0.51100000000E-03 0.  1.
         11    1    4    4    0    0 -0.45594294596E-01 -0.50816589982E-01 -0.11508333842E-02  0.68284339754E-01  0.51100000000E-03 0. -1.
</event>
<event>
 8    1  0.1064839E+005  0.1043930E+01  0.7957747E-01            NaN
         13   -1    0    0    0    0  0.00000000000E+00  0.00000000000E+00  0.74505805969E-08  0.10566000000E+00  0.10566000000E+00 0. -1.
     999900   -1    0    0    0    0 -0.00000000000E+00 -0.00000000000E+00 -0.74505805969E-08  0.93827000000E+00  0.93827000000E+00 0. -1.
     999902    2    1    2    0    0 -0.96526545721E-02  0.10795173479E-01  0.18991337448E-01  0.10200473618E+01  0.10197677382E+01 0.  0.
     999903    2    3    3    0    0 -0.11420152460E+00 -0.32666380510E-01 -0.49379866028E-01  0.13016310280E+00  0.19874142106E-01 0.  0.
         14    1    1    2    0    0  0.96526545721E-02 -0.10795173479E-01 -0.18991337448E-01  0.23882638229E-01  0.00000000000E+00 0.  1.
     999901    1    3    3    0    0  0.10454887003E+00  0.43461553989E-01  0.68371203476E-01  0.88988425897E+00  0.88000000000E+00 0. -1.
        -11    1    4    4    0    0 -0.52425616388E-01 -0.23821636563E-01 -0.18160191911E-01  0.60381862455E-01  0.51100000000E-03 0.  1.
         11    1    4    4    0    0 -0.61775908214E-01 -0.88447439468E-02 -0.31219674117E-01  0.69781240345E-01  0.51100000000E-03 0. -1.
</event>
<event>
 8    1  0.1064839E+005  0.1043930E+01  0.7957747E-01            NaN
         13   -1    0    0    0    0  0.00000000000E+00  0.00000000000E+00  0.74505805969E-08  0.10566000000E+00  0.10566000000E+00 0. -1.
     999900   -1    0    0    0    0 -0.00000000000E+00 -0.00000000000E+00 -0.74505805969E-08  0.93827000000E+00  0.93827000000E+00 0.  1.
     999902    2    1    2    0    0  0.18249583536E-01  0.13007870802E-01  0.39559972228E-04  0.10215189856E+01  0.10212731194E+01 0.  0.
     999903    2    3    3    0    0  0.10023359365E+00  0.71005140996E-01 -0.50661145056E-01  0.13435743167E+00  0.19921457810E-01 0.  0.
         14    1    1    2    0    0 -0.18249583536E-01 -0.13007870802E-01 -0.39559972228E-04  0.22411014414E-01  0.00000000000E+00 0.  1.
     999901    1    3    3    0    0 -0.81984010115E-01 -0.57997270194E-01  0.50700705028E-01  0.88716155392E+00  0.88000000000E+00 0.  1.
        -11    1    4    4    0    0  0.71724850249E-01  0.40012947308E-01 -0.29909403642E-01  0.87408944867E-01  0.51100000000E-03 0.  1.
         11    1    4    4    0    0  0.28508743402E-01  0.30992193688E-01 -0.20751741414E-01  0.46948486799E-01  0.51100000000E-03 0. -1.
</event>
<event>
 8    1  0.1064839E+005  0.1043930E+01  0.7957747E-01            NaN
         13   -1    0    0    0    0  0.00000000000E+00  0.00000000000E+00  0.74505805969E-08  0.10566000000E+00  0.10566000000E+00 0. -1.
     999900   -1    0    0    0    0 -0.00000000000E+00 -0.00000000000E+00 -0.74505805969E-08  0.93827000000E+00  0.93827000000E+00 0. -1.
     999902    2    1    2    0    0  0.12921249076E-01  0.12907792676E-01  0.13231705117E-01  0.10213767783E+01  0.10211277469E+01 0.  0.
     999903    2    3    3    0    0  0.31686864788E-01  0.22879913320E-01  0.12649136282E+00  0.13386376904E+00  0.19796362260E-01 0.  0.
         14    1    1    2    0    0 -0.12921249076E-01 -0.12907792676E-01 -0.13231705117E-01  0.22553221716E-01  0.00000000000E+00 0.  1.
     999901    1    3    3    0    0 -0.18765615711E-01 -0.99721206448E-02 -0.11325965770E+00  0.88751300925E+00  0.88000000000E+00 0. -1.
        -11    1    4    4    0    0 -0.14183111482E-02  0.36389055911E-03  0.20550927876E-01  0.20609361476E-01  0.51100000000E-03 0. -1.
         11    1    4    4    0    0  0.33105175936E-01  0.22516022761E-01  0.10594043494E+00  0.11325440756E+00  0.51100000000E-03 0.  1.
</event>
<event>
 8    1  0.1064839E+005  0.1043930E+01  0.7957747E-01            NaN
         13   -1    0    0    0    0  0.00000000000E+00  0.00000000000E+00  0.74505805969E-08  0.10566000000E+00  0.10566000000E+00 0. -1.
     999900   -1    0    0    0    0 -0.00000000000E+00 -0.00000000000E+00 -0.74505805969E-08  0.93827000000E+00  0.93827000000E+00 0. -1.
     999902    2    1    2    0    0 -0.13165429268E-01  0.18443708424E-01 -0.66304945114E-02  0.10203193591E+01  0.10200461421E+01 0.  0.
     999903    2    3    3    0    0 -0.10180590280E+00 -0.57856462347E-01  0.53987549315E-01  0.13051410124E+00  0.20185714274E-01 0.  0.
         14    1    1    2    0    0  0.13165429268E-01 -0.18443708424E-01  0.66304945114E-02  0.23610640943E-01  0.00000000000E+00 0. -1.
     999901    1    3    3    0    0  0.88640473531E-01  0.76300170771E-01 -0.60618043826E-01  0.88980525782E+00  0.88000000000E+00 0. -1.
        -11    1    4    4    0    0 -0.66733578618E-01 -0.48158384133E-01  0.40279837871E-01  0.91626016706E-01  0.51100000000E-03 0. -1.
         11    1    4    4    0    0 -0.35072324180E-01 -0.96980782134E-02  0.13707711444E-01  0.38888084531E-01  0.51100000000E-03 0.  1.
</event>
<event>
 8    1  0.1064839E+005  0.1043930E+01  0.7957747E-01            NaN
         13   -1    0    0    0    0  0.00000000000E+00  0.00000000000E+00  0.74505805969E-08  0.10566000000E+00  0.10566000000E+00 0.  1.
     999900   -1    0    0    0    0 -0.00000000000E+00 -0.00000000000E+00 -0.74505805969E-08  0.93827000000E+00  0.93827000000E+00 0. -1.
     999902    2    1    2    0    0 -0.13055944530E-01 -0.18367650987E-01 -0.64699767398E-02  0.10204845550E+01  0.10202151921E+01 0.  0.
     999903    2    3    3    0    0 -0.80898028236E-01 -0.91100658098E-01 -0.51479929563E-01  0.13373851784E+00  0.19798664770E-01 0.  0.
         14    1    1    2    0    0  0.13055944530E-01  0.18367650987E-01  0.64699767398E-02  0.23445444960E-01  0.00000000000E+00 0. -1.
     999901    1    3    3    0    0  0.67842083706E-01  0.72733007111E-01  0.45009952823E-01  0.88674603720E+00  0.88000000000E+00 0. -1.
        -11    1    4    4    0    0 -0.44364391668E-01 -0.42354274214E-01 -0.16617808745E-01  0.63549165854E-01  0.51100000000E-03 0.  1.
         11    1    4    4    0    0 -0.36533636568E-01 -0.48746383884E-01 -0.34862120818E-01  0.70189351982E-01  0.51100000000E-03 0. -1.
</event>
<event>
 8    1  0.1064839E+005  0.1043930E+01  0.7957747E-01            NaN
         13   -1    0    0    0    0  0.00000000000E+00  0.00000000000E+00  0.74505805969E-08  0.10566000000E+00  0.10566000000E+00 0.  1.
     999900   -1    0    0    0    0 -0.00000000000E+00 -0.00000000000E+00 -0.74505805969E-08  0.93827000000E+00  0.93827000000E+00 0. -1.
     999902    2    1    2    0    0  0.14567034582E-01  0.19724572121E-01 -0.32388279152E-02  0.10191964752E+01  0.10188963185E+01 0.  0.
     999903    2    3    3    0    0 -0.10864473076E+00 -0.56796734392E-03 -0.65076201928E-01  0.12823251012E+00  0.20116274154E-01 0.  0.
         14    1    1    2    0    0 -0.14567034582E-01 -0.19724572121E-01  0.32388279152E-02  0.24733524782E-01  0.00000000000E+00 0. -1.
     999901    1    3    3    0    0  0.12321176534E+00  0.20292539465E-01  0.61837374013E-01  0.89096396510E+00  0.88000000000E+00 0. -1.
        -11    1    4    4    0    0 -0.96679163497E-01 -0.68938190925E-02 -0.57934218094E-01  0.11292041509E+00  0.51100000000E-03 0.  1.
         11    1    4    4    0    0 -0.11965567264E-01  0.63258517485E-02 -0.71419838337E-02  0.15312095035E-01  0.51100000000E-03 0. -1.
</event>
<event>
 8    1  0.1064839E+005  0.1043930E+01  0.7957747E-01            NaN
         13   -1    0    0    0    0  0.00000000000E+00  0.00000000000E+00  0.74505805969E-08  0.10566000000E+00  0.10566000000E+00 0. -1.
     999900   -1    0    0    0    0 -0.00000000000E+00 -0.00000000000E+00 -0.74505805969E-08  0.93827000000E+00  0.93827000000E+00 0. -1.
     999902    2    1    2    0    0  0.54954941231E-02  0.14185521205E-01 -0.17785174078E-01  0.10205261139E+01  0.10202577161E+01 0.  0.
     999903    2    3    3    0    0  0.56213053564E-01  0.11825808862E+00 -0.99258269791E-02  0.13290843750E+00  0.20524322205E-01 0.  0.
         14    1    1    2    0    0 -0.54954941231E-02 -0.14185521205E-01  0.17785174078E-01  0.23403886099E-01  0.00000000000E+00 0. -1.
     999901    1    3    3    0    0 -0.50717559441E-01 -0.10407256742E+00 -0.78593470993E-02  0.88761767640E+00  0.88000000000E+00 0.  1.
        -11    1    4    4    0    0  0.14043339211E-01  0.44815009454E-01 -0.10890632889E-01  0.48212731246E-01  0.51100000000E-03 0.  1.
         11    1    4    4    0    0  0.42169714353E-01  0.73443079168E-01  0.96480590970E-03  0.84695706253E-01  0.51100000000E-03 0. -1.
</event>
<event>
 8    1  0.1064839E+005  0.1043930E+01  0.7957747E-01            NaN
         13   -1    0    0    0    0  0.00000000000E+00  0.00000000000E+00  0.74505805969E-08  0.10566000000E+00  0.10566000000E+00 0.  1.
     999900   -1    0    0    0    0 -0.00000000000E+00 -0.00000000000E+00 -0.74505805969E-08  0.93827000000E+00  0.93827000000E+00 0.  1.
     999902    2    1    2    0    0  0.16313490701E-01  0.13068203040E-01  0.11852455238E-01  0.10199010881E+01  0.10196179878E+01 0.  0.
     999903    2    3    3    0    0 -0.83063162104E-01  0.46783537982E-01  0.86877622637E-01  0.13049610802E+00  0.19832412077E-01 0.  0.
         14    1    1    2    0    0 -0.16313490701E-01 -0.13068203040E-01 -0.11852455238E-01  0.24028911850E-01  0.00000000000E+00 0. -1.
     999901    1    3    3    0    0  0.99376652806E-01 -0.33715334942E-01 -0.75025167399E-01  0.88940498013E+00  0.88000000000E+00 0.  1.
        -11    1    4    4    0    0 -0.60875223237E-01  0.37556810449E-01  0.53309273714E-01  0.89210126108E-01  0.51100000000E-03 0.  1.
         11    1    4    4    0    0 -0.22187938867E-01  0.92267275331E-02  0.33568348924E-01  0.41285981914E-01  0.51100000000E-03 0. -1.
</event>
<event>
 8    1  0.1064839E+005  0.1043930E+01  0.7957747E-01            NaN
         13   -1    0    0    0    0  0.00000000000E+00  0.00000000000E+00  0.74505805969E-08  0.10566000000E+00  0.10566000000E+00 0.  1.
     999900   -1    0    0    0    0 -0.00000000000E+00 -0.00000000000E+00 -0.74505805969E-08  0.93827000000E+00  0.93827000000E+00 0. -1.
     999902    2    1    2    0    0 -0.15676862116E-01 -0.47172704880E-03  0.13614167582E-01  0.10231614639E+01  0.10229506582E+01 0.  0.
     999903    2    3    3    0    0 -0.52621051409E-01  0.12033820919E+00  0.19343747619E-01  0.13412111505E+00  0.19079656431E-01 0.  0.
         14    1    1    2    0    0  0.15676862116E-01  0.47172704880E-03 -0.13614167582E-01  0.20768536087E-01  0.00000000000E+00 0. -1.
     999901    1    3    3    0    0  0.36944189292E-01 -0.12080993623E+00 -0.57295800363E-02  0.88904034886E+00  0.88000000000E+00 0.  1.
        -11    1    4    4    0    0 -0.24602326460E-01  0.62070887179E-01  0.19158357650E-01  0.69464906905E-01  0.51100000000E-03 0. -1.
         11    1    4    4    0    0 -0.28018724948E-01  0.58267322007E-01  0.18538996905E-03  0.64656208147E-01  0.51100000000E-03 0.  1.
</event>
<event>
 8    1  0.1064839E+005  0.1043930E+01  0.7957747E-01            NaN
         13   -1    0    0    0    0  0.00000000000E+00  0.00000000000E+00  0.74505805969E-08  0.10566000000E+00  0.10566000000E+00 0.  1.
     999900   -1    0    0    0    0 -0.00000000000E+00 -0.00000000000E+00 -0.74505805969E-08  0.93827000000E+00  0.93827000000E+00 0.  1.
     999902    2    1    2    0    0 -0.19904741320E-02 -0.21501841796E-01 -0.12313224027E-01  0.10190722713E+01  0.10187690551E+01 0.  0.
     999903    2    3    3    0    0 -0.11618009242E+00  0.47466831584E-01 -0.21651364148E-01  0.12896938533E+00  0.20332407829E-01 0.  0.
         14    1    1    2    0    0  0.19904741320E-02  0.21501841796E-01  0.12313224027E-01  0.24857728654E-01  0.00000000000E+00 0.  1.
     999901    1    3    3    0    0  0.11418961829E+00 -0.68968673380E-01  0.93381401208E-02  0.89010288602E+00  0.88000000000E+00 0.  1.
        -11    1    4    4    0    0 -0.96257981624E-01  0.36106927963E-01 -0.24954769920E-01  0.10579371879E+00  0.51100000000E-03 0. -1.
         11    1    4    4    0    0 -0.19922110794E-01  0.11359903621E-01  0.33034057717E-02  0.23175666538E-01  0.51100000000E-03 0.  1.
</event>
<event>
 8    1  0.1064839E+005  0.1043930E+01  0.7957747E-01            NaN
         13   -1    0    0    0    0  0.00000000000E+00  0.00000000000E+00  0.74505805969E-08  0.10566000000E+00  0.10566000000E+00 0.  1.
     999900   -1    0    0    0    0 -0.00000000000E+00 -0.00000000000E+00 -0.74505805969E-08  0.93827000000E+00  0.93827000000E+00 0. -1.
     999902    2    1    2    0    0 -0.17061901272E-01  0.15073221082E-01 -0.50924297610E-02  0.10206009771E+01  0.10203343134E+01 0.  0.
     999903    2    3    3    0    0  0.10120806479E+00  0.33292368820E-01  0.70358532492E-01  0.12930272739E+00  0.20430810459E-01 0.  0.
         14    1    1    2    0    0  0.17061901272E-01 -0.15073221082E-01  0.50924297610E-02  0.23329022904E-01  0.00000000000E+00 0. -1.
     999901    1    3    3    0    0 -0.11826996607E+00 -0.18219147739E-01 -0.75450962253E-01  0.89129824970E+00  0.88000000000E+00 0. -1.
        -11    1    4    4    0    0  0.30516925644E-02 -0.85751884519E-03  0.66945459043E-02  0.74247041654E-02  0.51100000000E-03 0. -1.
         11    1    4    4    0    0  0.98156372229E-01  0.34149887666E-01  0.63663986588E-01  0.12187802323E+00  0.51100000000E-03 0.  1.
</event>
<event>
 8    1  0.1064839E+005  0.1043930E+01  0.7957747E-01            NaN
         13   -1    0    0    0    0  0.00000000000E+00  0.00000000000E+00  0.74505805969E-08  0.10566000000E+00  0.10566000000E+00 0.  1.
     999900   -1    0    0    0    0 -0.00000000000E+00 -0.00000000000E+00 -0.74505805969E-08  0.93827000000E+00  0.93827000000E+00 0.  1.
     999902    2    1    2    0    0  0.95482159087E-02  0.89075569790E-02  0.18266485647E-01  0.10214761029E+01  0.10212292844E+01 0.  0.
     999903    2    3    3    0    0 -0.22857434002E-01  0.11813876703E+00  0.54221235838E-01  0.13340272333E+00  0.19419413260E-01 0.  0.
         14    1    1    2    0    0 -0.95482159087E-02 -0.89075569790E-02 -0.18266485647E-01  0.22453897129E-01  0.00000000000E+00 0. -1.
     999901    1    3    3    0    0  0.32405649911E-01 -0.10923121005E+00 -0.35954750191E-01  0.88807337954E+00  0.88000000000E+00 0.  1.
        -11    1    4    4    0    0 -0.55958120683E-02  0.47579276245E-01  0.31308763830E-01  0.57232861664E-01  0.51100000000E-03 0.  1.
         11    1    4    4    0    0 -0.17261621934E-01  0.70559490782E-01  0.22912472008E-01  0.76169861662E-01  0.51100000000E-03 0. -1.
</event>
<event>
 8    1  0.1064839E+005  0.1043930E+01  0.7957747E-01            NaN
         13   -1    0    0    0    0  0.00000000000E+00  0.00000000000E+00  0.74505805969E-08  0.10566000000E+00  0.10566000000E+00 0. -1.
     999900   -1    0    0    0    0 -0.00000000000E+00 -0.00000000000E+00 -0.74505805969E-08  0.93827000000E+00  0.93827000000E+00 0. -1.
     999902    2    1    2    0    0 -0.10929780188E-01  0.12257791392E-01 -0.17350534394E-01  0.10200395293E+01  0.10197597201E+01 0.  0.
     999903    2    3    3    0    0  0.66911463273E-01  0.32308228252E-02  0.10703012425E+00  0.12784487928E+00  0.20032062471E-01 0.  0.
         14    1    1    2    0    0  0.10929780188E-01 -0.12257791392E-01  0.17350534394E-01  0.23890470663E-01  0.00000000000E+00 0. -1.
     999901    1    3    3    0    0 -0.77841243461E-01  0.90269685666E-02 -0.12438065865E+00  0.89219465006E+00  0.88000000000E+00 0. -1.
        -11    1    4    4    0    0  0.24506432051E-01  0.77351378504E-02  0.27767908665E-01  0.37838015831E-01  0.51100000000E-03 0.  1.
         11    1    4    4    0    0  0.42405031222E-01 -0.45043150251E-02  0.79262215588E-01  0.90006863448E-01  0.51100000000E-03 0. -1.
</event>
<event>
 8    1  0.1064839E+005  0.1043930E+01  0.7957747E-01            NaN
         13   -1    0    0    0    0  0.00000000000E+00  0.00000000000E+00  0.74505805969E-08  0.10566000000E+00  0.10566000000E+00 0. -1.
     999900   -1    0    0    0    0 -0.00000000000E+00 -0.00000000000E+00 -0.74505805969E-08  0.93827000000E+00  0.93827000000E+00 0.  1.
     999902    2    1    2    0    0 -0.88478473856E-02 -0.21505071025E-01  0.21877509724E-02  0.10205732293E+01  0.10203059235E+01 0.  0.
     999903    2    3    3    0    0 -0.96311431510E-01 -0.77989361302E-01 -0.44622946075E-01  0.13319980455E+00  0.19817878296E-01 0.  0.
         14    1    1    2    0    0  0.88478473856E-02  0.21505071025E-01 -0.21877509724E-02  0.23356770698E-01  0.00000000000E+00 0.  1.
     999901    1    3    3    0    0  0.87463584124E-01  0.56484290277E-01  0.46810697048E-01  0.88737342475E+00  0.88000000000E+00 0. -1.
        -11    1    4    4    0    0 -0.80349092159E-01 -0.68392699464E-01 -0.44631498722E-01  0.11456775179E+00  0.51100000000E-03 0.  1.
         11    1    4    4    0    0 -0.15962339351E-01 -0.95966618375E-02  0.85526465230E-05  0.18632052762E-01  0.51100000000E-03 0. -1.
</event>
<event>
 8    1  0.1064839E+005  0.1043930E+01  0.7957747E-01            NaN
         13   -1    0    0    0    0  0.00000000000E+00  0.00000000000E+00  0.74505805969E-08  0.10566000000E+00  0.10566000000E+00 0.  1.
     999900   -1    0    0    0    0 -0.00000000000E+00 -0.00000000000E+00 -0.74505805969E-08  0.93827000000E+00  0.93827000000E+00 0. -1.
     999902    2    1    2    0    0  0.18112436164E-01  0.10354418781E-01  0.10040507570E-01  0.10207764663E+01  0.10205138451E+01 0.  0.
     999903    2    3    3    0    0 -0.12350263740E+00  0.31658392073E-01 -0.34553595793E-03  0.12913945591E+00  0.20535930561E-01 0.  0.
         14    1    1    2    0    0 -0.18112436164E-01 -0.10354418781E-01 -0.10040507570E-01  0.23153533733E-01  0.00000000000E+00 0. -1.
     999901    1    3    3    0    0  0.14161507356E+00 -0.21303973292E-01  0.10386043528E-01  0.89163701036E+00  0.88000000000E+00 0. -1.
        -11    1    4    4    0    0 -0.37630051662E-01  0.19514686818E-01 -0.11322986853E-02  0.42407393353E-01  0.51100000000E-03 0.  1.
         11    1    4    4    0    0 -0.85872585738E-01  0.12143705255E-01  0.78676272732E-03  0.86732062556E-01  0.51100000000E-03 0. -1.
</event>
<event>
 8    1  0.1064839E+005  0.1043930E+01  0.7957747E-01            NaN
         13   -1    0    0    0    0  0.00000000000E+00  0.00000000000E+00  0.74505805969E-08  0.10566000000E+00  0.10566000000E+00 0. -1.
     999900   -1    0    0    0    0 -0.00000000000E+00 -0.00000000000E+00 -0.74505805969E-08  0.93827000000E+00  0.93827000000E+00 0. -1.
     999902    2    1    2    0    0 -0.14238332970E-01 -0.13699156939E-01  0.52067174728E-02  0.10234970136E+01  0.10232930323E+01 0.  0.
     999903    2    3    3    0    0 -0.39296538287E-01 -0.62655236700E-01  0.11161238715E+00  0.13538284417E+00  0.20032296976E-01 0.  0.
         14    1    1    2    0    0  0.14238332970E-01  0.13699156939E-01 -0.52067174728E-02  0.20432986406E-01  0.00000000000E+00 0.  1.
     999901    1    3    3    0    0  0.25058205317E-01  0.48956079761E-01 -0.10640566968E+00  0.88811416943E+00  0.88000000000E+00 0. -1.
        -11    1    4    4    0    0 -0.27520075354E-01 -0.39106825424E-01  0.87309109858E-01  0.99548179930E-01  0.51100000000E-03 0. -1.
         11    1    4    4    0    0 -0.11776462933E-01 -0.23548411275E-01  0.24303277292E-01  0.35834664237E-01  0.51100000000E-03 0.  1.
</event>
<event>
 8    1  0.1064839E+005  0.1043930E+01  0.7957747E-01            NaN
         13   -1    0    0    0    0  0.00000000000E+00  0.00000000000E+00  0.74505805969E-08  0.10566000000E+00  0.10566000000E+00 0.  1.
     999900   -1    0    0    0    0 -0.00000000000E+00 -0.00000000000E+00 -0.74505805969E-08  0.93827000000E+00  0.93827000000E+00 0.  1.
     999902    2    1    2    0    0  0.13426391095E-01  0.16125688535E-01 -0.11502634225E-01  0.10200005954E+01  0.10197198627E+01 0.  0.
     999903    2    3    3    0    0 -0.70205024748E-01 -0.79632357572E-01 -0.70328512161E-01  0.12892018323E+00  0.20106122164E-01 0.  0.
         14    1    1    2    0    0 -0.13426391095E-01 -0.16125688535E-01  0.11502634225E-01  0.23929404562E-01  0.00000000000E+00 0. -1.
     999901    1    3    3    0    0  0.83631415843E-01  0.95758046107E-01  0.58825877936E-01  0.89108041221E+00  0.88000000000E+00 0. -1.
        -11    1    4    4    0    0 -0.46996683882E-01 -0.43593077175E-01 -0.33112095211E-01  0.72150652413E-01  0.51100000000E-03 0.  1.
         11    1    4    4    0    0 -0.23208340866E-01 -0.36039280397E-01 -0.37216416950E-01  0.56769530815E-01  0.51100000000E-03 0. -1.
</event>
<event>
 8    1  0.1064839E+005  0.1043930E+01  0.7957747E-01            NaN
         13   -1    0    0    0    0  0.00000000000E+00  0.00000000000E+00  0.74505805969E-08  0.10566000000E+00  0.10566000000E+00 0. -1.
     999900   -1    0    0    0    0 -0.00000000000E+00 -0.00000000000E+00 -0.74505805969E-08  0.93827000000E+00  0.93827000000E+00 0. -1.
     999902    2    1    2    0    0 -0.12352234946E-01  0.20894232629E-01 -0.41054022290E-02  0.10193129126E+01  0.10190156097E+01 0.  0.
     999903    2    3    3    0    0  0.11945781816E+00  0.28948693776E-01  0.32013179738E-01  0.12872697265E+00  0.20918714610E-01 0.  0.
         14    1    1    2    0    0  0.12352234946E-01 -0.20894232629E-01  0.41054022290E-02  0.24617087415E-01  0.00000000000E+00 0.  1.
     999901    1    3    3    0    0 -0.13181005310E+00 -0.80544611469E-02 -0.36118581967E-01  0.89058593993E+00  0.88000000000E+00 0. -1.
        -11    1    4    4    0    0  0.85876686477E-01  0.15356670487E-01  0.14325256659E-01  0.88408747916E-01  0.51100000000E-03 0. -1.
         11    1    4    4    0    0  0.33581131681E-01  0.13592023289E-01  0.17687923079E-01  0.40318224736E-01  0.51100000000E-03 0.  1.
</event>
<event>
 8    1  0.1064839E+005  0.1043930E+01  0.7957747E-01            NaN
         13   -1    0    0    0    0  0.00000000000E+00  0.00000000000E+00  0.74505805969E-08  0.10566000000E+00  0.10566000000E+00 0. -1.
     999900   -1    0    0    0    0 -0.00000000000E+00 -0.00000000000E+00 -0.74505805969E-08  0.93827000000E+00  0.93827000000E+00 0. -1.
     999902    2    1    2    0    0  0.21435113261E-01 -0.38265601589E-02  0.90894548996E-02  0.10203349829E+01  0.10200621317E+01 0.  0.
     999903    2    3    3    0    0 -0.12272488690E+00 -0.83886294461E-02 -0.28924262693E-01  0.12778360572E+00  0.18980778443E-01 0.  0.
         14    1    1    2    0    0 -0.21435113261E-01  0.38265601589E-02 -0.90894548996E-02  0.23595017134E-01  0.00000000000E+00 0. -1.
     999901    1    3    3    0    0  0.14416000016E+00  0.45620692872E-02  0.38013717593E-01  0.89255137715E+00  0.88000000000E+00 0.  1.
        -11    1    4    4    0    0 -0.13220914808E-01 -0.60666949368E-02 -0.66930416208E-02  0.16020465129E-01  0.51100000000E-03 0. -1.
         11    1    4    4    0    0 -0.10950397209E+00 -0.23219345093E-02 -0.22231221072E-01  0.11176314059E+00  0.51100000000E-03 0.  1.
</event>
<event>
 8    1  0.1064839E+005  0.1043930E+01  0.7957747E-01            NaN
         13   -1    0    0    0    0  0.00000000000E+00  0.00000000000E+00  0.74505805969E-08  0.10566000000E+00  0.10566000000E+00 0.  1.
     999900   -1    0    0    0    0 -0.00000000000E+00 -0.00000000000E+00 -0.74505805969E-08  0.93827000000E+00  0.93827000000E+00 0.  1.
     999902    2    1    2    0    0 -0.17646749383E-01  0.14847636184E-01  0.82723308039E-02  0.10194291526E+01  0.10191346848E+01 0.  0.
     999903    2    3    3    0    0  0.15500251959E-01 -0.49091060992E-01  0.11680248675E+00  0.12984179019E+00  0.23788221652E-01 0.  0.
         14    1    1    2    0    0  0.17646749383E-01 -0.14847636184E-01 -0.82723308039E-02  0.24500847352E-01  0.00000000000E+00 0.  1.
     999901    1    3    3    0    0 -0.33147001342E-01  0.63938697177E-01 -0.10853015594E+00  0.88958736246E+00  0.88000000000E+00 0.  1.
        -11    1    4    4    0    0 -0.44069373017E-02 -0.23927146351E-01  0.56897196859E-01  0.61882805046E-01  0.51100000000E-03 0.  1.
         11    1    4    4    0    0  0.19907189261E-01 -0.25163914641E-01  0.59905289888E-01  0.67958985145E-01  0.51100000000E-03 0. -1.
</event>
<event>
 8    1  0.1064839E+005  0.1043930E+01  0.7957747E-01            NaN
         13   -1    0    0    0    0  0.00000000000E+00  0.00000000000E+00  0.74505805969E-08  0.10566000000E+00  0.10566000000E+00 0. -1.
     999900   -1    0    0    0    0 -0.00000000000E+00 -0.00000000000E+00 -0.74505805969E-08  0.93827000000E+00  0.93827000000E+00 0.  1.
     999902    2    1    2    0    0 -0.17611323486E-01 -0.15033759842E-01 -0.56766482435E-02  0.10200889223E+01  0.10198102826E+01 0.  0.
     999903    2    3    3    0    0  0.18632207678E-01 -0.35751793603E-01 -0.12339530991E+00  0.13126919156E+00  0.19489695676E-01 0.  0.
         14    1    1    2    0    0  0.17611323486E-01  0.15033759842E-01  0.56766482435E-02  0.23841077686E-01  0.00000000000E+00 0.  1.
     999901    1    3    3    0    0 -0.36243531164E-01  0.20718033761E-01  0.11771866166E+00  0.88881973075E+00  0.88000000000E+00 0. -1.
        -11    1    4    4    0    0  0.19096488282E-01 -0.15738262378E-01 -0.68917553230E-01  0.73227447256E-01  0.51100000000E-03 0.  1.
         11    1    4    4    0    0 -0.46428060399E-03 -0.20013531225E-01 -0.54477756675E-01  0.58041744304E-01  0.51100000000E-03 0. -1.
</event>
<event>
 8    1  0.1064839E+005  0.1043930E+01  0.7957747E-01            NaN
         13   -1    0    0    0    0  0.00000000000E+00  0.00000000000E+00  0.74505805969E-08  0.10566000000E+00  0.10566000000E+00 0. -1.
     999900   -1    0    0    0    0 -0.00000000000E+00 -0.00000000000E+00 -0.74505805969E-08  0.93827000000E+00  0.93827000000E+00 0.  1.
     999902    2    1    2    0    0 -0.11712517207E-01 -0.17952418255E-01 -0.10922105117E-01  0.10198724698E+01  0.10195886866E+01 0.  0.
     999903    2    3    3    0    0  0.59254604416E-01  0.10604085478E+00 -0.34777197750E-01  0.12803182843E+00  0.20662153322E-01 0.  0.
         14    1    1    2    0    0  0.11712517207E-01  0.17952418255E-01  0.10922105117E-01  0.24057530229E-01  0.00000000000E+00 0. -1.
     999901    1    3    3    0    0 -0.70967121623E-01 -0.12399327304E+00  0.23855092633E-01  0.89184064134E+00  0.88000000000E+00 0. -1.
        -11    1    4    4    0    0  0.31883312117E-01  0.43551199689E-01 -0.72383872288E-02  0.54460150170E-01  0.51100000000E-03 0.  1.
         11    1    4    4    0    0  0.27371292299E-01  0.62489655091E-01 -0.27538810521E-01  0.73571678256E-01  0.51100000000E-03 0. -1.
</event>
<event>
 8    1  0.1064839E+005  0.1043930E+01  0.7957747E-01            NaN
         13   -1    0    0    0    0  0.00000000000E+00  0.00000000000E+00  0.74505805969E-08  0.10566000000E+00  0.10566000000E+00 0.  1.
     999900   -1    0    0    0    0 -0.00000000000E+00 -0.00000000000E+00 -0.74505805969E-08  0.93827000000E+00  0.93827000000E+00 0. -1.
     999902    2    1    2    0    0  0.41984810292E-02 -0.21706817891E-01  0.11231047115E-01  0.10191318225E+01  0.10188300752E+01 0.  0.
     999903    2    3    3    0    0  0.64339308900E-01  0.10459214520E+00  0.28603792919E-01  0.12791346571E+00  0.21554912069E-01 0.  0.
         14    1    1    2    0    0 -0.41984810292E-02  0.21706817891E-01 -0.11231047115E-01  0.24798177457E-01  0.00000000000E+00 0. -1.
     999901    1    3    3    0    0 -0.60140827871E-01 -0.12629896309E+00 -0.17372745804E-01  0.89121835683E+00  0.88000000000E+00 0. -1.
        -11    1    4    4    0    0  0.39937874261E-01  0.73399224811E-01  0.10012663227E-01  0.84160528451E-01  0.51100000000E-03 0. -1.
         11    1    4    4    0    0  0.24401434639E-01  0.31192920388E-01  0.18591129692E-01  0.43752937261E-01  0.51100000000E-03 0.  1.
</event>
<event>
 8    1  0.1064839E+005  0.1043930E+01  0.7957747E-01            NaN
         13   -1    0    0    0    0  0.00000000000E+00  0.00000000000E+00  0.74505805969E-08  0.10566000000E+00  0.10566000000E+00 0.  1.
     999900   -1    0    0    0    0 -0.00000000000E+00 -0.00000000000E+00 -0.74505805969E-08  0.93827000000E+00  0.93827000000E+00 0.  1.
     999902    2    1    2    0    0  0.12342368345E-01 -0.78047412682E-03  0.19894800374E-01  0.10205046659E+01  0.10202357702E+01 0.  0.
     999903    2    3    3    0    0  0.30798939983E-01 -0.11011624091E+00 -0.58672810782E-01  0.13007340832E+00  0.20060698167E-01 0.  0.
         14    1    1    2    0    0 -0.12342368345E-01  0.78047412682E-03 -0.19894800374E-01  0.23425334110E-01  0.00000000000E+00 0. -1.
     999901    1    3    3    0    0 -0.18456571637E-01  0.10933576678E+00  0.78567611156E-01  0.89043125757E+00  0.88000000000E+00 0. -1.
        -11    1    4    4    0    0  0.27934733793E-01 -0.10197001872E+00 -0.47408376139E-01  0.11587083032E+00  0.51100000000E-03 0.  1.
         11    1    4    4    0    0  0.28642061894E-02 -0.81462221919E-02 -0.11264434644E-01  0.14202578003E-01  0.51100000000E-03 0. -1.
</event>
<event>
 8    1  0.1064839E+005  0.1043930E+01  0.7957747E-01            NaN
         13   -1    0    0    0    0  0.00000000000E+00  0.00000000000E+00  0.74505805969E-08  0.10566000000E+00  0.10566000000E+00 0. -1.
     999900   -1    0    0    0    0 -0.00000000000E+00 -0.00000000000E+00 -0.74505805969E-08  0.93827000000E+00  0.93827000000E+00 0.  1.
     999902    2    1    2    0    0  0.25445398853E-01 -0.33693327437E-02 -0.21167548456E-02  0.10181753620E+01  0.10178495795E+01 0.  0.
     999903    2    3    3    0    0  0.64107009491E-01 -0.58517998082E-01 -0.95185601010E-01  0.13070823275E+00  0.22142237995E-01 0.  0.
         14    1    1    2    0    0 -0.25445398853E-01  0.33693327437E-02  0.21167548456E-02  0.25754637971E-01  0.00000000000E+00 0. -1.
     999901    1    3    3    0    0 -0.38661610638E-01  0.55148665339E-01  0.93068846165E-01  0.88746712928E+00  0.88000000000E+00 0. -1.
        -11    1    4    4    0    0  0.61562795980E-01 -0.49227033907E-01 -0.77389210969E-01  0.11046551413E+00  0.51100000000E-03 0. -1.
         11    1    4    4    0    0  0.25442135110E-02 -0.92909641756E-02 -0.17796390042E-01  0.20242718622E-01  0.51100000000E-03 0.  1.
</event>
<event>
 8    1  0.1064839E+005  0.1043930E+01  0.7957747E-01            NaN
         13   -1    0    0    0    0  0.00000000000E+00  0.00000000000E+00  0.74505805969E-08  0.10566000000E+00  0.10566000000E+00 0. -1.
     999900   -1    0    0    0    0 -0.00000000000E+00 -0.00000000000E+00 -0.74505805969E-08  0.93827000000E+00  0.93827000000E+00 0. -1.
     999902    2    1    2    0    0  0.31883666280E-02 -0.22849498986E-01  0.51957411582E-02  0.10202813000E+01  0.10200071912E+01 0.  0.
     999903    2    3    3    0    0  0.11418549137E+00 -0.45592257071E-01  0.43362958301E-01  0.13219665808E+00  0.21877612086E-01 0.  0.
         14    1    1    2    0    0 -0.31883666280E-02  0.22849498986E-01 -0.51957411582E-02  0.23648700003E-01  0.00000000000E+00 0. -1.
     999901    1    3    3    0    0 -0.11099712474E+00  0.22742758085E-01 -0.38167217142E-01  0.88808464192E+00  0.88000000000E+00 0. -1.
        -11    1    4    4    0    0  0.81390897887E-01 -0.37171961701E-01  0.40487240115E-01  0.98212579279E-01  0.51100000000E-03 0. -1.
         11    1    4    4    0    0  0.32794593483E-01 -0.84202953696E-02  0.28757181860E-02  0.33984078800E-01  0.51100000000E-03 0.  1.
</event>
<event>
 8    1  0.1064839E+005  0.1043930E+01  0.7957747E-01            NaN
         13   -1    0    0    0    0  0.00000000000E+00  0.00000000000E+00  0.74505805969E-08  0.10566000000E+00  0.10566000000E+00 0. -1.
     999900   -1    0    0    0    0 -0.00000000000E+00 -0.00000000000E+00 -0.74505805969E-08  0.93827000000E+00  0.93827000000E+00 0.  1.
     999902    2    1    2    0    0 -0.98108476044E-02 -0.67389751906E-02 -0.20062408274E-01  0.10206026182E+01  0.10203359924E+01 0.  0.
     999903    2    3    3    0    0  0.11208633933E+00 -0.33518301939E-01 -0.58313744300E-01  0.13097391965E+00  0.81762353411E-02 0.  0.
         14    1    1    2    0    0  0.98108476044E-02  0.67389751906E-02  0.20062408274E-01  0.23327381831E-01  0.00000000000E+00 0. -1.
     999901    1    3    3    0    0 -0.12189718693E+00  0.26779326748E-01  0.38251336026E-01  0.88962869852E+00  0.88000000000E+00 0.  1.
        -11    1    4    4    0    0  0.44764577767E-01 -0.10161856138E-01 -0.25623069374E-01  0.52573125720E-01  0.51100000000E-03 0. -1.
         11    1    4    4    0    0  0.67321761564E-01 -0.23356445801E-01 -0.32690674926E-01  0.78400793928E-01  0.51100000000E-03 0.  1.
</event>
<event>
 8    1  0.1064839E+005  0.1043930E+01  0.7957747E-01            NaN
         13   -1    0    0    0    0  0.00000000000E+00  0.00000000000E+00  0.74505805969E-08  0.10566000000E+00  0.10566000000E+00 0. -1.
     999900   -1    0    0    0    0 -0.00000000000E+00 -0.00000000000E+00 -0.74505805969E-08  0.93827000000E+00  0.93827000000E+00 0.  1.
     999902    2    1    2    0    0 -0.19668659622E-01  0.43939166391E-02 -0.11797436592E-01  0.10205774373E+01  0.10203102290E+01 0.  0.
     999903    2    3    3    0    0  0.47705203992E-01 -0.95084797430E-01  0.69695114802E-01  0.12868266324E+00  0.19619215112E-01 0.  0.
         14    1    1    2    0    0  0.19668659622E-01 -0.43939166391E-02  0.11797436592E-01  0.23352562705E-01  0.00000000000E+00 0.  1.
     999901    1    3    3    0    0 -0.67373863614E-01  0.99478714069E-01 -0.81492551393E-01  0.89189477405E+00  0.88000000000E+00 0.  1.
        -11    1    4    4    0    0  0.36451372253E-01 -0.81717005406E-01  0.64953506579E-01  0.11056939292E+00  0.51100000000E-03 0. -1.
         11    1    4    4    0    0  0.11253831739E-01 -0.13367792023E-01  0.47416082227E-02  0.18113270327E-01  0.51100000000E-03 0.  1.
</event>
<event>
 8    1  0.1093555E+005  0.1043930E+01  0.7957747E-01            NaN
         13   -1    0    0    0    0  0.00000000000E+00  0.00000000000E+00  0.74505805969E-08  0.10566000000E+00  0.10566000000E+00 0. -1.
     999900   -1    0    0    0    0 -0.00000000000E+00 -0.00000000000E+00 -0.74505805969E-08  0.93827000000E+00  0.93827000000E+00 0. -1.
     999902    2    1    2    0    0 -0.41555206834E-02  0.85372862865E-03 -0.23915044838E-01  0.10196415959E+01  0.10193522735E+01 0.  0.
     999903    2    3    3    0    0 -0.51910008932E-01 -0.37531679405E-01  0.10849549578E+00  0.12762899398E+00  0.20362011497E-01 0.  0.
         14    1    1    2    0    0  0.41555206834E-02 -0.85372862865E-03  0.23915044838E-01  0.24288404113E-01  0.00000000000E+00 0. -1.
     999901    1    3    3    0    0  0.47754488248E-01  0.38385408033E-01 -0.13241054062E+00  0.89201260191E+00  0.88000000000E+00 0. -1.
        -11    1    4    4    0    0 -0.18088859746E-01 -0.18099233200E-01  0.61102170319E-01  0.66245946503E-01  0.51100000000E-03 0. -1.
         11    1    4    4    0    0 -0.33821149186E-01 -0.19432446204E-01  0.47393325465E-01  0.61383047475E-01  0.51100000000E-03 0.  1.
</event>
<event>
 8    1  0.1064839E+005  0.1043930E+01  0.7957747E-01            NaN
         13   -1    0    0    0    0  0.00000000000E+00  0.00000000000E+00  0.74505805969E-08  0.10566000000E+00  0.10566000000E+00 0.  1.
     999900   -1    0    0    0    0 -0.00000000000E+00 -0.00000000000E+00 -0.74505805969E-08  0.93827000000E+00  0.93827000000E+00 0.  1.
     999902    2    1    2    0    0  0.99439865148E-02  0.20394585771E-01 -0.91257371360E-02  0.10194738949E+01  0.10191805146E+01 0.  0.
     999903    2    3    3    0    0  0.71929362513E-01 -0.85401741889E-01 -0.62094523937E-01  0.12939482982E+00  0.20493935007E-01 0.  0.
         14    1    1    2    0    0 -0.99439865148E-02 -0.20394585771E-01  0.91257371360E-02  0.24456105063E-01  0.00000000000E+00 0.  1.
     999901    1    3    3    0    0 -0.61985375998E-01  0.10579632766E+00  0.52968786801E-01  0.89007906512E+00  0.88000000000E+00 0. -1.
        -11    1    4    4    0    0  0.26233947886E-01 -0.19277878294E-01 -0.23982233819E-01  0.40438413336E-01  0.51100000000E-03 0. -1.
         11    1    4    4    0    0  0.45695414627E-01 -0.66123863595E-01 -0.38112290118E-01  0.88956416485E-01  0.51100000000E-03 0.  1.
</event>
<event>
 8    1  0.1064839E+005  0.1043930E+01  0.7957747E-01            NaN
         13   -1    0    0    0    0  0.00000000000E+00  0.00000000000E+00  0.74505805969E-08  0.10566000000E+00  0.10566000000E+00 0. -1.
     999900   -1    0    0    0    0 -0.00000000000E+00 -0.00000000000E+00 -0.74505805969E-08  0.93827000000E+00  0.93827000000E+00 0.  1.
     999902    2    1    2    0    0 -0.89265791284E-02  0.21831158833E-01  0.15997383331E-02  0.10202901507E+01  0.10200162495E+01 0.  0.
     999903    2    3    3    0    0 -0.28658962249E-01 -0.87827463063E-02  0.12584643980E+00  0.13081624950E+00  0.19418856138E-01 0.  0.
         14    1    1    2    0    0  0.89265791284E-02 -0.21831158833E-01 -0.15997383331E-02  0.23639849274E-01  0.00000000000E+00 0.  1.
     999901    1    3    3    0    0  0.19732383121E-01  0.30613905140E-01 -0.12424670147E+00  0.88947390122E+00  0.88000000000E+00 0.  1.
        -11    1    4    4    0    0 -0.81798604507E-02  0.56504111624E-02  0.48518672595E-01  0.49529384961E-01  0.51100000000E-03 0.  1.
         11    1    4    4    0    0 -0.20479101799E-01 -0.14433157469E-01  0.77327767206E-01  0.81286864542E-01  0.51100000000E-03 0. -1.
</event>
<event>
 8    1  0.1064839E+005  0.1043930E+01  0.7957747E-01            NaN
         13   -1    0    0    0    0  0.00000000000E+00  0.00000000000E+00  0.74505805969E-08  0.10566000000E+00  0.10566000000E+00 0. -1.
     999900   -1    0    0    0    0 -0.00000000000E+00 -0.00000000000E+00 -0.74505805969E-08  0.93827000000E+00  0.93827000000E+00 0.  1.
     999902    2    1    2    0    0  0.24850006416E-03  0.23597066307E-01  0.39561843817E-02  0.10200023030E+01  0.10197216107E+01 0.  0.
     999903    2    3    3    0    0  0.58524126210E-01  0.66251742794E-01 -0.95249335065E-01  0.13148825968E+00  0.20058909014E-01 0.  0.
         14    1    1    2    0    0 -0.24850006416E-03 -0.23597066307E-01 -0.39561843817E-02  0.23927697036E-01  0.00000000000E+00 0. -1.
     999901    1    3    3    0    0 -0.58275626145E-01 -0.42654676487E-01  0.99205519447E-01  0.88851404329E+00  0.88000000000E+00 0. -1.
        -11    1    4    4    0    0  0.39846871479E-01  0.36271599841E-01 -0.45817465271E-01  0.70731205041E-01  0.51100000000E-03 0.  1.
         11    1    4    4    0    0  0.18677254730E-01  0.29980142953E-01 -0.49431869794E-01  0.60757054636E-01  0.51100000000E-03 0. -1.
</event>
<event>
 8    1  0.1064839E+005  0.1043930E+01  0.7957747E-01            NaN
         13   -1    0    0    0    0  0.00000000000E+00  0.00000000000E+00  0.74505805969E-08  0.10566000000E+00  0.10566000000E+00 0. -1.
     999900   -1    0    0    0    0 -0.00000000000E+00 -0.00000000000E+00 -0.74505805969E-08  0.93827000000E+00  0.93827000000E+00 0. -1.
     999902    2    1    2    0    0  0.65851726400E-03 -0.36400835902E-02  0.23859927010E-01  0.10197850218E+01  0.10194991470E+01 0.  0.
     999903    2    3    3    0    0  0.11802692039E+00  0.39559221357E-01 -0.28960883194E-01  0.12937412793E+00  0.20090950463E-01 0.  0.
         14    1    1    2    0    0 -0.65851726400E-03  0.36400835902E-02 -0.23859927010E-01  0.24144978162E-01  0.00000000000E+00 0.  1.
     999901    1    3    3    0    0 -0.11736840313E+00 -0.43199304948E-01  0.52820810204E-01  0.89041089391E+00  0.88000000000E+00 0.  1.
        -11    1    4    4    0    0  0.76845026065E-01  0.26726826502E-01 -0.28577038102E-01  0.86234503034E-01  0.51100000000E-03 0.  1.
         11    1    4    4    0    0  0.41181894327E-01  0.12832394855E-01 -0.38384509170E-03  0.43139624895E-01  0.51100000000E-03 0. -1.
</event>
<event>
 8    1  0.1064839E+005  0.1043930E+01  0.7957747E-01            NaN
         13   -1    0    0    0    0  0.00000000000E+00  0.00000000000E+00  0.74505805969E-08  0.10566000000E+00  0.10566000000E+00 0.  1.
     999900   -1    0    0    0    0 -0.00000000000E+00 -0.00000000000E+00 -0.74505805969E-08  0.93827000000E+00  0.93827000000E+00 0.  1.
     999902    2    1    2    0    0 -0.42525601917E-02  0.17422308578E-01  0.15977313189E-01  0.10199113481E+01  0.10196284923E+01 0.  0.
     999903    2    3    3    0    0  0.90347087645E-01 -0.34514387294E-01 -0.81652663108E-01  0.12795948500E+00  0.18778531133E-01 0.  0.
         14    1    1    2    0    0  0.42525601917E-02 -0.17422308578E-01 -0.15977313189E-01  0.24018651942E-01  0.00000000000E+00 0. -1.
     999901    1    3    3    0    0 -0.94599647837E-01  0.51936695872E-01  0.97629976297E-01  0.89195186306E+00  0.88000000000E+00 0. -1.
        -11    1    4    4    0    0  0.76953111021E-01 -0.33742168446E-01 -0.63212048468E-01  0.10514912943E+00  0.51100000000E-03 0.  1.
         11    1    4    4    0    0  0.13393976624E-01 -0.77221884765E-03 -0.18440614640E-01  0.22810355566E-01  0.51100000000E-03 0. -1.
</event>
<event>
 8    1  0.1064839E+005  0.1043930E+01  0.7957747E-01            NaN
         13   -1    0    0    0    0  0.00000000000E+00  0.00000000000E+00  0.74505805969E-08  0.10566000000E+00  0.10566000000E+00 0. -1.
     999900   -1    0    0    0    0 -0.00000000000E+00 -0.00000000000E+00 -0.74505805969E-08  0.93827000000E+00  0.93827000000E+00 0.  1.
     999902    2    1    2    0    0  0.19965981321E-01  0.18871848165E-01 -0.50312028779E-02  0.10159997285E+01  0.10156157483E+01 0.  0.
     999903    2    3    3    0    0  0.45255487049E-01 -0.11387271776E+00 -0.17793830381E-01  0.12559332492E+00  0.21023984117E-01 0.  0.
         14    1    1    2    0    0 -0.19965981321E-01 -0.18871848165E-01  0.50312028779E-02  0.27930271493E-01  0.00000000000E+00 0. -1.
     999901    1    3    3    0    0 -0.25289505729E-01  0.13274456592E+00  0.12762627503E-01  0.89040640358E+00  0.88000000000E+00 0.  1.
        -11    1    4    4    0    0  0.13804805009E-01 -0.54219108002E-01 -0.42042804622E-03  0.55952856894E-01  0.51100000000E-03 0.  1.
         11    1    4    4    0    0  0.31450682041E-01 -0.59653609755E-01 -0.17373402335E-01  0.69640468029E-01  0.51100000000E-03 0. -1.
</event>
<event>
 8    1  0.1064839E+005  0.1043930E+01  0.7957747E-01            NaN
         13   -1    0    0    0    0  0.00000000000E+00  0.00000000000E+00  0.74505805969E-08  0.10566000000E+00  0.10566000000E+00 0.  1.
     999900   -1    0    0    0    0 -0.00000000000E+00 -0.00000000000E+00 -0.74505805969E-08  0.93827000000E+00  0.93827000000E+00 0. -1.
     999902    2    1    2    0    0  0.17757825057E-01 -0.51796949480E-02  0.12874912650E-01  0.10213926318E+01  0.10211439542E+01 0.  0.
     999903    2    3    3    0    0 -0.16277897868E-01  0.84023236260E-01 -0.95339463934E-01  0.12963821230E+00  0.19788342870E-01 0.  0.
         14    1    1    2    0    0 -0.17757825057E-01  0.51796949480E-02 -0.12874912650E-01  0.22537368219E-01  0.00000000000E+00 0.  1.
     999901    1    3    3    0    0  0.34035722925E-01 -0.89202931208E-01  0.10821437658E+00  0.89175441948E+00  0.88000000000E+00 0.  1.
        -11    1    4    4    0    0 -0.14892138579E-01  0.28500143146E-01 -0.38529171731E-01  0.50187569637E-01  0.51100000000E-03 0. -1.
         11    1    4    4    0    0 -0.13857592887E-02  0.55523093114E-01 -0.56810292202E-01  0.79450642659E-01  0.51100000000E-03 0.  1.
</event>
<event>
 8    1  0.1064839E+005  0.1043930E+01  0.7957747E-01            NaN
         13   -1    0    0    0    0  0.00000000000E+00  0.00000000000E+00  0.74505805969E-08  0.10566000000E+00  0.10566000000E+00 0.  1.
     999900   -1    0    0    0    0 -0.00000000000E+00 -0.00000000000E+00 -0.74505805969E-08  0.93827000000E+00  0.93827000000E+00 0. -1.
     999902    2    1    2    0    0  0.48041779278E-02 -0.18624189732E-01 -0.13651032652E-01  0.10203441725E+01  0.10200715362E+01 0.  0.
     999903    2    3    3    0    0  0.79487989048E-01  0.63371766003E-01  0.76622148808E-01  0.12880042384E+00  0.19602917221E-01 0.  0.
         14    1    1    2    0    0 -0.48041779278E-02  0.18624189732E-01  0.13651032652E-01  0.23585827549E-01  0.00000000000E+00 0.  1.
     999901    1    3    3    0    0 -0.74683811120E-01 -0.81995955735E-01 -0.90273181460E-01  0.89154374861E+00  0.88000000000E+00 0. -1.
        -11    1    4    4    0    0  0.55990620376E-01  0.34882527951E-01  0.55790503309E-01  0.86397810775E-01  0.51100000000E-03 0. -1.
         11    1    4    4    0    0  0.23497368672E-01  0.28489238052E-01  0.20831645500E-01  0.42402613062E-01  0.51100000000E-03 0.  1.
</event>
<event>
 8    1  0.1064839E+005  0.1043930E+01  0.7957747E-01            NaN
         13   -1    0    0    0    0  0.00000000000E+00  0.00000000000E+00  0.74505805969E-08  0.10566000000E+00  0.10566000000E+00 0. -1.
     999900   -1    0    0    0    0 -0.00000000000E+00 -0.00000000000E+00 -0.74505805969E-08  0.93827000000E+00  0.93827000000E+00 0.  1.
     999902    2    1    2    0    0 -0.85109298093E-02 -0.19400566483E-01 -0.10269999342E-01  0.10203866189E+01  0.10201149745E+01 0.  0.
     999903    2    3    3    0    0  0.10349094585E+00  0.71436292841E-01 -0.17431489365E-01  0.12862037034E+00  0.20635480071E-01 0.  0.
         14    1    1    2    0    0  0.85109298093E-02  0.19400566483E-01  0.10269999342E-01  0.23543381078E-01  0.00000000000E+00 0. -1.
     999901    1    3    3    0    0 -0.11200187566E+00 -0.90836859325E-01  0.71614900227E-02  0.89176624858E+00  0.88000000000E+00 0. -1.
        -11    1    4    4    0    0  0.84232269492E-02  0.13387471913E-01  0.29774023663E-03  0.15827979237E-01  0.51100000000E-03 0.  1.
         11    1    4    4    0    0  0.95067718903E-01  0.58048820928E-01 -0.17729229601E-01  0.11279239111E+00  0.51100000000E-03 0. -1.
</event>
<event>
 8    1  0.1064839E+005  0.1043930E+01  0.7957747E-01            NaN
         13   -1    0    0    0    0  0.00000000000E+00  0.00000000000E+00  0.74505805969E-08  0.10566000000E+00  0.10566000000E+00 0. -1.
     999900   -1    0    0    0    0 -0.00000000000E+00 -0.00000000000E+00 -0.74505805969E-08  0.93827000000E+00  0.93827000000E+00 0.  1.
     999902    2    1    2    0    0  0.88985941693E-02  0.12339885363E-01  0.16995250263E-01  0.10211199960E+01  0.10208651968E+01 0.  0.
     999903    2    3    3    0    0 -0.37486235113E-02  0.12775192398E+00 -0.27647134537E-01  0.13237209405E+00  0.20576709557E-01 0.  0.
         14    1    1    2    0    0 -0.88985941693E-02 -0.12339885363E-01 -0.16995250263E-01  0.22810003956E-01  0.00000000000E+00 0. -1.
     999901    1    3    3    0    0  0.12647217681E-01 -0.11541203862E+00  0.44642384800E-01  0.88874790199E+00  0.88000000000E+00 0. -1.
        -11    1    4    4    0    0  0.17222072951E-02  0.51288006760E-01 -0.20908990032E-01  0.55415454709E-01  0.51100000000E-03 0.  1.
         11    1    4    4    0    0 -0.54708308065E-02  0.76463917223E-01 -0.67381445049E-02  0.76956639344E-01  0.51100000000E-03 0. -1.
</event>
<event>
 8    1  0.1064839E+005  0.1043930E+01  0.7957747E-01            NaN
         13   -1    0    0    0    0  0.00000000000E+00  0.00000000000E+00  0.74505805969E-08  0.10566000000E+00  0.10566000000E+00 0. -1.
     999900   -1    0    0    0    0 -0.00000000000E+00 -0.00000000000E+00 -0.74505805969E-08  0.93827000000E+00  0.93827000000E+00 0. -1.
     999902    2    1    2    0    0  0.21885090071E-01  0.99827765498E-02  0.20947715019E-02  0.10197845851E+01  0.10194986998E+01 0.  0.
     999903    2    3    3    0    0 -0.11338603176E-02 -0.11176940539E+00  0.61685251967E-01  0.12910816163E+00  0.19239580818E-01 0.  0.
         14    1    1    2    0    0 -0.21885090071E-01 -0.99827765498E-02 -0.20947715019E-02  0.24145414942E-01  0.00000000000E+00 0.  1.
     999901    1    3    3    0    0  0.23018950389E-01  0.12175218194E+00 -0.59590480465E-01  0.89067642343E+00  0.88000000000E+00 0.  1.
        -11    1    4    4    0    0 -0.10046279055E-01 -0.52505542786E-01  0.27703240329E-01  0.60212045238E-01  0.51100000000E-03 0.  1.
         11    1    4    4    0    0  0.89124187378E-02 -0.59263862602E-01  0.33982011638E-01  0.68896116395E-01  0.51100000000E-03 0. -1.
</event>
<event>
 8    1  0.1064839E+005  0.1043930E+01  0.7957747E-01            NaN
         13   -1    0    0    0    0  0.00000000000E+00  0.00000000000E+00  0.74505805969E-08  0.10566000000E+00  0.10566000000E+00 0. -1.
     999900   -1    0    0    0    0 -0.00000000000E+00 -0.00000000000E+00 -0.74505805969E-08  0.93827000000E+00  0.93827000000E+00 0.  1.
     999902    2    1    2    0    0  0.11084297655E-01  0.41834887429E-03  0.21181008934E-01  0.10200203407E+01  0.10197400765E+01 0.  0.
     999903    2    3    3    0    0 -0.10482987977E+00  0.52571025100E-01  0.53805992397E-01  0.13028982657E+00  0.18092476771E-01 0.  0.
         14    1    1    2    0    0 -0.11084297655E-01 -0.41834887429E-03 -0.21181008934E-01  0.23909659340E-01  0.00000000000E+00 0.  1.
     999901    1    3    3    0    0  0.11591417743E+00 -0.52152676226E-01 -0.32624983463E-01  0.88973051410E+00  0.88000000000E+00 0.  1.
        -11    1    4    4    0    0 -0.65209533872E-01  0.22963238297E-01  0.33412396006E-01  0.76786997263E-01  0.51100000000E-03 0.  1.
         11    1    4    4    0    0 -0.39620345899E-01  0.29607786803E-01  0.20393596391E-01  0.53502829302E-01  0.51100000000E-03 0. -1.
</event>
<event>
 8    1  0.1064839E+005  0.1043930E+01  0.7957747E-01            NaN
         13   -1    0    0    0    0  0.00000000000E+00  0.00000000000E+00  0.74505805969E-08  0.10566000000E+00  0.10566000000E+00 0. -1.
     999900   -1    0    0    0    0 -0.00000000000E+00 -0.00000000000E+00 -0.74505805969E-08  0.93827000000E+00  0.93827000000E+00 0.  1.
     999902    2    1    2    0    0 -0.90818258807E-02  0.17059352266E-01 -0.12987647956E-01  0.10206452397E+01  0.10203795986E+01 0.  0.
     999903    2    3    3    0    0 -0.47172665352E-01  0.32787665870E-01 -0.11871656026E+00  0.13335898672E+00  0.19766291209E-01 0.  0.
         14    1    1    2    0    0  0.90818258807E-02 -0.17059352266E-01  0.12987647956E-01  0.23284760263E-01  0.00000000000E+00 0. -1.
     999901    1    3    3    0    0  0.38090839472E-01 -0.15728313604E-01  0.10572891231E+00  0.88728625302E+00  0.88000000000E+00 0. -1.
        -11    1    4    4    0    0 -0.26244455728E-02  0.22060740226E-02 -0.24515608742E-01  0.24759456176E-01  0.51100000000E-03 0.  1.
         11    1    4    4    0    0 -0.44548219780E-01  0.30581591847E-01 -0.94200951521E-01  0.10859953054E+00  0.51100000000E-03 0. -1.
</event>
<event>
 8    1  0.1064839E+005  0.1043930E+01  0.7957747E-01            NaN
         13   -1    0    0    0    0  0.00000000000E+00  0.00000000000E+00  0.74505805969E-08  0.10566000000E+00  0.10566000000E+00 0. -1.
     999900   -1    0    0    0    0 -0.00000000000E+00 -0.00000000000E+00 -0.74505805969E-08  0.93827000000E+00  0.93827000000E+00 0.  1.
     999902    2    1    2    0    0 -0.85949168972E-03 -0.19703732500E-01 -0.12519512429E-01  0.10205694779E+01  0.10203020853E+01 0.  0.
     999903    2    3    3    0    0 -0.54310966797E-01  0.67268513315E-01 -0.95983687660E-01  0.13074505688E+00  0.20166001182E-01 0.  0.
         14    1    1    2    0    0  0.85949168972E-03  0.19703732500E-01  0.12519512429E-01  0.23360522080E-01  0.00000000000E+00 0. -1.
     999901    1    3    3    0    0  0.53451475107E-01 -0.86972245815E-01  0.83464175230E-01  0.88982442104E+00  0.88000000000E+00 0. -1.
        -11    1    4    4    0    0 -0.14277187767E-01  0.84698021296E-02 -0.26707060410E-01  0.31450021230E-01  0.51100000000E-03 0.  1.
         11    1    4    4    0    0 -0.40033779030E-01  0.58798711186E-01 -0.69276627249E-01  0.99295035649E-01  0.51100000000E-03 0. -1.
</event>
<event>
 8    1  0.1064839E+005  0.1043930E+01  0.7957747E-01            NaN
         13   -1    0    0    0    0  0.00000000000E+00  0.00000000000E+00  0.74505805969E-08  0.10566000000E+00  0.10566000000E+00 0.  1.
     999900   -1    0    0    0    0 -0.00000000000E+00 -0.00000000000E+00 -0.74505805969E-08  0.93827000000E+00  0.93827000000E+00 0. -1.
     999902    2    1    2    0    0  0.21196733286E-01 -0.32125262077E-02  0.39053971811E-02  0.10221383972E+01  0.10219060764E+01 0.  0.
     999903    2    3    3    0    0  0.12401806115E+00  0.38143861813E-01  0.30354857694E-01  0.13479283300E+00  0.20304106947E-01 0.  0.
         14    1    1    2    0    0 -0.21196733286E-01  0.32125262077E-02 -0.39053971811E-02  0.21791602827E-01  0.00000000000E+00 0. -1.
     999901    1    3    3    0    0 -0.10282132786E+00 -0.41356388020E-01 -0.26449460512E-01  0.88734556417E+00  0.88000000000E+00 0.  1.
        -11    1    4    4    0    0  0.16497239235E-01  0.12543533938E-01  0.31757597486E-02  0.20972499064E-01  0.51100000000E-03 0. -1.
         11    1    4    4    0    0  0.10752082191E+00  0.25600327875E-01  0.27179097945E-01  0.11382033394E+00  0.51100000000E-03 0.  1.
</event>
<event>
 8    1  0.1064839E+005  0.1043930E+01  0.7957747E-01            NaN
         13   -1    0    0    0    0  0.00000000000E+00  0.00000000000E+00  0.74505805969E-08  0.10566000000E+00  0.10566000000E+00 0.  1.
     999900   -1    0    0    0    0 -0.00000000000E+00 -0.00000000000E+00 -0.74505805969E-08  0.93827000000E+00  0.93827000000E+00 0. -1.
     999902    2    1    2    0    0 -0.42887383936E-02  0.21977803230E-01  0.64516305478E-02  0.10206267674E+01  0.10203606998E+01 0.  0.
     999903    2    3    3    0    0  0.10168444413E+00  0.51948706323E-01  0.62525259862E-01  0.13199139656E+00  0.21769850214E-01 0.  0.
         14    1    1    2    0    0  0.42887383936E-02 -0.21977803230E-01 -0.64516305478E-02  0.23303232578E-01  0.00000000000E+00 0. -1.
     999901    1    3    3    0    0 -0.10597318252E+00 -0.29970903093E-01 -0.56073629314E-01  0.88863537086E+00  0.88000000000E+00 0. -1.
        -11    1    4    4    0    0  0.35983836030E-01  0.24586854130E-01  0.34154919150E-01  0.55373003121E-01  0.51100000000E-03 0. -1.
         11    1    4    4    0    0  0.65700608098E-01  0.27361852193E-01  0.28370340713E-01  0.76618393438E-01  0.51100000000E-03 0.  1.
</event>
<event>
 8    1  0.1064839E+005  0.1043930E+01  0.7957747E-01            NaN
         13   -1    0    0    0    0  0.00000000000E+00  0.00000000000E+00  0.74505805969E-08  0.10566000000E+00  0.10566000000E+00 0.  1.
     999900   -1    0    0    0    0 -0.00000000000E+00 -0.00000000000E+00 -0.74505805969E-08  0.93827000000E+00  0.93827000000E+00 0.  1.
     999902    2    1    2    0    0 -0.14816349339E-01  0.17295263290E-01 -0.71752841665E-02  0.10200524992E+01  0.10197729974E+01 0.  0.
     999903    2    3    3    0    0  0.57208258111E-01 -0.64856966104E-01 -0.93606934717E-01  0.12909404729E+00  0.20586499712E-01 0.  0.
         14    1    1    2    0    0  0.14816349339E-01 -0.17295263290E-01  0.71752841665E-02  0.23877500767E-01  0.00000000000E+00 0.  1.
     999901    1    3    3    0    0 -0.72024607449E-01  0.82152229394E-01  0.86431650550E-01  0.89095845194E+00  0.88000000000E+00 0. -1.
        -11    1    4    4    0    0  0.21129369601E-01 -0.19269164473E-01 -0.18295405987E-01  0.33951936034E-01  0.51100000000E-03 0.  1.
         11    1    4    4    0    0  0.36078888509E-01 -0.45587801630E-01 -0.75311528730E-01  0.95142111255E-01  0.51100000000E-03 0. -1.
</event>
<event>
 8    1  0.1064839E+005  0.1043930E+01  0.7957747E-01            NaN
         13   -1    0    0    0    0  0.00000000000E+00  0.00000000000E+00  0.74505805969E-08  0.10566000000E+00  0.10566000000E+00 0.  1.
     999900   -1    0    0    0    0 -0.00000000000E+00 -0.00000000000E+00 -0.74505805969E-08  0.93827000000E+00  0.93827000000E+00 0. -1.
     999902    2    1    2    0    0 -0.19951024801E-01  0.13372400282E-01 -0.78829473003E-03  0.10198990639E+01  0.10196159153E+01 0.  0.
     999903    2    3    3    0    0 -0.12466626119E+00  0.32130870913E-01 -0.26933586472E-01  0.13310667716E+00  0.20442599607E-01 0.  0.
         14    1    1    2    0    0  0.19951024801E-01 -0.13372400282E-01  0.78829473003E-03  0.24030936072E-01  0.00000000000E+00 0. -1.
     999901    1    3    3    0    0  0.10471523639E+00 -0.18758470631E-01  0.26145291742E-01  0.88679238677E+00  0.88000000000E+00 0.  1.
        -11    1    4    4    0    0 -0.59055376765E-01  0.25712208899E-01 -0.14322732854E-01  0.65985278727E-01  0.51100000000E-03 0. -1.
         11    1    4    4    0    0 -0.65610884427E-01  0.64186620135E-02 -0.12610853618E-01  0.67121398431E-01  0.51100000000E-03 0.  1.
</event>
<event>
 8    1  0.1064839E+005  0.1043930E+01  0.7957747E-01            NaN
         13   -1    0    0    0    0  0.00000000000E+00  0.00000000000E+00  0.74505805969E-08  0.10566000000E+00  0.10566000000E+00 0. -1.
     999900   -1    0    0    0    0 -0.00000000000E+00 -0.00000000000E+00 -0.74505805969E-08  0.93827000000E+00  0.93827000000E+00 0.  1.
     999902    2    1    2    0    0 -0.11129910466E-01  0.19766373937E-01  0.72779725913E-02  0.10201066222E+01  0.10198284009E+01 0.  0.
     999903    2    3    3    0    0  0.11135713623E+00 -0.37696715516E-01 -0.46720499412E-01  0.12813077148E+00  0.20328191863E-01 0.  0.
         14    1    1    2    0    0  0.11129910466E-01 -0.19766373937E-01 -0.72779725913E-02  0.23823377818E-01  0.00000000000E+00 0. -1.
     999901    1    3    3    0    0 -0.12248704670E+00  0.57463089453E-01  0.53998472004E-01  0.89197585070E+00  0.88000000000E+00 0. -1.
        -11    1    4    4    0    0  0.69468694090E-01 -0.13374288226E-01 -0.30573838681E-01  0.77070044614E-01  0.51100000000E-03 0. -1.
         11    1    4    4    0    0  0.41888442141E-01 -0.24322427290E-01 -0.16146660731E-01  0.51060726866E-01  0.51100000000E-03 0.  1.
</event>
<event>
 8    1  0.1064839E+005  0.1043930E+01  0.7957747E-01            NaN
         13   -1    0    0    0    0  0.00000000000E+00  0.00000000000E+00  0.74505805969E-08  0.10566000000E+00  0.10566000000E+00 0.  1.
     999900   -1    0    0    0    0 -0.00000000000E+00 -0.00000000000E+00 -0.74505805969E-08  0.93827000000E+00  0.93827000000E+00 0.  1.
     999902    2    1    2    0    0  0.24848556818E-01 -0.51171615083E-02  0.13024967753E-01  0.10154118321E+01  0.10150112821E+01 0.  0.
     999903    2    3    3    0    0  0.35027812210E-01  0.10532046469E+00  0.58383595960E-01  0.12729163092E+00  0.21798328235E-01 0.  0.
         14    1    1    2    0    0 -0.24848556818E-01  0.51171615083E-02 -0.13024967753E-01  0.28518167942E-01  0.00000000000E+00 0.  1.
     999901    1    3    3    0    0 -0.10179255392E-01 -0.11043762620E+00 -0.45358628207E-01  0.88812020114E+00  0.88000000000E+00 0. -1.
        -11    1    4    4    0    0  0.18629718347E-01  0.39222030098E-01  0.33270777149E-01  0.54705025215E-01  0.51100000000E-03 0. -1.
         11    1    4    4    0    0  0.16398093862E-01  0.66098434591E-01  0.25112818811E-01  0.72586605702E-01  0.51100000000E-03 0.  1.
</event>
<event>
 8    1  0.1064839E+005  0.1043930E+01  0.7957747E-01            NaN
         13   -1    0    0    0    0  0.00000000000E+00  0.00000000000E+00  0.74505805969E-08  0.10566000000E+00  0.10566000000E+00 0. -1.
     999900   -1    0    0    0    0 -0.00000000000E+00 -0.00000000000E+00 -0.74505805969E-08  0.93827000000E+00  0.93827000000E+00 0.  1.
     999902    2    1    2    0    0 -0.18367995229E-01  0.12737250594E-01  0.36789356731E-03  0.10215747736E+01  0.10213301435E+01 0.  0.
     999903    2    3    3    0    0  0.43970452461E-01 -0.10118712943E+00  0.65092960294E-01  0.12969239308E+00  0.20267893121E-01 0.  0.
         14    1    1    2    0    0  0.18367995229E-01 -0.12737250594E-01 -0.36789356731E-03  0.22355226393E-01  0.00000000000E+00 0.  1.
     999901    1    3    3    0    0 -0.62338447690E-01  0.11392438003E+00 -0.64725066727E-01  0.89188238052E+00  0.88000000000E+00 0.  1.
        -11    1    4    4    0    0  0.13947134937E-01 -0.27176399327E-01  0.28717551272E-01  0.41928965232E-01  0.51100000000E-03 0.  1.
         11    1    4    4    0    0  0.30023317524E-01 -0.74010730105E-01  0.36375409022E-01  0.87763427852E-01  0.51100000000E-03 0. -1.
</event>
<event>
 8    1  0.1064839E+005  0.1043930E+01  0.7957747E-01            NaN
         13   -1    0    0    0    0  0.00000000000E+00  0.00000000000E+00  0.74505805969E-08  0.10566000000E+00  0.10566000000E+00 0. -1.
     999900   -1    0    0    0    0 -0.00000000000E+00 -0.00000000000E+00 -0.74505805969E-08  0.93827000000E+00  0.93827000000E+00 0. -1.
     999902    2    1    2    0    0  0.15424074022E-01  0.17822974126E-01  0.21943875605E-02  0.10202577419E+01  0.10199830803E+01 0.  0.
     999903    2    3    3    0    0 -0.11665182460E-01 -0.28966245550E-02 -0.12792880972E+00  0.13003576058E+00  0.19976279814E-01 0.  0.
         14    1    1    2    0    0 -0.15424074022E-01 -0.17822974126E-01 -0.21943875605E-02  0.23672258086E-01  0.00000000000E+00 0.  1.
     999901    1    3    3    0    0  0.27089256482E-01  0.20719598681E-01  0.13012319729E+00  0.89022198134E+00  0.88000000000E+00 0.  1.
        -11    1    4    4    0    0  0.54118219972E-02  0.15335593003E-02 -0.33104647768E-01  0.33583008297E-01  0.51100000000E-03 0.  1.
         11    1    4    4    0    0 -0.17077004457E-01 -0.44301838553E-02 -0.94824161957E-01  0.96452752278E-01  0.51100000000E-03 0. -1.
</event>
<event>
 8    1  0.1064839E+005  0.1043930E+01  0.7957747E-01            NaN
         13   -1    0    0    0    0  0.00000000000E+00  0.00000000000E+00  0.74505805969E-08  0.10566000000E+00  0.10566000000E+00 0. -1.
     999900   -1    0    0    0    0 -0.00000000000E+00 -0.00000000000E+00 -0.74505805969E-08  0.93827000000E+00  0.93827000000E+00 0. -1.
     999902    2    1    2    0    0 -0.17680943124E-02 -0.23727533149E-01 -0.48293053802E-02  0.10196515285E+01  0.10193624456E+01 0.  0.
     999903    2    3    3    0    0 -0.87622512738E-01  0.47558241205E-01 -0.80006351735E-01  0.12942446137E+00  0.20252995788E-01 0.  0.
         14    1    1    2    0    0  0.17680943124E-02  0.23727533149E-01  0.48293053802E-02  0.24278471478E-01  0.00000000000E+00 0. -1.
     999901    1    3    3    0    0  0.85854418425E-01 -0.71285774354E-01  0.75177046355E-01  0.89022706715E+00  0.88000000000E+00 0. -1.
        -11    1    4    4    0    0 -0.67484666389E-01  0.36026409596E-01 -0.71474450633E-01  0.10469451084E+00  0.51100000000E-03 0.  1.
         11    1    4    4    0    0 -0.20137846349E-01  0.11531831609E-01 -0.85319011028E-02  0.24729950531E-01  0.51100000000E-03 0. -1.
</event>
<event>
 8    1  0.1064839E+005  0.1043930E+01  0.7957747E-01            NaN
         13   -1    0    0    0    0  0.00000000000E+00  0.00000000000E+00  0.74505805969E-08  0.10566000000E+00  0.10566000000E+00 0. -1.
     999900   -1    0    0    0    0 -0.00000000000E+00 -0.00000000000E+00 -0.74505805969E-08  0.93827000000E+00  0.93827000000E+00 0. -1.
     999902    2    1    2    0    0  0.14752759648E-02  0.23962649994E-01  0.71443670523E-02  0.10188815067E+01  0.10185735603E+01 0.  0.
     999903    2    3    3    0    0  0.21165592500E-01  0.88618516591E-01  0.94239411987E-01  0.13200291499E+00  0.15571737423E-01 0.  0.
         14    1    1    2    0    0 -0.14752759648E-02 -0.23962649994E-01 -0.71443670523E-02  0.25048493258E-01  0.00000000000E+00 0.  1.
     999901    1    3    3    0    0 -0.19690316535E-01 -0.64655866596E-01 -0.87095044934E-01  0.88687859175E+00  0.88000000000E+00 0. -1.
        -11    1    4    4    0    0  0.14654890448E-01  0.30023498267E-01  0.31798699609E-01  0.46125856957E-01  0.51100000000E-03 0.  1.
         11    1    4    4    0    0  0.65107020517E-02  0.58595018324E-01  0.62440712378E-01  0.85877058035E-01  0.51100000000E-03 0. -1.
</event>
<event>
 8    1  0.1064839E+005  0.1043930E+01  0.7957747E-01            NaN
         13   -1    0    0    0    0  0.00000000000E+00  0.00000000000E+00  0.74505805969E-08  0.10566000000E+00  0.10566000000E+00 0.  1.
     999900   -1    0    0    0    0 -0.00000000000E+00 -0.00000000000E+00 -0.74505805969E-08  0.93827000000E+00  0.93827000000E+00 0. -1.
     999902    2    1    2    0    0 -0.20706954157E-01  0.24898798576E-02 -0.10601217124E-01  0.10205342043E+01  0.10202659942E+01 0.  0.
     999903    2    3    3    0    0  0.56183293820E-01 -0.42940530509E-01 -0.10806134778E+00  0.13066089338E+00  0.19863597584E-01 0.  0.
         14    1    1    2    0    0  0.20706954157E-01 -0.24898798576E-02  0.10601217124E-01  0.23395795705E-01  0.00000000000E+00 0.  1.
     999901    1    3    3    0    0 -0.76890247977E-01  0.45430410367E-01  0.97460130655E-01  0.88987331092E+00  0.88000000000E+00 0.  1.
        -11    1    4    4    0    0  0.52187184971E-01 -0.33938276929E-01 -0.10055735234E+00  0.11826813243E+00  0.51100000000E-03 0. -1.
         11    1    4    4    0    0  0.39961088493E-02 -0.90022535802E-02 -0.75039954337E-02  0.12392760948E-01  0.51100000000E-03 0.  1.
</event>
<event>
 8    1  0.1064839E+005  0.1043930E+01  0.7957747E-01            NaN
         13   -1    0    0    0    0  0.00000000000E+00  0.00000000000E+00  0.74505805969E-08  0.10566000000E+00  0.10566000000E+00 0.  1.
     999900   -1    0    0    0    0 -0.00000000000E+00 -0.00000000000E+00 -0.74505805969E-08  0.93827000000E+00  0.93827000000E+00 0.  1.
     999902    2    1    2    0    0  0.25229929231E-01 -0.25763320759E-02 -0.47054076510E-04  0.10185688283E+01  0.10182530476E+01 0.  0.
     999903    2    3    3    0    0  0.44046951824E-01  0.51101344613E-01 -0.10926006075E+00  0.12999533435E+00  0.20237210621E-01 0.  0.
         14    1    1    2    0    0 -0.25229929231E-01  0.25763320759E-02  0.47054076510E-04  0.25361171702E-01  0.00000000000E+00 0. -1.
     999901    1    3    3    0    0 -0.18817022592E-01 -0.53677676689E-01  0.10921300667E+00  0.88857349394E+00  0.88000000000E+00 0. -1.
        -11    1    4    4    0    0  0.11094914795E-01  0.19578341324E-01 -0.21675627433E-01  0.31249040448E-01  0.51100000000E-03 0. -1.
         11    1    4    4    0    0  0.32952037029E-01  0.31523003289E-01 -0.87584433312E-01  0.98746293907E-01  0.51100000000E-03 0.  1.
</event>
<event>
 8    1  0.1064839E+005  0.1043930E+01  0.7957747E-01            NaN
         13   -1    0    0    0    0  0.00000000000E+00  0.00000000000E+00  0.74505805969E-08  0.10566000000E+00  0.10566000000E+00 0. -1.
     999900   -1    0    0    0    0 -0.00000000000E+00 -0.00000000000E+00 -0.74505805969E-08  0.93827000000E+00  0.93827000000E+00 0.  1.
     999902    2    1    2    0    0  0.27591418188E-04  0.22608447081E-01  0.67486107239E-02  0.10203357976E+01  0.10200629654E+01 0.  0.
     999903    2    3    3    0    0 -0.10274840858E+00 -0.32327844122E-01 -0.69214824395E-01  0.12940855828E+00  0.18803139838E-01 0.  0.
         14    1    1    2    0    0 -0.27591418188E-04 -0.22608447081E-01 -0.67486107239E-02  0.23594202411E-01  0.00000000000E+00 0.  1.
     999901    1    3    3    0    0  0.10277600000E+00  0.54936291203E-01  0.75963435119E-01  0.89092723931E+00  0.88000000000E+00 0. -1.
        -11    1    4    4    0    0 -0.38871701966E-01 -0.93912021547E-02 -0.36154731015E-01  0.53913167107E-01  0.51100000000E-03 0. -1.
         11    1    4    4    0    0 -0.63876706618E-01 -0.22936641967E-01 -0.33060093380E-01  0.75495391173E-01  0.51100000000E-03 0.  1.
</event>
<event>
 8    1  0.1064839E+005  0.1043930E+01  0.7957747E-01            NaN
         13   -1    0    0    0    0  0.00000000000E+00  0.00000000000E+00  0.74505805969E-08  0.10566000000E+00  0.10566000000E+00 0.  1.
     999900   -1    0    0    0    0 -0.00000000000E+00 -0.00000000000E+00 -0.74505805969E-08  0.93827000000E+00  0.93827000000E+00 0. -1.
     999902    2    1    2    0    0  0.11860724173E-01 -0.11192490589E-01  0.17985172012E-01  0.10196521287E+01  0.10193630602E+01 0.  0.
     999903    2    3    3    0    0 -0.79747240761E-01 -0.70198905243E-01  0.74438821171E-01  0.13113606765E+00  0.19183884764E-01 0.  0.
         14    1    1    2    0    0 -0.11860724173E-01  0.11192490589E-01 -0.17985172012E-01  0.24277871319E-01  0.00000000000E+00 0. -1.
     999901    1    3    3    0    0  0.91607964934E-01  0.59006414655E-01 -0.56453649159E-01  0.88851606103E+00  0.88000000000E+00 0.  1.
        -11    1    4    4    0    0 -0.40893054889E-01 -0.25894261329E-01  0.26597272352E-01  0.55230704554E-01  0.51100000000E-03 0. -1.
         11    1    4    4    0    0 -0.38854185871E-01 -0.44304643915E-01  0.47841548819E-01  0.75905363094E-01  0.51100000000E-03 0.  1.
</event>
<event>
 8    1  0.1064839E+005  0.1043930E+01  0.7957747E-01            NaN
         13   -1    0    0    0    0  0.00000000000E+00  0.00000000000E+00  0.74505805969E-08  0.10566000000E+00  0.10566000000E+00 0.  1.
     999900   -1    0    0    0    0 -0.00000000000E+00 -0.00000000000E+00 -0.74505805969E-08  0.93827000000E+00  0.93827000000E+00 0.  1.
     999902    2    1    2    0    0  0.18380730680E-01 -0.97191342491E-02 -0.12802007255E-01  0.10195127065E+01  0.10192202679E+01 0.  0.
     999903    2    3    3    0    0 -0.75772716234E-01 -0.98143293672E-01 -0.33277184508E-01  0.12984819874E+00  0.19482635555E-01 0.  0.
         14    1    1    2    0    0 -0.18380730680E-01  0.97191342491E-02  0.12802007255E-01  0.24417293475E-01  0.00000000000E+00 0.  1.
     999901    1    3    3    0    0  0.94153446913E-01  0.88424159423E-01  0.20475177252E-01  0.88966450779E+00  0.88000000000E+00 0. -1.
        -11    1    4    4    0    0 -0.12084291092E-01 -0.21778481315E-01  0.23942806681E-03  0.24912863873E-01  0.51100000000E-03 0.  1.
         11    1    4    4    0    0 -0.63688425142E-01 -0.76364812357E-01 -0.33516612574E-01  0.10493533486E+00  0.51100000000E-03 0. -1.
</event>
<event>
 8    1  0.1064839E+005  0.1043930E+01  0.7957747E-01            NaN
         13   -1    0    0    0    0  0.00000000000E+00  0.00000000000E+00  0.74505805969E-08  0.10566000000E+00  0.10566000000E+00 0.  1.
     999900   -1    0    0    0    0 -0.00000000000E+00 -0.00000000000E+00 -0.74505805969E-08  0.93827000000E+00  0.93827000000E+00 0. -1.
     999902    2    1    2    0    0 -0.20617397585E-01  0.79242003795E-02  0.89968167045E-02  0.10200802045E+01  0.10198013585E+01 0.  0.
     999903    2    3    3    0    0 -0.11793097099E+00 -0.42544413118E-01 -0.38163720104E-01  0.13202551657E+00  0.16016444232E-01 0.  0.
         14    1    1    2    0    0  0.20617397585E-01 -0.79242003795E-02 -0.89968167045E-02  0.23849795505E-01  0.00000000000E+00 0. -1.
     999901    1    3    3    0    0  0.97313573408E-01  0.50468613498E-01  0.47160536809E-01  0.88805468793E+00  0.88000000000E+00 0. -1.
        -11    1    4    4    0    0 -0.80606766576E-01 -0.23309370537E-01 -0.19928706691E-01  0.86244953731E-01  0.51100000000E-03 0.  1.
         11    1    4    4    0    0 -0.37324204417E-01 -0.19235042582E-01 -0.18235013413E-01  0.45780562837E-01  0.51100000000E-03 0. -1.
</event>
<event>
 8    1  0.1064839E+005  0.1043930E+01  0.7957747E-01            NaN
         13   -1    0    0    0    0  0.00000000000E+00  0.00000000000E+00  0.74505805969E-08  0.10566000000E+00  0.10566000000E+00 0. -1.
     999900   -1    0    0    0    0 -0.00000000000E+00 -0.00000000000E+00 -0.74505805969E-08  0.93827000000E+00  0.93827000000E+00 0.  1.
     999902    2    1    2    0    0 -0.55442438257E-03  0.10780568969E-01 -0.19543694567E-01  0.10216032436E+01  0.10213592430E+01 0.  0.
     999903    2    3    3    0    0 -0.69797824672E-01  0.44839433130E-01  0.98547756040E-01  0.13036800787E+00  0.20046100954E-01 0.  0.
         14    1    1    2    0    0  0.55442438257E-03 -0.10780568969E-01  0.19543694567E-01  0.22326756392E-01  0.00000000000E+00 0. -1.
     999901    1    3    3    0    0  0.69243400290E-01 -0.34058864161E-01 -0.11809145061E+00  0.89123523574E+00  0.88000000000E+00 0.  1.
        -11    1    4    4    0    0 -0.55641368935E-01  0.25935852200E-01  0.76158000143E-01  0.97820920426E-01  0.51100000000E-03 0.  1.
         11    1    4    4    0    0 -0.14156455738E-01  0.18903580930E-01  0.22389755897E-01  0.32547087445E-01  0.51100000000E-03 0. -1.
</event>
<event>
 8    1  0.1064839E+005  0.1043930E+01  0.7957747E-01            NaN
         13   -1    0    0    0    0  0.00000000000E+00  0.00000000000E+00  0.74505805969E-08  0.10566000000E+00  0.10566000000E+00 0. -1.
     999900   -1    0    0    0    0 -0.00000000000E+00 -0.00000000000E+00 -0.74505805969E-08  0.93827000000E+00  0.93827000000E+00 0.  1.
     999902    2    1    2    0    0 -0.27157471283E-01 -0.23189585246E-01  0.15628681556E-02  0.10081846833E+01  0.10075508066E+01 0.  0.
     999903    2    3    3    0    0  0.54846472148E-01  0.48882233691E-01 -0.88901194015E-01  0.11683585125E+00  0.18697207335E-01 0.  0.
         14    1    1    2    0    0  0.27157471283E-01  0.23189585246E-01 -0.15628681556E-02  0.35745316718E-01  0.00000000000E+00 0. -1.
     999901    1    3    3    0    0 -0.82003943430E-01 -0.72071818937E-01  0.90464062171E-01  0.89134883203E+00  0.88000000000E+00 0. -1.
        -11    1    4    4    0    0  0.63376801709E-02  0.41283655415E-02 -0.22444394256E-02  0.79062140957E-02  0.51100000000E-03 0. -1.
         11    1    4    4    0    0  0.48508791977E-01  0.44753868149E-01 -0.86656754589E-01  0.10892963715E+00  0.51100000000E-03 0.  1.
</event>
<event>
 8    1  0.1064839E+005  0.1043930E+01  0.7957747E-01            NaN
         13   -1    0    0    0    0  0.00000000000E+00  0.00000000000E+00  0.74505805969E-08  0.10566000000E+00  0.10566000000E+00 0. -1.
     999900   -1    0    0    0    0 -0.00000000000E+00 -0.00000000000E+00 -0.74505805969E-08  0.93827000000E+00  0.93827000000E+00 0. -1.
     999902    2    1    2    0    0 -0.14126456146E-01 -0.17905481920E-01 -0.65418829230E-02  0.10202032371E+01  0.10199272943E+01 0.  0.
     999903    2    3    3    0    0 -0.24499249481E-01  0.11863276364E+00 -0.39537572988E-01  0.12900236024E+00  0.20110779041E-01 0.  0.
         14    1    1    2    0    0  0.14126456146E-01  0.17905481920E-01  0.65418829230E-02  0.23726762910E-01  0.00000000000E+00 0. -1.
     999901    1    3    3    0    0  0.10372793335E-01 -0.13653824556E+00  0.32995690065E-01  0.89120087685E+00  0.88000000000E+00 0. -1.
        -11    1    4    4    0    0  0.36388948283E-03  0.41824273789E-01 -0.17268828832E-01  0.45253462451E-01  0.51100000000E-03 0.  1.
         11    1    4    4    0    0 -0.24863138964E-01  0.76808489854E-01 -0.22268744156E-01  0.83748897784E-01  0.51100000000E-03 0. -1.
</event>
<event>
 8    1  0.1064839E+005  0.1043930E+01  0.7957747E-01            NaN
         13   -1    0    0    0    0  0.00000000000E+00  0.00000000000E+00  0.74505805969E-08  0.10566000000E+00  0.10566000000E+00 0.  1.
     999900   -1    0    0    0    0 -0.00000000000E+00 -0.00000000000E+00 -0.74505805969E-08  0.93827000000E+00  0.93827000000E+00 0. -1.
     999902    2    1    2    0    0  0.14775415656E-01 -0.72828730862E-02 -0.23270576189E-01  0.10154190746E+01  0.10150187310E+01 0.  0.
     999903    2    3    3    0    0  0.76639598924E-01  0.97293305621E-01  0.14974494929E-01  0.12624752776E+00  0.19354258613E-01 0.  0.
         14    1    1    2    0    0 -0.14775415656E-01  0.72828730862E-02  0.23270576189E-01  0.28510925350E-01  0.00000000000E+00 0.  1.
     999901    1    3    3    0    0 -0.61864183268E-01 -0.10457617871E+00 -0.38245071118E-01  0.88917154688E+00  0.88000000000E+00 0.  1.
        -11    1    4    4    0    0  0.34385520717E-01  0.55363436912E-01  0.13995572516E-02  0.65189677582E-01  0.51100000000E-03 0. -1.
         11    1    4    4    0    0  0.42254078206E-01  0.41929868710E-01  0.13574937678E-01  0.61057850183E-01  0.51100000000E-03 0.  1.
</event>
<event>
 8    1  0.1064839E+005  0.1043930E+01  0.7957747E-01            NaN
         13   -1    0    0    0    0  0.00000000000E+00  0.00000000000E+00  0.74505805969E-08  0.10566000000E+00  0.10566000000E+00 0. -1.
     999900   -1    0    0    0    0 -0.00000000000E+00 -0.00000000000E+00 -0.74505805969E-08  0.93827000000E+00  0.93827000000E+00 0.  1.
     999902    2    1    2    0    0 -0.20338675577E-01  0.51906287294E-03 -0.44535050087E-02  0.10231029777E+01  0.10228909708E+01 0.  0.
     999903    2    3    3    0    0 -0.51717184456E-01 -0.85980688707E-01 -0.87180889178E-01  0.13444632977E+00  0.20198072981E-01 0.  0.
         14    1    1    2    0    0  0.20338675577E-01 -0.51906287294E-03  0.44535050087E-02  0.20827022287E-01  0.00000000000E+00 0.  1.
     999901    1    3    3    0    0  0.31378508879E-01  0.86499751580E-01  0.82727384169E-01  0.88865664794E+00  0.88000000000E+00 0. -1.
        -11    1    4    4    0    0 -0.50314895055E-02 -0.12463080160E-01 -0.40428949151E-02  0.14044585220E-01  0.51100000000E-03 0. -1.
         11    1    4    4    0    0 -0.46685694950E-01 -0.73517608547E-01 -0.83137994263E-01  0.12040174455E+00  0.51100000000E-03 0.  1.
</event>
<event>
 8    1  0.1064839E+005  0.1043930E+01  0.7957747E-01            NaN
         13   -1    0    0    0    0  0.00000000000E+00  0.00000000000E+00  0.74505805969E-08  0.10566000000E+00  0.10566000000E+00 0.  1.
     999900   -1    0    0    0    0 -0.00000000000E+00 -0.00000000000E+00 -0.74505805969E-08  0.93827000000E+00  0.93827000000E+00 0. -1.
     999902    2    1    2    0    0 -0.15026899637E-01  0.14527861325E-02  0.18106188020E-01  0.10203555998E+01  0.10200832308E+01 0.  0.
     999903    2    3    3    0    0  0.44599401712E-01 -0.11731840891E+00  0.30009338863E-01  0.13029741205E+00  0.18003873607E-01 0.  0.
         14    1    1    2    0    0  0.15026899637E-01 -0.14527861325E-02 -0.18106188020E-01  0.23574400201E-01  0.00000000000E+00 0. -1.
     999901    1    3    3    0    0 -0.59626301348E-01  0.11877119504E+00 -0.11903150843E-01  0.89005818775E+00  0.88000000000E+00 0. -1.
        -11    1    4    4    0    0  0.37911606289E-01 -0.77183927963E-01  0.17829375543E-01  0.87822527751E-01  0.51100000000E-03 0.  1.
         11    1    4    4    0    0  0.66877954222E-02 -0.40134480947E-01  0.12179963321E-01  0.42474884296E-01  0.51100000000E-03 0. -1.
</event>
<event>
 8    1  0.1064839E+005  0.1043930E+01  0.7957747E-01            NaN
         13   -1    0    0    0    0  0.00000000000E+00  0.00000000000E+00  0.74505805969E-08  0.10566000000E+00  0.10566000000E+00 0.  1.
     999900   -1    0    0    0    0 -0.00000000000E+00 -0.00000000000E+00 -0.74505805969E-08  0.93827000000E+00  0.93827000000E+00 0.  1.
     999902    2    1    2    0    0 -0.20704663234E-01  0.98712095039E-02  0.73417185109E-02  0.10198462983E+01  0.10195618900E+01 0.  0.
     999903    2    3    3    0    0  0.16013909428E-01  0.83990757515E-01 -0.96672219740E-01  0.12986828716E+00  0.14469322598E-01 0.  0.
         14    1    1    2    0    0  0.20704663234E-01 -0.98712095039E-02 -0.73417185109E-02  0.24083701696E-01  0.00000000000E+00 0. -1.
     999901    1    3    3    0    0 -0.36718572662E-01 -0.74119548011E-01  0.10401393825E+00  0.88997801115E+00  0.88000000000E+00 0. -1.
        -11    1    4    4    0    0  0.66646548402E-02  0.35872509941E-01 -0.52139199136E-01  0.63639703025E-01  0.51100000000E-03 0.  1.
         11    1    4    4    0    0  0.93492545880E-02  0.48118247574E-01 -0.44533020604E-01  0.66228584132E-01  0.51100000000E-03 0. -1.
</event>
<event>
 8    1  0.1064839E+005  0.1043930E+01  0.7957747E-01            NaN
         13   -1    0    0    0    0  0.00000000000E+00  0.00000000000E+00  0.74505805969E-08  0.10566000000E+00  0.10566000000E+00 0. -1.
     999900   -1    0    0    0    0 -0.00000000000E+00 -0.00000000000E+00 -0.74505805969E-08  0.93827000000E+00  0.93827000000E+00 0.  1.
     999902    2    1    2    0    0 -0.21471936445E-01  0.22275882177E-02 -0.83744506726E-02  0.10207753541E+01  0.10205127073E+01 0.  0.
     999903    2    3    3    0    0  0.62753633227E-01  0.10616554140E+00 -0.36075818332E-01  0.13023371525E+00  0.21218276477E-01 0.  0.
         14    1    1    2    0    0  0.21471936445E-01 -0.22275882177E-02  0.83744506726E-02  0.23154645928E-01  0.00000000000E+00 0.  1.
     999901    1    3    3    0    0 -0.84225569673E-01 -0.10393795318E+00  0.27701367659E-01  0.89054163882E+00  0.88000000000E+00 0.  1.
        -11    1    4    4    0    0  0.22593150794E-01  0.47487323638E-01 -0.25139550323E-01  0.58290260597E-01  0.51100000000E-03 0. -1.
         11    1    4    4    0    0  0.40160482433E-01  0.58678217762E-01 -0.10936268009E-01  0.71943454657E-01  0.51100000000E-03 0.  1.
</event>
<event>
 8    1  0.1064839E+005  0.1043930E+01  0.7957747E-01            NaN
         13   -1    0    0    0    0  0.00000000000E+00  0.00000000000E+00  0.74505805969E-08  0.10566000000E+00  0.10566000000E+00 0. -1.
     999900   -1    0    0    0    0 -0.00000000000E+00 -0.00000000000E+00 -0.74505805969E-08  0.93827000000E+00  0.93827000000E+00 0. -1.
     999902    2    1    2    0    0  0.13601954924E-01 -0.44670941091E-02 -0.19387705264E-01  0.10198291448E+01  0.10195443263E+01 0.  0.
     999903    2    3    3    0    0  0.64661270239E-01 -0.98461528242E-01 -0.57701378993E-01  0.13252426767E+00  0.18907140740E-01 0.  0.
         14    1    1    2    0    0 -0.13601954924E-01  0.44670941091E-02  0.19387705264E-01  0.24100855232E-01  0.00000000000E+00 0. -1.
     999901    1    3    3    0    0 -0.51059315316E-01  0.93994434132E-01  0.38313673730E-01  0.88730487710E+00  0.88000000000E+00 0.  1.
        -11    1    4    4    0    0  0.36644874229E-01 -0.50835373700E-01 -0.40640192650E-01  0.74692492301E-01  0.51100000000E-03 0.  1.
         11    1    4    4    0    0  0.28016396010E-01 -0.47626154542E-01 -0.17061186343E-01  0.57831775368E-01  0.51100000000E-03 0. -1.
</event>
<event>
 8    1  0.1064839E+005  0.1043930E+01  0.7957747E-01            NaN
         13   -1    0    0    0    0  0.00000000000E+00  0.00000000000E+00  0.74505805969E-08  0.10566000000E+00  0.10566000000E+00 0. -1.
     999900   -1    0    0    0    0 -0.00000000000E+00 -0.00000000000E+00 -0.74505805969E-08  0.93827000000E+00  0.93827000000E+00 0. -1.
     999902    2    1    2    0    0  0.23249492450E-01 -0.72635329071E-02 -0.80822074866E-02  0.10182664093E+01  0.10179429554E+01 0.  0.
     999903    2    3    3    0    0 -0.29237227396E-01 -0.91361157113E-01  0.82544254778E-01  0.12807518164E+00  0.19698265387E-01 0.  0.
         14    1    1    2    0    0 -0.23249492450E-01  0.72635329071E-02  0.80822074866E-02  0.25663590695E-01  0.00000000000E+00 0.  1.
     999901    1    3    3    0    0  0.52486719846E-01  0.84097624206E-01 -0.90626462265E-01  0.89019122767E+00  0.88000000000E+00 0. -1.
        -11    1    4    4    0    0 -0.97301151484E-02 -0.46844318526E-01  0.52026261496E-01  0.70682800774E-01  0.51100000000E-03 0. -1.
         11    1    4    4    0    0 -0.19507112248E-01 -0.44516838587E-01  0.30517993282E-01  0.57392380862E-01  0.51100000000E-03 0.  1.
</event>
<event>
 8    1  0.1064839E+005  0.1043930E+01  0.7957747E-01            NaN
         13   -1    0    0    0    0  0.00000000000E+00  0.00000000000E+00  0.74505805969E-08  0.10566000000E+00  0.10566000000E+00 0. -1.
     999900   -1    0    0    0    0 -0.00000000000E+00 -0.00000000000E+00 -0.74505805969E-08  0.93827000000E+00  0.93827000000E+00 0.  1.
     999902    2    1    2    0    0  0.33451024287E-02  0.10698128620E-01  0.20605363323E-01  0.10204732171E+01  0.10202035905E+01 0.  0.
     999903    2    3    3    0    0 -0.44805715064E-01 -0.11780807157E+00  0.24210219179E-01  0.12983000027E+00  0.19580613574E-01 0.  0.
         14    1    1    2    0    0 -0.33451024287E-02 -0.10698128620E-01 -0.20605363323E-01  0.23456782897E-01  0.00000000000E+00 0.  1.
     999901    1    3    3    0    0  0.48150817492E-01  0.12850620019E+00 -0.36048558562E-02  0.89064321684E+00  0.88000000000E+00 0. -1.
        -11    1    4    4    0    0 -0.55220504718E-03 -0.18991403645E-01  0.62538271327E-03  0.19016586638E-01  0.51100000000E-03 0. -1.
         11    1    4    4    0    0 -0.44253510016E-01 -0.98816667921E-01  0.23584836466E-01  0.11081341363E+00  0.51100000000E-03 0.  1.
</event>
<event>
 8    1  0.1064839E+005  0.1043930E+01  0.7957747E-01            NaN
         13   -1    0    0    0    0  0.00000000000E+00  0.00000000000E+00  0.74505805969E-08  0.10566000000E+00  0.10566000000E+00 0.  1.
     999900   -1    0    0    0    0 -0.00000000000E+00 -0.00000000000E+00 -0.74505805969E-08  0.93827000000E+00  0.93827000000E+00 0. -1.
     999902    2    1    2    0    0  0.21903148014E-01 -0.81768182652E-02 -0.13730695281E-01  0.10168165302E+01  0.10164549749E+01 0.  0.
     999903    2    3    3    0    0  0.25725086393E-01  0.11718520320E+00  0.34965181218E-01  0.12659097902E+00  0.20212870994E-01 0.  0.
         14    1    1    2    0    0 -0.21903148014E-01  0.81768182652E-02  0.13730695281E-01  0.27113469766E-01  0.00000000000E+00 0.  1.
     999901    1    3    3    0    0 -0.38219383795E-02 -0.12536202147E+00 -0.48695876499E-01  0.89022555121E+00  0.88000000000E+00 0. -1.
        -11    1    4    4    0    0  0.11294505360E-02  0.30272623280E-01  0.16117875687E-01  0.34318426776E-01  0.51100000000E-03 0. -1.
         11    1    4    4    0    0  0.24595635857E-01  0.86912579920E-01  0.18847305531E-01  0.92272552248E-01  0.51100000000E-03 0.  1.
</event>
